# vtk DataFile Version 3.0
vtk output
ASCII
DATASET POLYDATA
POINTS 377 float
2.49131 -1.35219 0.949669 2.51556 -1.18997 0.931736 7.09465 0.040681 0.0385234 
6.85449 0.113898 -0.129966 5.83657 0.479648 -0.0535063 4.35774 -0.733132 -0.0353222 
4.50695 -0.610481 -0.410848 6.13812 -0.128989 -0.596919 1.90592 -2.11981 -0.0384257 
3.36778 -1.05583 -0.244722 3.26021 0.283154 -0.762118 1.89454 -2.4063 -0.283715 
5.78192 -1.39269 -1.03936 5.35609 -0.933624 -1.00493 5.71065 -1.29224 -1.23925 
5.54765 -1.08772 -1.2964 6.01907 -1.06663 -1.31152 6.15052 -0.922307 -1.3464 
0.117799 -1.54209 -1.44254 -0.490019 0.32908 -2.54871 -0.546691 0.286424 -2.50516 
-0.600857 0.245002 -2.44706 -0.65366 0.204179 -2.3817 -0.705945 0.162442 -2.3239 
-0.752146 0.117212 -2.28948 -0.783052 0.0686013 -2.26494 -0.817743 0.0214489 -2.23234 
-0.842286 -0.0240934 -2.17145 -0.877716 -0.0653394 -2.08642 -0.908868 -0.105649 -1.98713 
-0.916779 -0.150663 -1.89897 -0.917357 -0.198555 -1.82693 -0.926608 -0.246651 -1.76846 
-0.944964 -0.294878 -1.72349 -0.940615 -0.34607 -1.67464 -0.945475 -0.394073 -1.60939 
-0.930466 -0.441263 -1.50993 -0.924566 -0.48528 -1.39407 -0.896567 -0.533812 -1.28917 
-0.868778 -0.585615 -1.21415 -0.829454 -0.642647 -1.17083 -0.792431 -0.700948 -1.14209 
-0.772139 -0.758933 -1.13313 -0.739502 -0.820631 -1.14106 -0.699608 -0.885083 -1.1651 
-0.656419 -0.947424 -1.18233 -0.610404 -0.999345 -1.1934 -0.560891 -1.03565 -1.19885 
-0.51332 -1.08493 -1.20287 -0.465483 -1.13243 -1.20708 -0.414218 -1.15702 -1.21383 
-0.364207 -1.18221 -1.22785 -0.320113 -1.23146 -1.2539 -0.279777 -1.28255 -1.30177 
-0.238522 -1.31196 -1.36673 -0.198269 -1.34029 -1.43915 -0.158973 -1.3828 -1.50265 
-0.11641 -1.419 -1.55217 -0.0704322 -1.45986 -1.57548 -0.0180837 -1.4911 -1.57431 
0.0445894 -1.52245 -1.53342 -0.454748 0.298485 -2.65025 -0.416419 0.257262 -2.72123 
-0.369566 0.234234 -2.75752 -0.317219 0.224667 -2.77328 -0.261866 0.227436 -2.78305 
-0.203986 0.247106 -2.79469 -0.146597 0.263502 -2.80596 -0.0857102 0.295518 -2.81162 
-0.0223031 0.328865 -2.80275 0.042906 0.350977 -2.7706 0.111611 0.38869 -2.73283 
0.180531 0.435617 -2.70343 0.247212 0.483099 -2.68877 0.313909 0.530691 -2.67413 
0.384259 0.58015 -2.63764 0.456596 0.631756 -2.57905 0.522954 0.686838 -2.4971 
0.574549 0.744386 -2.41281 0.640898 0.799469 -2.33086 0.713235 0.851076 -2.27227 
0.784822 0.901044 -2.2285 0.853725 0.947862 -2.19908 0.92213 0.983579 -2.1611 
0.986573 0.99278 -2.12017 1.04828 0.991435 -2.08544 1.1074 0.996162 -2.0734 
1.16624 1.01445 -2.07754 1.22285 1.01784 -2.08003 1.28049 1.01264 -2.0669 
1.34163 1.0075 -2.03174 1.404 1.00287 -1.98929 1.46512 0.997616 -1.95412 
1.52246 0.990409 -1.94076 1.57704 0.980179 -1.94175 1.62887 0.959401 -1.94892 
1.67822 0.922039 -1.95425 1.7286 0.891548 -1.96035 1.77968 0.865698 -1.96695 
1.8352 0.869637 -1.97685 1.88977 0.859397 -1.97784 1.94343 0.827483 -1.96175 
2.00279 0.810505 -1.92529 2.0646 0.802079 -1.88241 2.12395 0.785002 -1.84594 
2.17732 0.751181 -1.82964 2.23012 0.729113 -1.82932 2.28138 0.704531 -1.83606 
2.32894 0.655135 -1.84007 2.37602 0.594842 -1.83552 2.42562 0.535784 -1.81643 
2.48069 0.490088 -1.77679 2.54073 0.469824 -1.73261 2.60103 0.451359 -1.68864 
2.65786 0.417383 -1.65029 2.71644 0.387405 -1.60505 2.77279 0.342425 -1.55813 
2.82787 0.296828 -1.5185 2.88144 0.264382 -1.50235 2.93202 0.22743 -1.50039 
2.98511 0.20727 -1.50028 3.04344 0.19889 -1.47945 3.10945 0.196018 -1.41515 
3.18349 0.198554 -1.29236 3.25238 0.208381 -1.11648 3.28285 0.232118 -0.920092 
-0.512136 0.402241 -2.42287 -0.52525 0.472245 -2.31341 -0.515626 0.535974 -2.22996 
-0.495118 0.596233 -2.16318 -0.464138 0.653919 -2.10552 -0.41766 0.708191 -2.05778 
-0.375573 0.762369 -2.01683 -0.318093 0.81315 -1.98579 -0.249517 0.862906 -1.94902 
-0.179167 0.912366 -1.91253 -0.109963 0.96119 -1.88334 -0.0432664 1.00878 -1.86869 
0.0234313 1.05637 -1.85405 0.0926185 1.10509 -1.82485 0.162793 1.15263 -1.78816 
0.230228 1.18963 -1.75766 0.291408 1.20808 -1.74714 0.350826 1.23028 -1.75171 
0.407963 1.24498 -1.7628 0.466112 1.26645 -1.77464 0.524487 1.28166 -1.77844 
0.586127 1.30319 -1.76826 0.649298 1.31167 -1.73461 0.71371 1.32066 -1.69366 
0.780078 1.34275 -1.65417 0.844203 1.34984 -1.61302 0.910635 1.34907 -1.54898 
0.980828 1.35014 -1.4631 1.05247 1.36093 -1.3783 1.12259 1.38477 -1.31698 
1.18671 1.39186 -1.27583 1.24937 1.38912 -1.2336 1.31176 1.3846 -1.19115 
1.37288 1.37935 -1.15598 1.43024 1.37225 -1.14264 1.48633 1.36443 -1.13655 
1.54342 1.35554 -1.123 1.60308 1.34047 -1.08675 1.66322 1.32094 -1.04265 
1.72657 1.33059 -1.00913 1.7854 1.33331 -0.996868 1.84176 1.32729 -0.990976 
1.89883 1.31828 -0.977419 1.95792 1.2994 -0.940745 2.01456 1.25644 -0.894052 
2.06995 1.21286 -0.854647 2.12527 1.19213 -0.839795 2.18107 1.1823 -0.833482 
2.23811 1.17309 -0.819902 2.29719 1.15421 -0.783228 2.35384 1.11125 -0.736536 
2.40923 1.06767 -0.697131 2.4633 1.04632 -0.689545 2.51533 1.03464 -0.705064 
2.56486 1.02173 -0.735127 2.61515 0.998439 -0.749362 2.66399 0.949866 -0.746111 
2.71385 0.892596 -0.727219 2.76479 0.843268 -0.709185 2.81742 0.80965 -0.68523 
2.86059 0.763987 -0.643543 2.88754 0.711076 -0.598439 2.92551 0.653958 -0.57751 
2.96743 0.603025 -0.603038 3.01105 0.574651 -0.653408 3.05603 0.546878 -0.696509 
3.10365 0.497389 -0.700517 3.15447 0.436635 -0.681493 3.208 0.364937 -0.684636 
0.168779 -1.5846 -1.29309 0.200442 -1.62887 -1.11754 0.234815 -1.67062 -0.953984 
0.294497 -1.70515 -0.806713 0.368838 -1.71707 -0.667654 0.445328 -1.7275 -0.52909 
0.515955 -1.75459 -0.41073 0.582343 -1.77896 -0.322051 0.644197 -1.81037 -0.254611 
0.705772 -1.82811 -0.203372 0.766108 -1.84637 -0.159421 0.823233 -1.87834 -0.121299 
0.883854 -1.89469 -0.0775588 0.94596 -1.90112 -0.0349053 1.00859 -1.90406 0.00735254 
1.07119 -1.89938 0.0414224 1.13606 -1.88733 0.0820225 1.19893 -1.8964 0.132304 
1.26456 -1.89474 0.188743 1.32697 -1.91471 0.247574 1.38938 -1.92686 0.298195 
1.45295 -1.92347 0.339753 1.51503 -1.91455 0.366008 1.57142 -1.93592 0.388279 
1.6248 -1.95408 0.388166 1.67563 -1.96605 0.365345 1.72169 -1.97881 0.313229 
1.76448 -1.99326 0.241719 1.80564 -2.01168 0.155728 1.85049 -2.04771 0.0605423 
5.60992 -1.02707 -1.40781 5.66839 -0.979941 -1.47468 5.72804 -0.947834 -1.4927 
5.78513 -0.944073 -1.4928 5.83977 -0.96161 -1.48564 5.89412 -0.996604 -1.46186 
5.95521 -1.02535 -1.40207 6.12684 -0.973775 -1.33795 6.07866 -1.02115 -1.32564 
6.00889 -1.12035 -1.30521 5.98722 -1.17204 -1.29709 5.93944 -1.21743 -1.28501 
5.88178 -1.24926 -1.27238 5.82593 -1.25607 -1.26218 5.77 -1.26275 -1.25198 
5.61436 -1.1605 -1.23886 5.66746 -1.22696 -1.21975 5.48884 -1.07452 -1.15664 
5.44264 -1.04747 -1.06046 5.40033 -0.995339 -1.01737 5.73561 -1.34027 -1.13388 
5.30249 -0.924675 -0.996451 5.24889 -0.915725 -0.987976 5.19529 -0.906775 -0.979501 
5.14169 -0.897825 -0.971026 5.08809 -0.888875 -0.962551 5.03447 -0.880034 -0.954064 
4.98184 -0.872364 -0.938102 4.93025 -0.873293 -0.906508 4.88018 -0.887256 -0.851449 
4.83361 -0.885707 -0.790748 4.78724 -0.874954 -0.73842 4.7374 -0.864154 -0.708124 
4.68535 -0.852582 -0.692593 4.63541 -0.829034 -0.675926 4.5933 -0.775566 -0.632983 
4.55419 -0.7011 -0.542047 5.44535 -0.874931 -0.859343 5.52709 -0.819937 -0.757402 
5.59754 -0.770496 -0.720935 5.65672 -0.726606 -0.749932 5.71078 -0.685166 -0.808021 
5.76296 -0.643411 -0.865802 5.80863 -0.597267 -0.892674 5.83482 -0.544564 -0.886564 
5.86592 -0.489378 -0.851349 5.92088 -0.437348 -0.812423 5.97459 -0.385936 -0.780783 
6.00312 -0.331903 -0.760109 6.03194 -0.275791 -0.732115 6.08376 -0.212274 -0.67855 
1.90417 -2.35131 -0.279976 1.91649 -2.29217 -0.246891 1.92296 -2.2186 -0.16373 
1.98176 -2.06424 -0.0587191 2.05238 -2.01347 -0.0525633 2.12193 -1.9643 -0.025968 
2.19074 -1.91575 0.000797593 2.2559 -1.87068 0.00837572 2.31709 -1.83666 0.00249542 
2.37479 -1.81816 -0.00901427 2.43471 -1.78486 -0.0221596 2.49583 -1.74353 -0.0361931 
2.55698 -1.70973 -0.0420495 2.61816 -1.69127 -0.0315279 2.68386 -1.66589 0.000252841 
2.75005 -1.64497 0.0398824 2.81747 -1.60808 0.0703919 2.88235 -1.5649 0.0781801 
2.94352 -1.53099 0.0723113 3.00112 -1.51247 0.0608186 3.05792 -1.47937 0.0406819 
3.10394 -1.43605 0.0064541 3.1316 -1.39031 -0.0474417 3.171 -1.34725 -0.110688 
3.21166 -1.30358 -0.166648 3.24425 -1.25525 -0.191452 3.29358 -1.20723 -0.196475 
3.34227 -1.15829 -0.193923 3.36261 -1.10709 -0.209314 4.44782 -0.657842 -0.293566 
4.39976 -0.697493 -0.168784 6.22634 -0.111191 -0.583454 6.30319 -0.0729541 -0.554684 
6.37601 -0.0245625 -0.510989 6.44873 0.0240274 -0.45975 6.51964 0.0609779 -0.407211 
6.58657 0.0713039 -0.35174 6.65177 0.0700198 -0.294975 6.71696 0.0687358 -0.23821 
6.78388 0.0789632 -0.182727 6.0851 -0.0507858 -0.58687 6.05113 0.0174321 -0.564177 
6.03895 0.0805304 -0.522177 6.01503 0.146485 -0.463307 5.98239 0.212848 -0.395424 
5.94732 0.270172 -0.321334 5.91073 0.31461 -0.238335 5.87535 0.383142 -0.147538 
4.50798 -0.50287 -0.181305 4.53524 -0.420383 0.0106579 4.58289 -0.352821 0.167697 
4.65537 -0.293184 0.298484 4.73313 -0.237526 0.401054 4.78998 -0.185811 0.439683 
4.80854 -0.136793 0.402157 4.8153 -0.0924108 0.306716 4.83431 -0.0517289 0.194386 
4.8551 -0.00803684 0.111677 4.90005 0.036577 0.0699794 4.9635 0.0838827 0.0776624 
5.03072 0.13304 0.107177 5.08829 0.183695 0.138215 5.12706 0.233178 0.149966 
5.17663 0.269139 0.145923 5.23244 0.287855 0.134721 5.29196 0.319262 0.121804 
5.35132 0.348862 0.109067 5.40726 0.355544 0.0988637 5.4632 0.362226 0.0886604 
5.52256 0.391825 0.0759236 5.58218 0.423116 0.0629999 5.63923 0.439364 0.0492787 
5.69696 0.459326 0.0275795 5.75894 0.467934 -0.0064528 5.91603 0.545918 0.0277586 
5.97018 0.605931 0.0963102 6.02992 0.656169 0.137072 6.09218 0.691977 0.14845 
6.15228 0.711729 0.151511 6.21598 0.746984 0.160175 6.28488 0.793803 0.189587 
6.35501 0.841023 0.226309 6.42186 0.874116 0.257238 6.47797 0.866401 0.263317 
6.52333 0.817874 0.244527 6.56153 0.753282 0.198169 6.59641 0.686362 0.145028 
6.62281 0.621686 0.100713 6.63846 0.563117 0.0803571 6.67286 0.513135 0.0711238 
6.72037 0.477068 0.0659975 6.76429 0.425497 0.0552588 6.79283 0.364776 0.0328659 
6.79284 0.304505 -0.00727789 6.79159 0.243508 -0.0546967 6.81608 0.179039 -0.0987013 
6.91107 0.0937898 -0.107836 6.96819 0.0618185 -0.0697142 7.03007 0.0460844 -0.018697 
2.50747 -1.24405 0.937714 2.49939 -1.29812 0.943691 
LINES 19 416
9 15 225 226 227 228 229 230 231 16 
4 17 232 233 16 
8 16 234 235 236 237 238 239 14 
4 15 240 241 14 
5 15 242 243 244 13 
3 14 245 12 
18 13 246 247 248 249 250 251 252 253 254 255 256 257 258 259 260 261 6 
16 13 262 263 264 265 266 267 268 269 270 271 272 273 274 275 7 
5 11 276 277 278 8 
28 8 279 280 281 282 283 284 285 286 287 288 289 290 291 292 293 294 295 296 297 298 299 300 301 302 303 304 9 
4 6 305 306 5 
11 7 307 308 309 310 311 312 313 314 315 3 
10 7 316 317 318 319 320 321 322 323 4 
28 6 324 325 326 327 328 329 330 331 332 333 334 335 336 337 338 339 340 341 342 343 344 345 346 347 348 349 4 
24 4 350 351 352 353 354 355 356 357 358 359 360 361 362 363 364 365 366 367 368 369 370 371 3 
5 3 372 373 374 2 
4 1 375 376 0 
74 19 20 21 22 23 24 25 26 27 28 29 30 31 32 33 34 35 36 37 38 39 40 41 42 43 44 45 46 47 48 49 50 51 52 53 54 55 56 57 58 59 60 18 195 196 197 198 199 200 201 202 203 204 205 206 207 208 209 210 211 212 213 214 215 216 217 218 219 220 221 222 223 224 8 
137 19 61 62 63 64 65 66 67 68 69 70 71 72 73 74 75 76 77 78 79 80 81 82 83 84 85 86 87 88 89 90 91 92 93 94 95 96 97 98 99 100 101 102 103 104 105 106 107 108 109 110 111 112 113 114 115 116 117 118 119 120 121 122 123 124 125 10 194 193 192 191 190 189 188 187 186 185 184 183 182 181 180 179 178 177 176 175 174 173 172 171 170 169 168 167 166 165 164 163 162 161 160 159 158 157 156 155 154 153 152 151 150 149 148 147 146 145 144 143 142 141 140 139 138 137 136 135 134 133 132 131 130 129 128 127 126 19 

POINT_DATA 377
SCALARS DY_raw double
LOOKUP_TABLE default
19.877 15.4839 35.4811 44.2374 41.5461 77.6185 32.3399 52.8421 29.2368 
15.1734 27.9652 50.7471 104.236 64.0822 45.4186 51.8749 41.9375 10.4792 
58.1106 55.2901 52.6042 59.8472 74.5468 75.1423 71.4132 61.0607 61.0607 
61.8351 78.6638 83.6456 76.2498 73.1413 72.8489 56.5117 55.2362 52.8056 
59.1345 60.157 66.391 70.4898 59.6736 82.2007 77.8572 73.2389 82.8169 
79.2935 87.6195 77.3684 70.913 79.636 76.0797 81.945 81.945 89.8672 
83.6113 87.1982 66.3115 69.2002 57.7393 58.9352 54.094 55.2007 79.1936 
83.6447 83.6447 83.1408 81.8835 75.7254 66.4453 63.0674 63.8776 69.3155 
72.9563 72.2169 65.431 59.6003 70.279 80.1261 81.0645 77.3255 59.4771 
63.5834 64.1547 69.2039 77.8874 69.3519 75.067 64.5009 56.6186 56.6186 
67.5799 74.039 79.95 69.693 59.4193 59.4193 52.9287 60.4355 60.6185 
66.6452 66.6452 57.9987 61.5522 81.831 69.3879 52.8444 63.7352 50.1262 
58.6385 56.5153 45.0702 51.9974 50.7198 53.5399 60.3607 46.3913 47.3968 
56.1674 57.7861 58.5451 58.5719 31.2727 46.2252 35.5029 40.0599 33.3556 
52.2368 65.34 65.9321 72.3816 82.2862 77.124 76.9873 82.7542 87.6596 
84.0914 86.7451 64.7956 64.1217 74.6887 82.5624 72.5356 63.5623 68.1766 
62.6736 45.6801 43.2827 43.2827 51.035 46.3678 50.0677 53.6825 52.5481 
57.3857 56.6362 64.9765 64.0429 40.2909 46.7467 44.1606 46.1197 54.3337 
56.2774 56.6117 64.8235 61.352 54.2749 54.2749 36.6177 47.1418 55.8525 
43.7528 43.7528 23.7467 21.5952 24.8539 37.5072 49.2933 59.8165 65.8731 
56.0911 47.7803 46.0751 53.9703 58.9046 51.0004 34.3301 26.5463 36.1934 
33.0148 24.1799 34.4644 33.2035 29.5434 28.4854 51.2093 53.2629 49.7292 
50.6434 51.3194 59.135 57.1959 53.5734 61.97 56.7645 55.8931 46.0528 
34.7164 37.6325 40.4785 43.3043 43.3083 47.612 43.0504 40.9603 21.7607 
19.3996 22.2792 29.8257 29.8257 27.8365 28.6266 44.0233 40.5916 39.5529 
30.5238 28.7802 47.6675 50.3115 43.2273 43.2273 47.6284 24.395 41.9375 
49.7828 49.7828 56.3224 54.3516 54.2822 51.5195 53.9722 57.2672 64.1427 
73.9475 78.5222 80.1776 64.0822 58.1778 53.755 53.755 56.4101 66.5962 
67.6833 67.6833 65.2571 53.2431 47.0539 47.0539 44.1781 45.3612 31.893 
39.5464 100.488 131.645 127.58 127.58 101.838 78.1599 73.4167 48.36 
50.5325 47.2067 36.8958 28.8788 28.5853 33.8731 48.2416 41.9625 34.1176 
31.3196 34.2465 37.9263 31.9436 20.4547 11.5077 17.4554 11.9507 19.834 
18.749 26.892 44.6709 44.8989 39.9551 30.1753 27.3195 25.3635 28.673 
36.3506 37.6379 39.9997 41.1213 38.2125 33.4447 15.5224 15.5224 46.9118 
57.6377 41.4704 38.7581 36.494 28.2335 8.59546 0.478584 2.77699 8.59443 
32.2721 49.8542 36.8208 55.4397 59.7074 84.0301 88.4578 60.4412 45.6229 
51.271 52.0496 66.4795 73.426 62.7141 56.9123 54.875 60.5021 61.4897 
63.6248 69.5787 74.7696 73.3287 79.4045 77.8095 70.5397 55.3552 59.1181 
53.3991 62.1415 85.1537 83.3747 83.3747 55.1969 52.5387 38.7717 42.0938 
42.2591 40.0349 31.9052 24.5779 18.1114 21.7866 42.817 30.1434 30.1434 
38.9716 30.5046 12.0325 0 16.0103 19.13 28.1363 42.4546 15.2278 
11.0946 29.0952 18.2608 29.6496 13.8112 25.8832 15.4839 19.877 
FIELD FieldData 7
DY_minmax 1 377 double
0.15099 0.117619 0.269521 0.336036 0.315592 0.589606 0.24566 0.401399 0.222088 
0.11526 0.212429 0.385485 0.791795 0.486781 0.345009 0.394052 0.318565 0.0796017 
0.44142 0.419994 0.399592 0.454611 0.566272 0.570796 0.542469 0.463829 0.463829 
0.469712 0.597546 0.635389 0.579208 0.555595 0.553375 0.429274 0.419585 0.401122 
0.449197 0.456964 0.504319 0.535455 0.453293 0.624412 0.591419 0.556337 0.629094 
0.602329 0.665575 0.587705 0.538669 0.604931 0.577916 0.62247 0.62247 0.682649 
0.635128 0.662375 0.503715 0.525658 0.438599 0.447683 0.410909 0.419315 0.60157 
0.635382 0.635382 0.631554 0.622003 0.575225 0.504732 0.479072 0.485227 0.526534 
0.55419 0.548574 0.497027 0.452736 0.533853 0.608653 0.615782 0.587379 0.4518 
0.482992 0.487332 0.525687 0.591648 0.526811 0.570224 0.489961 0.430086 0.430086 
0.513351 0.562415 0.607316 0.529402 0.45136 0.45136 0.402057 0.45908 0.46047 
0.50625 0.50625 0.440569 0.467563 0.621604 0.527084 0.401416 0.484145 0.380769 
0.44543 0.429301 0.342362 0.394983 0.385277 0.406699 0.458511 0.352397 0.360035 
0.426659 0.438954 0.44472 0.444924 0.237553 0.351136 0.269687 0.304303 0.253376 
0.396801 0.496335 0.500833 0.549825 0.625062 0.585849 0.584811 0.628617 0.66588 
0.638775 0.658933 0.4922 0.487081 0.56735 0.62716 0.550995 0.482832 0.517883 
0.476081 0.346995 0.328784 0.328784 0.387672 0.352219 0.380324 0.407782 0.399166 
0.435913 0.43022 0.493574 0.486482 0.306058 0.355097 0.335453 0.350335 0.41273 
0.427494 0.430034 0.492412 0.466041 0.412283 0.412283 0.278155 0.358098 0.424266 
0.332355 0.332355 0.180385 0.164042 0.188795 0.284912 0.374441 0.454378 0.500385 
0.426079 0.362949 0.349995 0.409969 0.447451 0.387409 0.260778 0.201651 0.274932 
0.250787 0.183675 0.261799 0.25222 0.224417 0.21638 0.388996 0.404596 0.377753 
0.384697 0.389832 0.449201 0.434471 0.406954 0.470737 0.431194 0.424575 0.349826 
0.263712 0.285864 0.307483 0.328948 0.328979 0.36167 0.327019 0.311143 0.165298 
0.147363 0.169237 0.226562 0.226562 0.211451 0.217453 0.33441 0.308342 0.300452 
0.231865 0.21862 0.362092 0.382176 0.328363 0.328363 0.361794 0.185309 0.318565 
0.37816 0.37816 0.427836 0.412865 0.412339 0.391352 0.409983 0.435013 0.48724 
0.561719 0.59647 0.609045 0.486781 0.44193 0.408334 0.408334 0.428502 0.505878 
0.514136 0.514136 0.495706 0.404445 0.357431 0.357431 0.335585 0.344573 0.242265 
0.300402 0.763329 1 0.969122 0.969122 0.773579 0.593718 0.557688 0.367352 
0.383855 0.358591 0.280268 0.219369 0.21714 0.257307 0.366453 0.318755 0.259164 
0.23791 0.260143 0.288095 0.24265 0.155378 0.0874148 0.132595 0.0907796 0.150663 
0.142421 0.204277 0.339329 0.341061 0.303507 0.229218 0.207524 0.192666 0.217806 
0.276126 0.285905 0.303845 0.312366 0.29027 0.254053 0.117911 0.117911 0.356351 
0.437827 0.315018 0.294414 0.277216 0.214467 0.0652928 0.00363542 0.0210945 0.065285 
0.245145 0.378702 0.279698 0.421131 0.453549 0.638309 0.671943 0.459123 0.346561 
0.389465 0.395379 0.504991 0.557759 0.476389 0.432317 0.416841 0.459585 0.467088 
0.483306 0.528533 0.567964 0.557019 0.603172 0.591056 0.535833 0.420489 0.449072 
0.40563 0.472039 0.646844 0.633331 0.633331 0.419287 0.399094 0.294517 0.319752 
0.321009 0.304113 0.242358 0.186699 0.137577 0.165496 0.325247 0.228975 0.228975 
0.296036 0.231719 0.0914014 0 0.121617 0.145315 0.213729 0.322494 0.115673 
0.0842764 0.221012 0.138713 0.225224 0.104913 0.196614 0.117619 0.15099 
WidthEq 1 377 double
1.15108 1.15539 1.63383 2.00057 2.01776 1.42054 2.93755 2.43102 3.05745 
2.826 3.14105 1.34806 1.04206 2.76177 2.6826 2.92742 2.90599 1.70529 
5.56955 3.43298 3.35353 3.09522 2.91683 2.85312 2.78562 3.35273 3.35273 
3.35861 3.6895 3.6027 4.04185 3.90628 3.96711 3.91476 3.95538 3.91265 
3.58183 3.56185 3.39263 3.58435 3.72409 3.31579 3.11262 3.0877 2.79882 
2.56969 2.34571 2.4121 2.48107 2.33148 2.57979 2.72646 2.72646 2.69208 
2.75752 2.66083 2.98229 3.39175 4.18536 4.94713 5.61005 3.39488 2.82573 
2.70406 2.70406 2.87825 3.00915 3.21557 3.22581 3.07179 2.87268 2.70546 
2.57332 2.46798 2.5089 2.66425 2.71518 2.62162 2.58153 2.45029 2.79183 
2.76959 2.99635 3.15893 2.90599 2.73215 2.62712 2.60493 2.65178 2.65178 
2.7372 2.74436 2.62489 2.74934 2.84823 2.84823 3.29594 3.12101 3.36432 
3.37143 3.37143 3.26818 3.16967 2.82204 3.02257 3.17687 2.90813 3.32221 
2.99376 2.70723 3.00287 2.63532 2.80857 2.88906 2.87571 3.01996 2.93058 
2.72222 2.28117 2.24528 2.18159 2.32183 2.15207 2.33784 2.57565 3.04476 
3.17133 2.86241 2.78104 2.58712 2.47125 2.29682 2.32207 2.25777 2.01837 
1.91185 1.90455 1.712 1.87285 1.92854 1.83522 2.00688 2.10565 1.95903 
2.04185 2.52605 2.86165 2.86165 3.31733 3.40797 3.18629 3.03395 2.80105 
2.60535 2.51694 2.40856 2.39199 2.49461 2.22903 2.14807 2.0501 2.07753 
1.91818 1.98016 1.91844 2.17711 2.40719 2.40719 3.04552 2.98504 3.31659 
3.74216 3.74216 3.51248 3.16042 2.98907 2.40247 2.23418 2.12483 1.94222 
1.97411 1.93992 2.01714 1.99758 2.24838 2.48998 2.69035 2.74389 2.4731 
2.21901 2.24608 1.94955 2.15489 2.46857 2.88359 5.05318 5.28229 5.26652 
4.96728 4.6349 3.84527 3.55253 3.47654 3.14636 3.08943 2.83666 2.9679 
3.04438 2.96977 2.86844 2.67456 2.58103 2.37167 2.4102 2.36131 2.90111 
3.16089 3.06788 3.0192 3.0192 2.8107 2.35166 2.25585 2.60941 2.89966 
2.48232 2.20291 1.99234 2.05261 2.16229 2.16229 2.64044 2.2439 2.90599 
2.6481 2.6481 2.42319 2.36148 2.18451 2.32999 3.13273 2.95457 3.12023 
3.05365 2.93357 2.05007 2.76177 2.65118 2.3808 2.3808 2.25988 2.19622 
2.10657 2.10657 2.13417 2.21813 2.26782 2.26782 2.46118 2.5039 2.78024 
2.86018 2.39292 1.63068 1.45861 1.45861 1.55414 1.77815 2.00159 2.19748 
2.40261 2.27171 2.38753 2.36852 2.56635 2.45416 2.3629 2.7832 3.02689 
3.2178 3.01053 2.59978 2.24677 2.06456 1.87787 1.76392 1.56142 1.40769 
1.45074 1.57854 1.6476 1.70138 2.18145 2.26477 2.48211 2.85134 3.01956 
3.16061 3.1548 3.01653 2.87588 2.98751 2.94516 3.06975 3.06975 2.84513 
2.54174 2.53337 2.4075 2.2168 1.85312 1.8056 1.81786 1.83652 1.99082 
2.05162 2.13503 1.7281 1.34038 1.28342 1.25979 1.33046 1.63084 1.89006 
2.71596 2.68167 2.5632 2.28039 1.93689 2.15191 2.10041 2.19563 2.17028 
2.2628 2.51974 2.44083 2.86995 3.05852 3.06518 3.05162 2.88536 2.67888 
2.63319 2.52182 2.1359 2.04642 2.04642 2.06207 2.03336 2.07703 1.85016 
1.75323 1.63482 1.52671 1.34592 1.3036 1.51974 2.04521 2.6155 2.6155 
2.29115 1.87349 1.45605 1.44688 1.10304 1 1.0538 1.08775 1.30223 
1.47009 2.00514 2.23648 2.07928 2.0382 1.99241 1.15539 1.15108 
rRFP 1 377 double
2725.09 2726.91 2928.7 3083.38 3090.63 2838.74 3478.57 3264.93 3529.14 
3431.52 3564.4 2808.17 2679.11 3404.43 3371.04 3474.3 3465.26 2958.84 
4588.67 3687.53 3654.02 3545.07 3469.83 3442.96 3414.49 3653.68 3653.68 
3656.16 3795.72 3759.11 3944.33 3887.15 3912.81 3890.73 3907.86 3889.84 
3750.31 3741.88 3670.51 3751.37 3810.31 3638.1 3552.41 3541.9 3420.06 
3323.42 3228.95 3256.95 3286.04 3222.95 3327.68 3389.54 3389.54 3375.04 
3402.64 3361.86 3497.44 3670.14 4004.86 4326.15 4605.75 3671.46 3431.41 
3380.09 3380.09 3453.56 3508.77 3595.83 3600.15 3535.19 3451.21 3380.68 
3324.95 3280.52 3297.78 3363.3 3384.78 3345.32 3328.41 3273.06 3417.11 
3407.73 3503.37 3571.94 3465.26 3391.94 3347.64 3338.28 3358.04 3358.04 
3394.07 3397.09 3346.7 3399.19 3440.9 3440.9 3629.73 3555.95 3658.57 
3661.57 3661.57 3618.02 3576.47 3429.85 3514.43 3579.51 3466.16 3640.81 
3502.28 3381.43 3506.12 3351.1 3424.17 3458.12 3452.49 3513.33 3475.63 
3387.75 3201.73 3186.59 3159.73 3218.88 3147.28 3225.63 3325.93 3523.79 
3577.17 3446.88 3412.56 3330.77 3281.9 3208.33 3218.98 3191.86 3090.89 
3045.96 3042.88 2961.67 3029.51 3053 3013.64 3086.04 3127.7 3065.86 
3100.79 3305.01 3446.56 3446.56 3638.75 3676.98 3583.48 3519.23 3421 
3338.46 3301.17 3255.46 3248.47 3291.75 3179.74 3145.59 3104.27 3115.84 
3048.63 3074.77 3048.74 3157.84 3254.88 3254.88 3524.11 3498.6 3638.44 
3817.93 3817.93 3721.06 3572.57 3500.3 3252.89 3181.91 3135.79 3058.77 
3072.22 3057.8 3090.37 3082.12 3187.9 3289.8 3374.31 3396.89 3282.68 
3175.51 3186.93 3061.86 3148.47 3280.77 3455.81 4370.88 4467.51 4460.86 
4334.65 4194.46 3861.42 3737.95 3705.9 3566.64 3542.63 3436.02 3491.37 
3523.63 3492.16 3449.42 3367.65 3328.2 3239.9 3256.15 3235.53 3463.2 
3572.77 3533.54 3513.01 3513.01 3425.07 3231.46 3191.05 3340.17 3462.59 
3286.57 3168.72 3079.91 3105.33 3151.59 3151.59 3353.26 3186.01 3465.26 
3356.49 3356.49 3261.63 3235.6 3160.96 3222.32 3560.89 3485.75 3555.62 
3527.54 3476.89 3104.26 3404.43 3357.79 3243.75 3243.75 3192.75 3165.9 
3128.09 3128.09 3139.73 3175.14 3196.1 3196.1 3277.65 3295.67 3412.22 
3445.94 3248.86 2927.37 2854.8 2854.8 2895.09 2989.57 3083.81 3166.43 
3252.95 3197.74 3246.59 3238.57 3322.01 3274.69 3236.2 3413.47 3516.25 
3596.77 3509.35 3336.11 3187.22 3110.37 3031.63 2983.57 2898.16 2833.32 
2851.48 2905.38 2934.51 2957.19 3159.67 3194.81 3286.48 3442.21 3513.16 
3572.65 3570.2 3511.88 3452.56 3499.64 3481.78 3534.33 3534.33 3439.59 
3311.63 3308.1 3255.01 3174.58 3021.19 3001.15 3006.32 3014.19 3079.27 
3104.91 3140.09 2968.46 2804.93 2780.91 2770.94 2800.75 2927.44 3036.77 
3385.11 3370.65 3320.68 3201.4 3056.52 3147.21 3125.49 3165.65 3154.96 
3193.98 3302.35 3269.07 3450.06 3529.59 3532.4 3526.68 3456.56 3369.47 
3350.2 3303.23 3140.46 3102.72 3102.72 3109.32 3097.21 3115.63 3019.94 
2979.06 2929.12 2883.52 2807.27 2789.42 2880.58 3102.21 3342.74 3342.74 
3205.94 3029.78 2853.72 2849.85 2704.83 2661.37 2684.06 2698.38 2788.84 
2859.64 3085.31 3182.88 3116.58 3099.25 3079.94 2726.91 2725.09 
rGFP 1 377 double
2468.42 2463.43 2503.51 2534.04 2529.37 2555.8 2540.54 2574 2534.93 
2488.42 2533.38 2513.95 2554.16 2622.52 2567.38 2597.4 2567.41 2463.41 
2769.19 2635.35 2621.95 2630.78 2662.98 2659.93 2644.47 2650.26 2650.26 
2653.22 2735.77 2746.89 2753.73 2731.25 2734.54 2666.77 2664.02 2652.15 
2657.35 2659.81 2670.78 2698.2 2667.77 2718.1 2687.88 2671.68 2677.33 
2649.3 2651.07 2632.16 2621.48 2631.21 2641.81 2668.96 2668.96 2687.47 
2676.1 2677.56 2643.3 2680.25 2687.2 2737.1 2749.01 2632.94 2669.32 
2671.72 2671.72 2684.84 2691.94 2689.04 2659.88 2639.27 2629.04 2633.07 
2633.28 2623.77 2609.7 2604.33 2636.36 2655.6 2654.81 2635.01 2611.59 
2621.64 2637.77 2664.15 2671.88 2635.02 2642.75 2613.56 2595.68 2595.68 
2630.52 2648.73 2655.4 2637.15 2614.78 2614.78 2619.99 2634.16 2649.48 
2670.23 2670.23 2635.09 2640.64 2676.47 2655.27 2613.42 2630.89 2612.07 
2621.09 2598.54 2580.88 2582.57 2587.99 2600.22 2619.12 2585.64 2584.44 
2598.44 2577.36 2576.99 2573.32 2518.15 2545.02 2528.54 2548.72 2547.1 
2611.2 2632.57 2628.9 2632.8 2648.89 2622.68 2624.31 2632.38 2622.47 
2606.31 2610.75 2556.47 2565.63 2589.58 2597.06 2591.11 2579.38 2579.1 
2573.51 2560.93 2569.4 2569.4 2614.84 2603.56 2605.07 2608.41 2592.73 
2595.05 2588.09 2602.04 2598.73 2546.05 2549.74 2540.4 2540.09 2558.42 
2553.49 2557.64 2569.9 2579.11 2576.19 2576.19 2557.06 2586.26 2630.78 
2609.27 2609.27 2528.95 2513.79 2519.83 2535.65 2555.67 2572.64 2573.48 
2556.27 2538.23 2538.48 2553.35 2577.98 2572.53 2537.9 2518.38 2535.05 
2518.8 2499.85 2512.73 2517.09 2518.47 2527.68 2704.31 2726.89 2707.44 
2697.1 2683.4 2672.93 2648.73 2631.79 2640.52 2620.91 2604.09 2582.22 
2551.23 2557.3 2561.65 2561.36 2557.32 2558.46 2549.3 2542.26 2508.67 
2506.86 2513.89 2535.59 2535.59 2523.78 2512.86 2544.85 2551.46 2560.23 
2521.31 2508.94 2540.51 2548.81 2539.01 2539.01 2571.3 2500.28 2567.41 
2577.37 2577.37 2582.02 2573.89 2564.12 2565.58 2614.62 2614.74 2645.68 
2671.35 2675.89 2609.91 2622.52 2599.78 2573.52 2573.52 2573.02 2591.8 
2588.12 2588.12 2584.81 2563.64 2552.25 2552.25 2554.27 2559.12 2534.21 
2558.65 2686 2660.21 2631.63 2631.63 2603.81 2584.52 2592.49 2551.81 
2566.95 2552.78 2533.63 2513.94 2518.9 2528.67 2559.53 2562.33 2548.81 
2546.32 2548.64 2544.14 2517.31 2487.77 2467.15 2476.33 2464.2 2473.46 
2472.74 2487.99 2519.14 2521.93 2532.7 2513.88 2513.35 2517.86 2532.12 
2560.43 2564.28 2566.2 2563.8 2559.7 2544.04 2493.19 2493.19 2579.01 
2592.04 2550.6 2538.85 2526.44 2497.86 2461.06 2446.41 2450.64 2462.65 
2511.75 2551.98 2509.17 2519.85 2522.17 2551.4 2563.23 2544.11 2531.77 
2584.79 2585.12 2615.94 2612.98 2567.01 2568.01 2560.8 2578.38 2578.99 
2589.51 2620.86 2628.04 2655.99 2688.4 2684.04 2660.8 2605.26 2603.91 
2586.15 2602.25 2627.42 2616.16 2616.16 2559.36 2552.37 2526.07 2523.42 
2519.63 2510.99 2494.25 2478.62 2469.15 2478.65 2533.11 2524.38 2524.38 
2534.83 2502.69 2463.06 2445.54 2463.2 2464.67 2475.19 2491.72 2465.37 
2461.85 2503.88 2486.38 2507.19 2473.69 2497.11 2463.43 2468.42 
bkstRFP 1 377 double
485.49 487.31 689.1 843.78 851.03 599.14 1238.97 1025.33 1289.54 
1191.92 1324.8 568.57 439.51 1164.83 1131.44 1234.7 1225.66 719.24 
2349.07 1447.93 1414.42 1305.47 1230.23 1203.36 1174.89 1414.08 1414.08 
1416.56 1556.12 1519.51 1704.73 1647.55 1673.21 1651.13 1668.26 1650.24 
1510.71 1502.28 1430.91 1511.77 1570.71 1398.5 1312.81 1302.3 1180.46 
1083.82 989.35 1017.35 1046.44 983.35 1088.08 1149.94 1149.94 1135.44 
1163.04 1122.26 1257.84 1430.54 1765.26 2086.55 2366.15 1431.86 1191.81 
1140.49 1140.49 1213.96 1269.17 1356.23 1360.55 1295.59 1211.61 1141.08 
1085.35 1040.92 1058.18 1123.7 1145.18 1105.72 1088.81 1033.46 1177.51 
1168.13 1263.77 1332.34 1225.66 1152.34 1108.04 1098.68 1118.44 1118.44 
1154.47 1157.49 1107.1 1159.59 1201.3 1201.3 1390.13 1316.35 1418.97 
1421.97 1421.97 1378.42 1336.87 1190.25 1274.83 1339.91 1226.56 1401.21 
1262.68 1141.83 1266.52 1111.5 1184.57 1218.52 1212.89 1273.73 1236.03 
1148.15 962.13 946.99 920.13 979.28 907.68 986.03 1086.33 1284.19 
1337.57 1207.28 1172.96 1091.17 1042.3 968.73 979.38 952.26 851.29 
806.36 803.28 722.07 789.91 813.4 774.04 846.44 888.1 826.26 
861.19 1065.41 1206.96 1206.96 1399.15 1437.38 1343.88 1279.63 1181.4 
1098.86 1061.57 1015.86 1008.87 1052.15 940.14 905.99 864.67 876.24 
809.03 835.17 809.14 918.24 1015.28 1015.28 1284.51 1259 1398.84 
1578.33 1578.33 1481.46 1332.97 1260.7 1013.29 942.31 896.19 819.17 
832.62 818.2 850.77 842.52 948.3 1050.2 1134.71 1157.29 1043.08 
935.91 947.33 822.26 908.87 1041.17 1216.21 2131.28 2227.91 2221.26 
2095.05 1954.86 1621.82 1498.35 1466.3 1327.04 1303.03 1196.42 1251.77 
1284.03 1252.56 1209.82 1128.05 1088.6 1000.3 1016.55 995.93 1223.6 
1333.17 1293.94 1273.41 1273.41 1185.47 991.86 951.45 1100.57 1222.99 
1046.97 929.12 840.31 865.73 911.99 911.99 1113.66 946.41 1225.66 
1116.89 1116.89 1022.03 996 921.36 982.72 1321.29 1246.15 1316.02 
1287.94 1237.29 864.66 1164.83 1118.19 1004.15 1004.15 953.15 926.3 
888.49 888.49 900.13 935.54 956.5 956.5 1038.05 1056.07 1172.62 
1206.34 1009.26 687.77 615.2 615.2 655.49 749.97 844.21 926.83 
1013.35 958.14 1006.99 998.97 1082.41 1035.09 996.6 1173.87 1276.65 
1357.17 1269.75 1096.51 947.62 870.77 792.03 743.97 658.56 593.72 
611.88 665.78 694.91 717.59 920.07 955.21 1046.88 1202.61 1273.56 
1333.05 1330.6 1272.28 1212.96 1260.04 1242.18 1294.73 1294.73 1199.99 
1072.03 1068.5 1015.41 934.98 781.59 761.55 766.72 774.59 839.67 
865.31 900.49 728.86 565.33 541.31 531.34 561.15 687.84 797.17 