# vtk DataFile Version 3.0
vtk output
ASCII
DATASET POLYDATA
POINTS 308 float
2.15156 0.251535 1.85596 2.76275 0.554582 1.37743 6.7474 -0.734819 0.140676 
3.90888 0.0837778 0.361732 6.44362 -0.367005 -0.306224 6.05485 0.152921 -0.247086 
0.213079 -0.212884 0.046654 5.75163 0.0580457 -0.637088 -0.452195 -0.191172 -0.732355 
-0.642385 -0.188535 -0.684454 -0.764767 -0.194491 -0.673857 1.64974 -0.353746 -1.1393 
0.488021 0.159475 -1.13611 0.371329 0.337498 -1.43217 1.05356 1.30233 -1.38444 
0.868235 1.22075 -1.38202 0.501471 0.936854 -1.40022 -0.0611224 0.135508 -1.49683 
-0.012946 0.162039 -1.49646 0.0352305 0.18857 -1.49609 0.0834068 0.215101 -1.49572 
0.131583 0.241632 -1.49535 0.180071 0.267709 -1.49257 0.230686 0.292499 -1.48267 
0.291224 0.315448 -1.46145 0.393914 0.43344 -1.44912 0.405399 0.511596 -1.45826 
0.403184 0.5749 -1.45625 0.414667 0.64329 -1.44703 0.435124 0.715995 -1.43534 
0.457175 0.78958 -1.42363 0.479323 0.863217 -1.41193 0.574658 0.918121 -1.41074 
0.642257 0.909502 -1.41883 0.696988 0.924171 -1.42132 0.74447 0.952063 -1.4282 
0.784721 0.993231 -1.43946 0.812366 1.05854 -1.44498 0.838024 1.13525 -1.42547 
0.521832 1.00951 -1.38853 0.533538 1.07739 -1.3769 0.532065 1.13779 -1.36542 
0.545655 1.20227 -1.35461 0.578417 1.2527 -1.34828 0.63373 1.26618 -1.35104 
0.694433 1.27144 -1.35587 0.771303 1.25557 -1.3662 0.945333 1.2487 -1.38416 
1.00379 1.27573 -1.38468 0.436606 0.243953 -1.28692 0.569164 0.125291 -1.0746 
0.651003 0.0897438 -1.00583 0.733482 0.0529325 -0.929807 0.813019 0.0217609 -0.87514 
0.884306 0.00604494 -0.854634 0.942701 0.0143989 -0.881364 1.00146 0.0224094 -0.930912 
1.05777 0.0348459 -0.979384 1.12415 0.028751 -1.00959 1.19584 0.0128436 -1.02701 
1.2643 0.00266622 -1.03548 1.32477 0.00693744 -1.04047 1.38834 0.00551336 -1.03925 
1.44998 0.00735529 -1.02209 1.51627 0.000581364 -0.991857 1.5793 -0.000297703 -0.960213 
1.6442 -0.00435051 -0.944468 1.70515 -0.00114762 -0.934566 1.76941 -0.00393264 -0.926096 
1.83192 -0.00365009 -0.909318 1.90016 -0.0135359 -0.910134 1.9662 -0.0192254 -0.925098 
2.02051 -0.00358953 -0.942507 2.0776 0.00660068 -0.930913 2.14844 -0.0085214 -0.895118 
2.22067 -0.0263669 -0.844822 2.27979 -0.0201649 -0.811463 2.33671 -0.00976711 -0.792252 
2.40005 -0.0108996 -0.783383 2.46159 -0.00886928 -0.766185 2.52494 -0.0099999 -0.757326 
2.58041 0.00321293 -0.752583 2.63584 0.0165121 -0.74782 2.69897 0.0156814 -0.73131 
2.75695 0.023838 -0.689913 2.81095 0.0390936 -0.639218 2.86494 0.0543508 -0.588534 
2.92298 0.0624134 -0.547159 2.98979 0.0544857 -0.502054 3.05502 0.0494081 -0.456254 
3.12748 0.0312631 -0.413608 3.19929 0.0143938 -0.378234 3.26544 0.00765629 -0.332842 
3.33858 -0.0118417 -0.282944 3.41151 -0.0310482 -0.225397 3.47179 -0.0272763 -0.169898 
3.52515 -0.0107518 -0.126487 3.57707 0.00858803 -0.0975449 3.63436 0.0181045 -0.0633885 
3.7009 0.010554 -0.0106146 3.7623 0.0119994 0.0670492 3.81875 0.0222924 0.15442 
3.86944 0.0429062 0.251854 0.476019 0.0646363 -0.948378 0.446577 0.0013581 -0.753047 
0.399505 -0.0303417 -0.550099 0.348983 -0.0617964 -0.346775 0.294771 -0.123232 -0.148727 
-0.550789 -0.126653 -0.696739 -0.610256 -0.132888 -0.682487 1.60332 -0.38388 -1.11024 
1.54859 -0.39854 -1.10775 1.47918 -0.386233 -1.12907 1.40973 -0.373832 -1.15038 
1.35264 -0.384024 -1.16196 1.29619 -0.395481 -1.16628 1.22577 -0.381333 -1.18716 
1.14837 -0.354338 -1.22011 1.0701 -0.325786 -1.25267 0.99473 -0.302782 -1.26385 
0.925472 -0.291055 -1.26259 0.863388 -0.292311 -1.26445 0.792795 -0.277957 -1.27771 
0.716306 -0.252617 -1.31104 0.643901 -0.234564 -1.35372 0.584955 -0.240974 -1.3947 
0.532986 -0.260219 -1.42362 0.481762 -0.28092 -1.44531 0.425863 -0.293159 -1.46497 
0.364182 -0.295144 -1.46701 0.311054 -0.312818 -1.45767 0.2633 -0.340324 -1.44312 
0.214158 -0.365108 -1.44307 0.158953 -0.378708 -1.45548 0.0972668 -0.380685 -1.45752 
0.044091 -0.398274 -1.44816 -0.00318855 -0.426849 -1.41872 -0.054507 -0.448219 -1.37997 
-0.115636 -0.45215 -1.31429 -0.176291 -0.457152 -1.23372 -0.228613 -0.477547 -1.13413 
-0.288059 -0.484822 -1.03139 -0.350448 -0.482555 -0.926589 -0.403855 -0.467575 -0.844039 
-0.427491 -0.425476 -0.785205 -0.432224 -0.336453 -0.755057 -0.709066 -0.181578 -0.676764 
-0.556616 -0.196967 -0.708311 -0.381618 -0.12518 -0.682387 -0.321868 -0.0917045 -0.626665 
-0.267479 -0.0729963 -0.571037 -0.214292 -0.0560566 -0.518875 -0.161901 -0.0377848 -0.475044 
-0.10637 -0.0254063 -0.409901 -0.0383502 -0.0342576 -0.304523 0.0650858 -0.0959305 -0.14432 
-0.332288 -0.298335 -0.484948 -0.236658 -0.360662 -0.291673 -0.162933 -0.382216 -0.169758 
-0.093187 -0.395894 -0.0946499 -0.0330732 -0.391914 -0.031533 0.0216604 -0.377761 0.0264468 
0.0750688 -0.354898 0.0634807 0.134897 -0.306467 0.0668471 5.7758 0.128859 -0.686667 
5.81822 0.165927 -0.676195 5.87646 0.17687 -0.58131 5.95327 0.173713 -0.422706 
5.8143 0.0293753 -0.640898 5.86508 -0.00932964 -0.630319 5.92256 -0.0495698 -0.597962 
5.97621 -0.0936671 -0.558379 6.04404 -0.12821 -0.525943 6.11854 -0.153852 -0.515181 
6.19225 -0.178187 -0.511662 6.25669 -0.21 -0.498571 6.30274 -0.259617 -0.456784 
6.35656 -0.315757 -0.389207 5.69443 0.0492082 -0.731687 5.64006 0.0348307 -0.797307 
5.59086 0.0106899 -0.819848 5.55237 -0.0295892 -0.808581 5.53886 -0.0949524 -0.766572 
5.5455 -0.165738 -0.704791 5.53642 -0.239652 -0.626969 5.51004 -0.30269 -0.560573 
5.48619 -0.37375 -0.518643 5.45833 -0.437466 -0.497659 5.41297 -0.469294 -0.469012 
5.35219 -0.469657 -0.417845 5.2943 -0.454702 -0.356496 5.24803 -0.429324 -0.301885 
5.18645 -0.407028 -0.269094 5.11641 -0.385899 -0.25085 5.05523 -0.359899 -0.232537 
5.01905 -0.323609 -0.199551 4.9953 -0.285706 -0.144744 4.97225 -0.249165 -0.0826767 
4.93824 -0.21691 -0.0279482 4.88005 -0.192748 0.00486812 4.81877 -0.166795 0.0231801 
4.76846 -0.133061 0.0343307 4.7064 -0.1058 0.0453911 4.64433 -0.0785391 0.0564516 
4.59394 -0.0448529 0.0676016 4.53087 -0.0198897 0.0858997 4.46049 -0.00256017 0.118599 
4.39145 0.00824969 0.172654 4.32775 0.00908672 0.23191 4.27062 -0.00164336 0.280781 
4.20582 0.00557074 0.311046 4.14372 0.0287871 0.328924 4.0942 0.0606776 0.339652 
4.03608 0.0767938 0.348243 3.97643 0.0750205 0.35362 0.358349 -0.324487 0.208612 
0.462004 -0.386452 0.361167 0.537748 -0.409596 0.485839 0.60892 -0.425948 0.574361 
0.671336 -0.426344 0.651581 0.733011 -0.425294 0.721581 0.800989 -0.435651 0.788826 
0.859663 -0.428856 0.837474 0.912917 -0.412145 0.880941 0.964615 -0.392514 0.917532 
1.01695 -0.374148 0.961386 1.06935 -0.355876 1.00522 1.12191 -0.337804 1.04143 
1.17919 -0.328288 1.07559 1.24296 -0.330385 1.09937 1.29955 -0.319516 1.12628 
1.35003 -0.297359 1.14074 1.39965 -0.273645 1.15559 1.44985 -0.251102 1.17772 
1.50128 -0.231084 1.22197 1.54867 -0.203863 1.27555 1.58815 -0.162227 1.325 
1.63259 -0.129363 1.3572 1.6779 -0.0980587 1.38902 1.72372 -0.0679934 1.44327 
1.786 -0.0680485 1.51301 1.84649 -0.0649504 1.59107 1.90016 -0.0492136 1.64945 
1.94552 -0.0180112 1.68124 1.98223 0.0290774 1.70171 2.02546 0.0644578 1.72187 
2.06998 0.0999476 1.75708 2.10807 0.163323 1.80319 6.4734 -0.282788 -0.257942 
6.48002 -0.223 -0.201923 6.48559 -0.171096 -0.134673 6.47377 -0.129484 -0.0676896 
6.44306 -0.0954147 -0.0129358 6.39371 -0.0663824 0.0199582 6.34579 -0.0330714 0.0383629 
6.28239 -0.00297293 0.0349488 6.21473 0.0349351 -0.00444459 6.14872 0.0944297 -0.100506 
6.48115 -0.458899 -0.231191 6.52627 -0.52673 -0.157405 6.58356 -0.576736 -0.0915225 
6.62923 -0.6317 -0.0254688 6.67741 -0.687521 0.0502793 3.89256 0.111831 0.474539 
3.87476 0.142552 0.572855 3.85468 0.173756 0.663907 3.82575 0.200086 0.754901 
3.78263 0.216868 0.853012 3.74326 0.237448 0.943926 3.69707 0.25602 1.02753 
3.65621 0.279271 1.10395 3.60853 0.300511 1.17306 3.5639 0.326914 1.22771 
3.50232 0.34921 1.2605 3.43119 0.367993 1.28598 3.35916 0.384538 1.31869 
3.28912 0.396948 1.37314 3.21977 0.407995 1.43485 3.14978 0.42031 1.48928 
3.07857 0.43515 1.52159 3.0108 0.444199 1.53735 2.95041 0.443881 1.5355 
2.88951 0.465441 1.5151 2.83378 0.509722 1.46063 2.7501 0.57071 1.54821 
2.72433 0.586583 1.68993 2.67143 0.596106 1.79519 2.60617 0.603762 1.87101 
2.54192 0.605922 1.92298 2.48362 0.597386 1.94968 2.42397 0.591413 1.9694 
2.37783 0.560885 1.99079 2.34576 0.504569 2.02872 2.30895 0.456735 2.07625 
2.27039 0.412262 2.10439 2.23424 0.362843 2.07838 2.19095 0.31906 1.99103 
2.74583 0.470537 1.43141 2.72257 0.398062 1.48059 2.68425 0.353063 1.52122 
2.63348 0.330911 1.54463 2.57319 0.326203 1.55709 2.51845 0.311543 1.55958 
2.46372 0.296883 1.56207 2.40332 0.292354 1.57457 2.3508 0.273258 1.60125 
2.29927 0.250619 1.65744 2.23302 0.246081 1.7462 
LINES 22 357
9 17 18 19 20 21 22 23 24 13 
9 13 25 26 27 28 29 30 31 16 
9 16 32 33 34 35 36 37 38 15 
10 16 39 40 41 42 43 44 45 46 15 
4 15 47 48 14 
3 13 49 12 
55 12 50 51 52 53 54 55 56 57 58 59 60 61 62 63 64 65 66 67 68 69 70 71 72 73 74 75 76 77 78 79 80 81 82 83 84 85 86 87 88 89 90 91 92 93 94 95 96 97 98 99 100 101 102 3 
7 12 103 104 105 106 107 6 
4 8 108 109 9 
38 11 110 111 112 113 114 115 116 117 118 119 120 121 122 123 124 125 126 127 128 129 130 131 132 133 134 135 136 137 138 139 140 141 142 143 144 145 8 
3 10 146 9 
3 9 147 8 
10 8 148 149 150 151 152 153 154 155 6 
10 8 156 157 158 159 160 161 162 163 6 
12 7 168 169 170 171 172 173 174 175 176 177 4 
39 7 178 179 180 181 182 183 184 185 186 187 188 189 190 191 192 193 194 195 196 197 198 199 200 201 202 203 204 205 206 207 208 209 210 211 212 213 214 3 
35 6 215 216 217 218 219 220 221 222 223 224 225 226 227 228 229 230 231 232 233 234 235 236 237 238 239 240 241 242 243 244 245 246 247 0 
7 4 258 259 260 261 262 2 
23 3 263 264 265 266 267 268 269 270 271 272 273 274 275 276 277 278 279 280 281 282 283 1 
15 1 284 285 286 287 288 289 290 291 292 293 294 295 296 0 
13 1 297 298 299 300 301 302 303 304 305 306 307 0 
17 7 164 165 166 167 5 257 256 255 254 253 252 251 250 249 248 4 

POINT_DATA 308
SCALARS DY_raw double
LOOKUP_TABLE default
33.1811 11.4312 72.5876 48.1154 52.2234 69.1234 50.0382 78.7766 63.6764 
46.3353 36.26 56.0798 41.6021 55.1653 131.79 71.0978 77.3221 45.2007 
44.9071 54.2318 54.2318 61.0044 57.8549 57.7251 57.53 58.5175 57.3081 
67.2164 86.3522 102.819 90.5569 71.2246 81.2546 93.0211 100.862 111.88 
110.691 101.876 82.2167 73.0113 72.025 66.2352 62.9825 65.7489 73.2266 
72.5004 70.9261 75.7961 80.7867 55.7024 42.9856 49.3065 56.7577 51.3901 
53.498 51.1247 52.2188 47.646 49.5022 53.3906 52.0857 53.2623 49.7281 
47.0084 52.1532 61.444 61.444 61.5191 50.7307 55.7332 54.8902 66.3294 
66.3294 65.3068 64.2629 75.3226 66.3883 62.7011 62.7011 59.9776 59.9776 
54.0038 48.8718 53.5718 55.4035 52.7724 52.7724 48.839 45.6314 46.0367 
41.7583 47.5553 52.4343 51.5156 66.6057 73.2037 85.7795 89.8312 63.9957 
53.5012 51.0094 46.6522 44.792 39.4316 46.3608 37.8667 47.3832 55.4553 
40.8044 40.0839 46.9915 47.4343 47.4343 50.5022 56.056 56.056 50.4078 
52.6785 41.1914 41.3504 42.3958 39.4372 38.6471 34.0335 33.9554 37.9822 
37.9822 47.6342 63.3696 63.6613 63.6613 52.5725 47.59 47.59 45.3295 
48.3721 50.7015 51.8042 52.031 48.379 55.0584 68.4924 71.7587 68.4017 
72.1411 69.6275 47.8408 49.3956 71.5279 74.7459 69.1826 64.9631 62.7807 
60.3412 63.9206 52.5322 76.4319 67.2392 55.9731 49.0562 50.801 46.2449 
47.6979 49.1794 68.9572 68.9857 68.0523 64.1748 78.7766 66.9565 70.9679 
60.6684 54.8663 54.8663 55.3148 54.1386 49.2275 44.0889 78.9999 74.9994 
68.5277 63.6178 60.5626 66.0635 63.6472 67.0482 72.3439 77.2293 70.2038 
56.3907 54.9297 62.8003 61.6011 61.6011 53.7429 46.7278 47.8352 39.3674 
44.2083 42.667 46.0584 45.3595 40.3587 37.9289 32.0134 43.2368 44.6197 
54.7874 39.4316 44.1948 55.6451 45.8711 46.8219 46.1154 44.17 53.7033 
47.3577 48.6902 43.1697 43.7617 37.6329 43.3771 48.7622 55.0443 41.8175 
37.1832 43.2582 45.6125 36.4152 32.6555 33.2366 29.0036 32.0694 28.0895 
26.2553 31.0841 33.3161 49.7247 44.1256 51.6954 43.961 41.0955 35.0073 
39.9341 39.9341 25.1769 32.7047 29.2386 63.2337 70.1303 75.0312 78.6552 
74.5833 74.0184 64.032 69.935 74.977 77.0867 48.7503 44.775 53.2627 
58.9842 65.646 38.4463 38.9619 45.4401 38.0358 42.6984 43.7761 37.5669 
29.1873 17.1493 10.4454 6.42758 8.43824 4.33184 10.5404 18.9307 34.5808 
29.0141 31.5262 36.4281 32.1832 21.6007 18.969 16.3099 32.9491 37.7929 
24.9255 1.94527 0 13.8382 24.4037 28.6519 34.8917 28.5942 22.1504 
26.87 37.0226 37.0712 37.0712 22.0101 14.557 21.1587 16.1288 23.9043 
28.0276 33.6611 
FIELD FieldData 7
DY_minmax 1 308 double
0.251773 0.0867377 0.550783 0.365092 0.396262 0.524496 0.379681 0.597743 0.483166 
0.351584 0.275135 0.425524 0.31567 0.418585 1 0.539478 0.586707 0.342975 
0.340747 0.411502 0.411502 0.462891 0.438993 0.438008 0.436528 0.444021 0.434844 
0.510027 0.655226 0.780175 0.68713 0.54044 0.616546 0.705828 0.76532 0.848925 
0.839905 0.773014 0.623846 0.553997 0.546514 0.502581 0.477901 0.498891 0.555631 
0.55012 0.538175 0.575128 0.612995 0.42266 0.326168 0.374129 0.430668 0.389939 
0.405933 0.387926 0.396227 0.36153 0.375614 0.405118 0.395218 0.404145 0.377329 
0.356692 0.395729 0.466226 0.466226 0.466796 0.384936 0.422894 0.416498 0.503296 
0.503296 0.495537 0.487616 0.571535 0.503743 0.475765 0.475765 0.4551 0.4551 
0.409772 0.370831 0.406494 0.420392 0.400428 0.400428 0.370582 0.346243 0.349319 
0.316855 0.360842 0.397862 0.390892 0.505393 0.555457 0.65088 0.681624 0.485588 
0.405958 0.387051 0.353989 0.339874 0.2992 0.351778 0.287326 0.359536 0.420785 
0.309617 0.30415 0.356564 0.359923 0.359923 0.383202 0.425343 0.425343 0.382486 
0.399715 0.312553 0.31376 0.321692 0.299243 0.293248 0.25824 0.257648 0.288203 
0.288203 0.36144 0.480838 0.483051 0.483051 0.398911 0.361105 0.361105 0.343952 
0.367039 0.384715 0.393082 0.394802 0.367092 0.417774 0.519708 0.544493 0.51902 
0.547394 0.528321 0.363008 0.374805 0.542742 0.567159 0.524946 0.492929 0.476369 
0.457858 0.485018 0.398606 0.579952 0.5102 0.424714 0.37223 0.38547 0.350898 
0.361923 0.373165 0.523235 0.523452 0.516369 0.486947 0.597743 0.508054 0.538492 
0.460341 0.416316 0.416316 0.419719 0.410794 0.37353 0.334539 0.599438 0.569083 
0.519976 0.482721 0.459539 0.501278 0.482944 0.50875 0.548933 0.586003 0.532694 
0.427883 0.416797 0.476518 0.467418 0.467418 0.407792 0.354563 0.362965 0.298713 
0.335445 0.32375 0.349483 0.34418 0.306235 0.287798 0.242912 0.328074 0.338567 
0.415717 0.2992 0.335343 0.422225 0.348062 0.355276 0.349916 0.335155 0.407492 
0.359342 0.369453 0.327564 0.332057 0.285552 0.329138 0.369999 0.417667 0.317304 
0.28214 0.328236 0.3461 0.276312 0.247784 0.252194 0.220074 0.243337 0.213138 
0.199221 0.235861 0.252797 0.377303 0.334818 0.392256 0.333569 0.311826 0.265629 
0.303013 0.303013 0.191038 0.248158 0.221858 0.479807 0.532137 0.569324 0.596822 
0.565925 0.561639 0.485864 0.530655 0.568913 0.584921 0.369909 0.339745 0.404148 
0.447562 0.498111 0.291724 0.295636 0.344792 0.288609 0.323988 0.332165 0.285051 
0.221468 0.130126 0.0792581 0.0487714 0.0640279 0.0328692 0.0799786 0.143643 0.262393 
0.220154 0.239216 0.27641 0.244201 0.163903 0.143934 0.123756 0.250012 0.286766 
0.189131 0.0147604 0 0.105002 0.185171 0.217406 0.264752 0.216968 0.168073 
0.203885 0.280921 0.28129 0.28129 0.167009 0.110456 0.160549 0.122382 0.181382 
0.212669 0.255415 
WidthEq 1 308 double
3.3941 3.67504 4.23144 5.33571 5.0958 7.58441 8.26429 6.71634 8.19362 
7.02013 5.06012 2.56242 7.30973 7.15831 1 4.35231 5.99738 6.59305 
7.42467 7.96618 7.96618 7.8255 7.33335 7.26963 7.15765 6.94869 5.89359 
4.72727 4.1472 3.91493 4.52246 5.69789 5.58812 4.99102 4.15272 3.77235 
3.53651 4.35885 4.3299 6.1218 5.41701 5.33689 5.2713 5.00967 4.82079 
5.01211 4.92203 3.62129 2.79291 6.89558 7.45156 7.13821 5.55255 5.14944 
4.80186 4.81274 5.0568 5.42753 5.29168 5.59762 6.00856 5.98716 6.2892 
6.44863 6.34937 5.78381 5.78381 5.13304 5.36894 5.02411 5.15155 4.62631 
4.62631 4.38821 4.52018 4.31982 4.60774 4.71746 4.71746 4.77995 4.77995 
4.78225 5.63168 5.41945 5.4955 5.60578 5.60578 6.21798 6.24943 5.76974 
5.81561 5.46416 5.13595 5.66197 5.0886 5.13362 4.48464 4.19576 4.50749 
4.71746 4.77245 5.55258 5.71509 7.32154 6.47788 7.73898 8.17969 8.78149 
7.15707 7.09712 3.40827 3.54217 3.54217 4.22377 4.48052 4.48052 4.71117 
4.38414 4.30721 4.84518 5.05617 5.05817 5.25628 5.5701 5.64181 5.43044 
5.43044 5.61382 4.93249 4.71919 4.71919 4.91417 4.61631 4.61631 4.5059 
4.09471 4.52787 4.50716 4.55902 4.22787 4.51466 5.31475 6.64073 7.62116 
7.81663 7.88999 6.76954 7.89301 7.94291 7.66249 7.43626 7.2635 7.22165 
7.37026 7.03842 7.60866 7.52107 6.76034 6.35662 6.63056 6.51345 7.26523 
7.44708 7.76178 7.00261 7.57128 7.59328 7.95063 6.71634 6.75394 6.80082 
6.78854 6.02155 6.02155 5.59127 5.00733 5.22107 5.0253 6.03457 5.82684 
5.76117 5.71176 5.40003 5.195 4.76407 4.06409 3.76107 3.40998 3.2437 
3.30303 3.00475 2.82323 3.14167 3.14167 3.47246 3.88441 3.68683 3.72314 
3.29146 3.217 2.91044 2.68588 2.41633 2.46909 2.5583 2.47497 2.53946 
2.57486 2.53248 2.59533 2.83529 2.93496 3.65791 4.72966 5.44917 7.35392 
6.14789 4.89585 4.27082 4.26788 4.05975 4.57637 4.36363 4.39428 4.40557 
4.61741 4.4625 4.52705 5.18135 5.18443 4.91807 5.1666 4.58069 5.19981 
4.99632 4.363 4.2514 3.71707 4.08153 3.91699 3.61456 3.67655 3.66524 
3.43316 3.43316 3.46032 3.36037 3.47007 4.97567 4.50518 4.69538 5.11066 
5.28992 5.33178 5.6264 5.70015 5.77884 6.43042 5.2211 5.22255 5.21923 
5.00931 4.88514 4.92323 4.6081 4.43111 4.62853 4.45473 4.52713 4.97113 
4.87781 4.89582 4.77242 4.55226 3.51377 3.01489 2.81109 2.63065 2.59335 
2.89997 3.59257 4.11194 4.20312 4.25217 3.5579 2.65913 2.47473 2.31922 
2.28401 2.1745 2.42847 2.46926 2.39389 2.96979 3.15089 3.33005 3.41168 
4.21213 3.89411 2.99585 2.99585 2.34756 2.13231 2.32339 2.13718 2.36066 
2.51752 3.05397 
rRFP 1 308 double
3479.9 3582.19 3784.77 4186.83 4099.48 5005.57 5253.11 4689.51 5227.38 
4800.12 4086.49 3177.09 4905.56 4850.43 2608.22 3828.78 4427.74 4644.62 
4947.41 5144.57 5144.57 5093.35 4914.16 4890.96 4850.19 4774.11 4389.95 
3965.3 3754.1 3669.53 3890.73 4318.7 4278.73 4061.33 3756.11 3617.62 
3531.75 3831.16 3820.62 4473.04 4216.43 4187.26 4163.38 4068.12 3999.35 
4069.01 4036.21 3562.62 3261.01 4754.77 4957.2 4843.11 4265.78 4119.01 
3992.46 3996.42 4085.28 4220.26 4170.8 4282.19 4431.81 4424.02 4533.99 
4592.04 4555.9 4349.98 4349.98 4113.04 4198.93 4073.38 4119.78 3928.54 
3928.54 3841.85 3889.9 3816.95 3921.78 3961.73 3961.73 3984.48 3984.48 
3985.32 4294.59 4217.32 4245.01 4285.16 4285.16 4508.06 4519.51 4344.86 
4361.56 4233.6 4114.1 4305.62 4096.86 4113.25 3876.96 3771.78 3885.28 
3961.73 3981.75 4265.79 4324.96 4909.86 4602.69 5061.85 5222.31 5441.42 
4849.98 4828.15 3485.06 3533.81 3533.81 3781.98 3875.46 3875.46 3959.44 
3840.37 3812.36 4008.23 4085.05 4085.78 4157.91 4272.17 4298.28 4221.32 
4221.32 4288.09 4040.02 3962.36 3962.36 4033.35 3924.9 3924.9 3884.7 
3734.99 3892.7 3885.16 3904.04 3783.47 3887.89 4179.2 4661.98 5018.95 
5090.12 5116.83 4708.88 5117.93 5136.1 5034 4951.63 4888.73 4873.49 
4927.6 4806.78 5014.4 4982.51 4705.53 4558.54 4658.28 4615.64 4889.36 
4955.57 5070.15 4793.74 5000.79 5008.8 5138.91 4689.51 4703.2 4720.27 
4715.8 4436.54 4436.54 4279.88 4067.27 4145.09 4073.81 4441.28 4365.65 
4341.74 4323.75 4210.25 4135.6 3978.7 3723.84 3613.51 3485.68 3425.14 
3446.74 3338.14 3272.05 3387.99 3387.99 3508.43 3658.42 3586.48 3599.7 
3442.53 3415.42 3303.8 3222.04 3123.9 3143.11 3175.59 3145.25 3168.73 
3181.62 3166.19 3189.07 3276.44 3312.73 3575.95 3966.17 4228.14 4921.65 
4482.54 4026.68 3799.11 3798.04 3722.26 3910.36 3832.9 3844.06 3848.17 
3925.3 3868.9 3892.4 4130.63 4131.75 4034.77 4125.26 3911.93 4137.35 
4063.26 3832.67 3792.04 3597.49 3730.19 3670.28 3560.17 3582.74 3578.62 
3494.12 3494.12 3504.01 3467.62 3507.56 4055.74 3884.44 3953.69 4104.89 
4170.16 4185.4 4292.67 4319.52 4348.17 4585.41 4145.1 4145.63 4144.42 
4067.99 4022.78 4036.65 3921.91 3857.47 3929.35 3866.07 3892.43 4054.09 
4020.11 4026.67 3981.74 3901.58 3523.47 3341.83 3267.63 3201.93 3188.35 
3299.99 3552.16 3741.26 3774.46 3792.32 3539.54 3212.3 3145.16 3088.54 
3075.72 3035.85 3128.32 3143.17 3115.73 3325.41 3391.35 3456.58 3486.3 
3777.74 3661.95 3334.9 3334.9 3098.86 3020.49 3090.06 3022.26 3103.63 
3160.74 3356.06 
rGFP 1 308 double
2718.04 2647.43 2912.57 2862.15 2871.54 3129.68 3018.95 3134.51 3127.16 
2930.7 2788.9 2749.12 2909.52 3000.31 2737.21 2914.86 3069.15 2903.43 
2938.84 3037.44 3037.44 3082.81 3029.69 3025.06 3017.2 3012.04 2943.17 
2923.17 2963.54 3007.95 3014.96 3011.25 3059.48 3069.69 3024.27 3027.47 
2996.88 3049.48 2961.41 3052.38 2995.58 2958.91 2937.42 2934.8 2958.43 
2968.8 2954.52 2879.9 2831.05 2989.52 2925.73 2957.38 2920.57 2870.05 
2862.31 2851.47 2869.48 2864.02 2867.37 2904.28 2918.38 2924.31 2918.17 
2908.56 2936.56 2960.8 2960.8 2921.2 2877.79 2885.43 2888.19 2912.28 
2912.28 2892 2895.9 2930.8 2911.32 2901.21 2901.21 2892.11 2892.11 
2863.68 2880.65 2895.75 2909.89 2901.25 2901.25 2909.1 2890.59 2871.04 
2848.27 2865.27 2874.72 2897.1 2944.35 2981.22 2990.11 2982.33 2893.88 
2857.81 2848.86 2864.46 2861.41 2894.12 2905.74 2898.47 2993 3092.4 
2897.46 2889.9 2765.58 2773.44 2773.44 2818.73 2856.58 2856.58 2842.9 
2836.37 2782.84 2805.77 2819.78 2804.9 2808.56 2794.99 2796.99 2811.68 
2811.68 2872.83 2917.99 2905.85 2905.85 2863.77 2825.11 2825.11 2809.67 
2803.49 2834.99 2838.91 2842.63 2809.96 2853.99 2969.44 3081.95 3126.72 
3169.32 3154.78 2929.28 2995.3 3173.56 3178.16 3119.88 3077.28 3058.8 
3050.15 3055.32 3005.12 3180.27 3059.98 2961.22 2930.69 2936.31 2941.4 
2960.63 2987.14 3088.3 3127.73 3122.16 3115.65 3134.51 3057.64 3088.06 
3017.27 2935.8 2935.8 2914.7 2876.51 2862.44 2826.98 3082.15 3042.43 
3000.22 2968.79 2932.46 2948.62 2908.64 2877.91 2877.51 2868.77 2833.14 
2791.68 2770.47 2782.72 2798.95 2798.95 2792.04 2786.93 2781.78 2751.99 
2750.93 2742.68 2739.47 2727.25 2702.94 2699.07 2687.32 2712.43 2718.73 
2746.49 2705.28 2720.12 2763.19 2740.05 2776.69 2823.53 2846.11 3000.35 
2896.57 2843.8 2789.79 2792.19 2758.2 2803.93 2818.2 2847.3 2789.65 
2777.11 2798.46 2811.91 2794.1 2774.72 2768.88 2755.27 2752.32 2751.48 
2736.6 2741.04 2747.06 2790.25 2785.52 2807.91 2764.32 2756.51 2733.73 
2742.52 2742.52 2692.54 2715.32 2706.88 2920.05 2921.37 2957.72 3007.4 
2999.96 3000.07 2965.69 3004.06 3038.7 3101.12 2859.95 2839.26 2883.41 
2900.89 2926.11 2794.7 2784.96 2806.77 2781.47 2795.63 2803.6 2792.17 
2747.79 2689.38 2655.27 2634.68 2635.07 2618.48 2635.05 2655.22 2695.1 
2689.56 2718.68 2755.21 2740.69 2697.27 2672.91 2648.79 2686.96 2693.07 
2662.35 2609.65 2605.42 2639.59 2663.84 2690.51 2715.36 2700.64 2680.99 
2718.6 2749.59 2716.48 2716.48 2657.09 2636.46 2654.58 2639.89 2661.85 
2675.98 2708.22 
bkstRFP 1 308 double
1235.78 1338.07 1540.65 1942.7 1855.35 2761.44 3008.98 2445.39 2983.26 
2555.99 1842.36 932.965 2661.44 2606.31 364.095 1584.66 2183.61 2400.49 
2703.28 2900.44 2900.44 2849.23 2670.03 2646.84 2606.06 2529.98 2145.82 
1721.18 1509.97 1425.41 1646.61 2074.57 2034.6 1817.2 1511.99 1373.49 
1287.63 1587.03 1576.49 2228.92 1972.31 1943.14 1919.26 1823.99 1755.22 
1824.89 1792.09 1318.49 1016.89 2510.65 2713.07 2598.98 2021.65 1874.89 
1748.34 1752.3 1841.16 1976.14 1926.68 2038.06 2187.69 2179.9 2289.86 
2347.92 2311.77 2105.85 2105.85 1868.92 1954.81 1829.26 1875.65 1684.42 
1684.42 1597.72 1645.78 1572.82 1677.66 1717.61 1717.61 1740.36 1740.36 
1741.2 2050.47 1973.19 2000.89 2041.03 2041.03 2263.94 2275.39 2100.73 
2117.44 1989.48 1869.98 2061.49 1852.73 1869.13 1632.84 1527.66 1641.16 
1717.61 1737.63 2021.67 2080.84 2665.73 2358.56 2817.73 2978.19 3197.3 
2605.85 2584.02 1240.93 1289.68 1289.68 1537.86 1631.34 1631.34 1715.32 
1596.24 1568.24 1764.11 1840.93 1841.66 1913.78 2028.05 2054.15 1977.19 
1977.19 2043.97 1795.9 1718.24 1718.24 1789.22 1680.78 1680.78 1640.57 
1490.86 1648.57 1641.03 1659.92 1539.34 1643.76 1935.07 2417.85 2774.82 
2845.99 2872.7 2464.76 2873.81 2891.98 2789.88 2707.51 2644.6 2629.36 
2683.48 2562.65 2770.27 2738.39 2461.4 2314.42 2414.15 2371.52 2645.23 
2711.44 2826.02 2549.61 2756.67 2764.68 2894.78 2445.39 2459.07 2476.15 
2471.68 2192.42 2192.42 2035.76 1823.15 1900.97 1829.68 2197.15 2121.52 
2097.61 2079.63 1966.13 1891.48 1734.57 1479.72 1369.39 1241.55 1181.01 
1202.61 1094.01 1027.93 1143.86 1143.86 1264.3 1414.3 1342.36 1355.57 
1198.41 1171.3 1059.68 977.915 879.775 898.985 931.465 901.125 924.605 
937.495 922.065 944.945 1032.32 1068.61 1331.82 1722.05 1984.02 2677.52 
2238.42 1782.55 1554.99 1553.92 1478.14 1666.24 1588.78 1599.93 1604.05 
1681.18 1624.78 1648.28 1886.51 1887.63 1790.65 1881.14 1667.8 1893.23 
1819.14 1588.55 1547.92 1353.36 1486.07 1426.16 1316.05 1338.61 1334.49 
1249.99 1249.99 1259.89 1223.49 1263.43 1811.61 1640.32 1709.57 1860.77 
1926.03 1941.27 2048.55 2075.4 2104.05 2341.28 1900.98 1901.51 1900.3 
1823.86 1778.66 1792.53 1677.78 1613.34 1685.22 1621.95 1648.3 1809.97 
1775.99 1782.55 1737.61 1657.45 1279.34 1097.7 1023.51 957.805 944.225 
1055.86 1308.03 1497.14 1530.34 1548.2 1295.42 968.175 901.035 844.415 
831.595 791.725 884.195 899.045 871.605 1081.28 1147.22 1212.45 1242.18 
1533.61 1417.82 1090.78 1090.78 854.735 776.365 845.935 778.135 859.505 
916.615 1111.93 
bkstGFP 1 308 double
112.62 42.01 307.15 256.73 266.12 524.26 413.53 529.09 521.74 
325.28 183.48 143.7 304.1 394.89 131.79 309.44 463.73 298.01 
333.42 432.02 432.02 477.39 424.27 419.64 411.78 406.62 337.75 
317.75 358.12 402.53 409.54 405.83 454.06 464.27 418.85 422.05 
391.46 444.06 355.99 446.96 390.16 353.49 332 329.38 353.01 
363.38 349.1 274.48 225.63 384.1 320.31 351.96 315.15 264.63 
256.89 246.05 264.06 258.6 261.95 298.86 312.96 318.89 312.75 
303.14 331.14 355.38 355.38 315.78 272.37 280.01 282.77 306.86 
306.86 286.58 290.48 325.38 305.9 295.79 295.79 286.69 286.69 
258.26 275.23 290.33 304.47 295.83 295.83 303.68 285.17 265.62 
242.85 259.85 269.3 291.68 338.93 375.8 384.69 376.91 288.46 
252.39 243.44 259.04 255.99 288.7 300.32 293.05 387.58 486.98 
292.04 284.48 160.16 168.02 168.02 213.31 251.16 251.16 237.48 
230.95 177.42 200.35 214.36 199.48 203.14 189.57 191.57 206.26 
206.26 267.41 312.57 300.43 300.43 258.35 219.69 219.69 204.25 
198.07 229.57 233.49 237.21 204.54 248.57 364.02 476.53 521.3 
563.9 549.36 323.86 389.88 568.14 572.74 514.46 471.86 453.38 
444.73 449.9 399.7 574.85 454.56 355.8 325.27 330.89 335.98 
355.21 381.72 482.88 522.31 516.74 510.23 529.09 452.22 482.64 
411.85 330.38 330.38 309.28 271.09 257.02 221.56 476.73 437.01 
394.8 363.37 327.04 343.2 303.22 272.49 272.09 263.35 227.72 
186.26 165.05 177.3 193.53 193.53 186.62 181.51 176.36 146.57 
145.51 137.26 134.05 121.83 97.52 93.65 81.9 107.01 113.31 
141.07 99.86 114.7 157.77 134.63 171.27 218.11 240.69 394.93 
291.15 238.38 184.37 186.77 152.78 198.51 212.78 241.88 184.23 
171.69 193.04 206.49 188.68 169.3 163.46 149.85 146.9 146.06 
131.18 135.62 141.64 184.83 180.1 202.49 158.9 151.09 128.31 
137.1 137.1 87.12 109.9 101.46 314.63 315.95 352.3 401.98 
394.54 394.65 360.27 398.64 433.28 495.7 254.53 233.84 277.99 
295.47 320.69 189.28 179.54 201.35 176.05 190.21 198.18 186.75 
142.37 83.96 49.85 29.26 29.65 13.06 29.63 49.8 89.68 
84.14 113.26 149.79 135.27 91.85 67.49 43.37 81.54 87.65 
56.93 4.23 0 34.17 58.42 85.09 109.94 95.22 75.57 
113.18 144.17 111.06 111.06 51.67 31.04 49.16 34.47 56.43 
70.56 102.8 
tubeWidth 1 308 double
0.230709 0.201824 0.288222 0.196165 0.283335 0.201033 0.071734 0.0835557 0.132603 
0.1603 0.262863 0.135672 0.12438 0.197253 0.0627114 0.199833 0.275183 0.163439 
0.250576 0.249302 0.215474 0.201431 0.195733 0.192397 0.180503 0.225754 0.172597 
0.163277 0.13622 0.154819 0.203062 0.246642 0.220726 0.160523 0.155931 0.117179 
0.133091 0.123942 0.0468928 0.206976 0.155192 0.1716 0.147708 0.160811 0.158916 
0.164199 0.155863 0.214543 0.135769 0.132284 0.238984 0.210364 0.214325 0.233834 
0.201462 0.23983 0.216627 0.197538 0.173561 0.160478 0.168913 0.191118 0.183702 
0.20132 0.208062 0.243871 0.206748 0.234998 0.220726 0.216389 0.200279 0.186911 
0.22788 0.229681 0.216897 0.242524 0.272524 0.263453 0.246992 0.226537 0.226124 
0.221352 0.228298 0.24459 0.256647 0.251519 0.23402 0.26619 0.271976 0.240751 
0.216585 0.196969 0.25148 0.239197 0.207495 0.224985 0.262747 0.239356 0.217405 
0.222064 0.231741 0.219783 0.273284 0.100497 0.158298 0.197874 0.217099 0.237086 
0.0865705 0.107412 0.217412 0.196258 0.211994 0.214788 0.216128 0.197472 0.217087 
0.224788 0.223907 0.209357 0.195561 0.168531 0.168275 0.234034 0.228227 0.222885 
0.205936 0.163071 0.162001 0.216258 0.228437 0.21932 0.220164 0.228619 0.228978 
0.226653 0.196765 0.169383 0.241471 0.180182 0.187948 0.20485 0.227345 0.302335 
0.233121 0.211051 0.284966 0.0771221 0.19806 0.243216 0.196804 0.164902 0.136592 
0.22227 0.131733 0.124363 0.105076 0.168173 0.193623 0.184852 0.18749 0.208459 
0.174483 0.102119 0.128465 0.188354 0.124502 0.133487 0.147549 0.193089 0.215709 
0.231481 0.212856 0.165507 0.134252 0.123669 0.152103 0.197037 0.140127 0.146805 
0.216513 0.243342 0.231904 0.23688 0.241355 0.232081 0.212422 0.236187 0.279119 
0.242945 0.218788 0.213961 0.221981 0.215934 0.186137 0.226199 0.276745 0.26787 
0.218658 0.228351 0.219732 0.17958 0.147329 0.158539 0.193198 0.216685 0.225684 
0.237685 0.215364 0.169997 0.157186 0.170025 0.216937 0.251818 0.274561 0.191513 
0.232545 0.219337 0.165471 0.218043 0.223764 0.234543 0.258277 0.239417 0.245621 
0.267799 0.27226 0.261656 0.246484 0.25155 0.229609 0.265546 0.254217 0.236027 
0.255761 0.275684 0.262941 0.249751 0.23892 0.228233 0.219724 0.219823 0.274183 
0.266919 0.235292 0.229983 0.243893 0.246273 0.243139 0.167021 0.167167 0.218728 
0.259392 0.230545 0.230265 0.205323 0.15095 0.181253 0.238287 0.247117 0.252628 
0.293097 0.286966 0.216397 0.19399 0.23275 0.225412 0.243628 0.248947 0.238534 
0.259661 0.272342 0.235116 0.223054 0.213782 0.210874 0.207812 0.215121 0.206448 
0.223561 0.245312 0.257973 0.31599 0.304671 0.170629 0.143957 0.0803322 0.136483 
0.170012 0.137637 0.103933 0.13103 0.143461 0.194461 0.251963 0.232991 0.197606 