# vtk DataFile Version 3.0
vtk output
ASCII
DATASET POLYDATA
POINTS 491 float
7.54204 -0.274233 1.51039 6.91369 -0.249046 1.1121 7.17462 -0.309285 1.37124 
8.37585 -0.372903 1.02656 8.75245 0.378077 1.26063 8.18898 -0.418988 0.953198 
7.57841 -0.560768 0.934399 7.22861 -0.401336 0.955539 8.65768 -0.426294 0.750479 
6.75858 -0.300834 0.767114 6.45002 -0.170183 0.66028 7.48787 -0.588995 0.56452 
7.11776 -0.7183 0.510011 6.79093 -0.483043 0.339453 5.98361 0.211255 0.229761 
8.50489 -0.937897 0.0773937 9.53304 2.3878e-007 -1.6441e-008 7.97416 -0.489684 -0.0649277 
-0.0150894 -1.00395 -0.353205 -1 1.672e-007 -2.59319e-008 2.08616 -1.02027 -0.337029 
-0.813135 0.0899003 -0.257084 -0.427527 -0.879687 -0.587393 -0.823762 -0.0108027 -0.842055 
-0.831131 0.208214 -0.779394 -0.184836 -0.903918 -1.33035 -0.661114 -0.443084 -1.0675 
7.04136 1.83347 -0.967401 5.04481 1.20951 -1.25188 6.28088 1.8126 -1.37367 
4.61919 0.709669 -1.51991 -0.380625 -0.394527 -1.80081 0.580128 -0.611052 -2.30027 
0.557053 -0.664439 -2.27746 0.532224 -0.719947 -2.23252 0.496565 -0.773441 -2.16488 
0.436302 -0.81864 -2.07374 0.365209 -0.858905 -1.98194 0.292408 -0.898269 -1.89003 
0.220268 -0.93303 -1.81991 0.152346 -0.956745 -1.76327 0.0913488 -0.963942 -1.71192 
0.0251915 -0.975146 -1.63122 -0.0571248 -0.959757 -1.50214 -0.346788 -0.313457 -1.85233 
-0.319953 -0.246834 -1.91075 -0.29641 -0.186985 -1.97255 -0.273305 -0.128342 -2.03452 
-0.248576 -0.0708403 -2.09415 -0.214771 -0.0184496 -2.14698 -0.167101 0.0266477 -2.19331 
-0.131479 0.0761427 -2.23157 -0.0948633 0.124173 -2.27751 -0.0394889 0.152755 -2.32603 
0.0202504 0.162696 -2.37702 0.0873074 0.182861 -2.41917 0.154464 0.203954 -2.46868 
0.216015 0.212962 -2.5198 0.283126 0.232982 -2.56197 0.349431 0.248344 -2.58235 
0.405238 0.239124 -2.59105 0.456868 0.219924 -2.5936 0.51191 0.209056 -2.60251 
0.574 0.214356 -2.61675 0.633976 0.217046 -2.64628 0.696872 0.226032 -2.67498 
0.756848 0.229696 -2.71186 0.818938 0.236943 -2.74078 0.87398 0.228996 -2.77173 
0.925564 0.212617 -2.79631 0.980561 0.204571 -2.82727 1.04184 0.212028 -2.87111 
1.09684 0.206903 -2.9241 1.14842 0.192471 -2.96337 1.20342 0.180531 -2.96496 
1.26475 0.177367 -2.92802 1.32051 0.160259 -2.87798 1.37627 0.145098 -2.84263 
1.43759 0.146803 -2.8424 1.49255 0.138658 -2.87337 1.54332 0.121515 -2.90553 
1.59334 0.0988379 -2.90854 1.64331 0.0721674 -2.88219 1.69328 0.0445233 -2.84849 
1.74325 0.0188263 -2.82948 1.79327 -0.00482412 -2.82515 1.84405 -0.025862 -2.82793 
1.899 -0.0379018 -2.82953 1.96032 -0.036197 -2.8293 2.01609 -0.0464897 -2.83067 
2.07185 -0.056782 -2.83203 2.13321 -0.0549873 -2.8318 2.18898 -0.0652796 -2.83316 
2.24474 -0.0765463 -2.82718 2.30606 -0.077762 -2.80493 2.36101 -0.095643 -2.76247 
2.41179 -0.123497 -2.71385 2.46185 -0.151916 -2.67279 2.51268 -0.175776 -2.65354 
2.56844 -0.188016 -2.64021 2.6347 -0.178595 -2.61655 2.701 -0.171023 -2.57818 
2.75757 -0.184444 -2.5426 2.81342 -0.197469 -2.52191 2.87555 -0.196938 -2.49942 
2.93548 -0.20311 -2.46287 2.99762 -0.20842 -2.39634 3.05342 -0.227385 -2.3316 
3.10922 -0.245377 -2.2742 3.1714 -0.247676 -2.22968 3.23219 -0.253948 -2.17821 
3.30011 -0.244838 -2.12469 3.37225 -0.225656 -2.07731 3.44515 -0.201914 -2.05175 
3.5181 -0.1771 -2.03351 3.59104 -0.153259 -2.00794 3.66399 -0.132338 -1.96033 
3.73694 -0.112393 -1.90537 3.80978 -0.0914268 -1.85776 3.88088 -0.066741 -1.83208 
3.94104 -0.0351269 -1.82041 3.97495 0.00942956 -1.8145 3.98904 0.062039 -1.80005 
3.98928 0.119021 -1.77008 4.01234 0.162677 -1.71947 4.05992 0.194188 -1.66297 
4.10446 0.228054 -1.61365 4.15389 0.261638 -1.57931 4.18955 0.302474 -1.55148 
4.22521 0.34331 -1.52365 4.27464 0.379815 -1.51134 4.31928 0.419481 -1.50608 
4.36861 0.457005 -1.5011 4.40262 0.497621 -1.46583 4.4291 0.540692 -1.42275 
4.46311 0.582282 -1.39483 4.51253 0.622685 -1.41188 4.55893 0.668363 -1.45813 
-0.323538 -0.50822 -1.71377 -0.284195 -0.61012 -1.60772 -0.244167 -0.730936 -1.47679 
-0.456058 -0.360087 -1.59699 -0.520598 -0.360172 -1.4102 -0.588995 -0.395324 -1.23801 
4.67001 0.66731 -1.36114 4.72501 0.638817 -1.23788 4.78714 0.632525 -1.164 
4.84783 0.629218 -1.13455 4.9139 0.645016 -1.12498 4.97335 0.67582 -1.12089 
5.00897 0.719478 -1.11511 5.0338 0.768171 -1.10865 5.05687 0.817663 -1.10209 
5.07975 0.867246 -1.09551 5.10087 0.917629 -1.08883 5.11116 0.973922 -1.08884 
5.09685 1.04435 -1.1094 5.0717 1.12458 -1.166 4.60664 0.775398 -1.51119 
4.61537 0.831429 -1.50376 4.62741 0.885953 -1.49653 4.63663 0.94176 -1.48913 
4.67512 0.984225 -1.4835 4.7181 1.02464 -1.47814 4.76909 1.06141 -1.47327 
4.81392 1.10002 -1.46068 4.86511 1.13377 -1.43379 4.9117 1.16671 -1.38459 
4.97372 1.19066 -1.32164 6.32506 1.76371 -1.27554 6.36368 1.6999 -1.15697 
6.40872 1.64799 -1.02188 6.45864 1.61075 -0.914738 6.51264 1.59443 -0.864598 
6.56892 1.6155 -0.876744 6.61641 1.65846 -0.923352 6.67848 1.69882 -0.985254 
6.74968 1.73417 -1.04035 6.82252 1.76584 -1.07351 6.89547 1.79261 -1.06996 
6.96842 1.8145 -1.02969 5.0551 1.25606 -1.17846 5.05153 1.31381 -1.14091 
5.05098 1.37406 -1.13292 5.03491 1.44042 -1.11666 5.00967 1.50804 -1.0778 
4.98278 1.57544 -1.0315 4.95578 1.64386 -0.992541 4.92878 1.71228 -0.95358 
4.90174 1.77866 -0.899951 4.87394 1.84241 -0.839183 4.84196 1.89815 -0.786964 
4.80361 1.94306 -0.758594 4.77078 2.00182 -0.743329 4.73719 2.05991 -0.735626 
4.69381 2.09691 -0.730721 4.64972 2.13236 -0.726021 4.61191 2.18136 -0.719523 
4.57195 2.22571 -0.713643 4.5349 2.27635 -0.706928 4.49498 2.3208 -0.701035 
4.45798 2.37154 -0.694307 4.41882 2.41763 -0.688196 4.3859 2.4762 -0.672955 
4.35146 2.52953 -0.64347 4.30229 2.54821 -0.596164 4.24187 2.5426 -0.552069 
4.18696 2.55181 -0.528433 4.13613 2.5747 -0.540338 4.08531 2.59856 -0.559599 
4.03036 2.61157 -0.565339 3.96903 2.60792 -0.550883 3.91327 2.61626 -0.534827 
3.85747 2.62452 -0.518793 3.79534 2.61912 -0.504559 3.73536 2.6174 -0.482372 
3.67246 2.61036 -0.468366 3.61249 2.61059 -0.46086 3.5504 2.60724 -0.461305 
3.49535 2.62006 -0.467081 3.44377 2.6413 -0.479203 3.38873 2.65606 -0.49966 
3.32664 2.65369 -0.507451 3.26671 2.65499 -0.507278 3.20457 2.65154 -0.507736 
3.14872 2.66554 -0.535769 3.09216 2.67993 -0.578699 3.02581 2.67323 -0.624416 
2.95874 2.66207 -0.648311 2.898 2.6626 -0.655716 2.83582 2.65905 -0.656186 
2.78002 2.66926 -0.654833 2.72421 2.67946 -0.65348 2.66204 2.67592 -0.65395 
2.60125 2.67537 -0.654022 2.53337 2.66052 -0.663466 2.46209 2.64025 -0.688567 
2.39497 2.63192 -0.734502 2.33832 2.64709 -0.784804 2.28166 2.66129 -0.827751 
2.2145 2.64993 -0.851671 2.1424 2.62598 -0.862322 2.0695 2.59932 -0.865857 
1.9966 2.57265 -0.869392 1.92446 2.54763 -0.87271 1.8565 2.5316 -0.874835 
1.79486 2.52923 -0.875149 1.72689 2.51321 -0.877274 1.65475 2.48818 -0.880592 
1.58185 2.46152 -0.884127 1.50891 2.43476 -0.887675 1.43596 2.408 -0.891224 
1.36301 2.38123 -0.894772 1.29007 2.35447 -0.898321 1.21712 2.32771 -0.901869 
1.14417 2.30095 -0.905417 1.07123 2.27419 -0.908966 0.998379 2.24738 -0.91252 
0.927186 2.21982 -0.916174 0.865069 2.18812 -0.920377 0.816818 2.1501 -0.925418 
0.756464 2.1176 -0.929727 0.696201 2.08506 -0.934042 0.649802 2.0462 -0.939195 
0.600279 2.00876 -0.944159 0.56462 1.965 -0.949961 0.528961 1.92125 -0.955762 
0.479528 1.88377 -0.960732 0.434892 1.8441 -0.965991 0.385559 1.80658 -0.970967 
0.351654 1.76202 -0.976874 0.326925 1.71328 -0.983337 0.30385 1.66379 -0.989899 
0.280775 1.6143 -0.996461 0.255946 1.56561 -1.00292 0.220287 1.52185 -1.00872 
0.160024 1.48833 -1.00569 0.0889305 1.45781 -0.987321 0.0160838 1.42613 -0.954157 
-0.0568628 1.39547 -0.928332 -0.129712 1.36867 -0.931887 -0.200805 1.34495 -0.96492 
-0.26116 1.31732 -1.00595 -0.298581 1.27729 -1.03367 -0.334342 1.23455 -1.04681 
-0.383766 1.19707 -1.05178 -0.428409 1.15741 -1.05704 -0.477737 1.11988 -1.06202 
-0.511643 1.07533 -1.06792 -0.536473 1.02663 -1.07438 -0.561302 0.97794 -1.08084 
-0.595112 0.93334 -1.08675 -0.642585 0.893994 -1.08449 -0.674637 0.845673 -1.06848 
-0.688633 0.786201 -1.03154 -0.688867 0.719482 -0.988073 -0.711843 0.664103 -0.950587 
-0.757657 0.622054 -0.933748 -0.791368 0.576436 -0.932322 -0.816002 0.527654 -0.93879 
-0.837318 0.47736 -0.945458 -0.849363 0.421866 -0.945341 -0.845888 0.356378 -0.924135 
-0.845439 0.287402 -0.866037 -0.304583 -0.911354 -1.10468 -0.38354 -0.91963 -0.859191 
-0.838694 0.125821 -0.813984 -0.663707 -0.508088 -0.911734 -0.637144 -0.564996 -0.792247 
-0.601997 -0.625603 -0.71809 -0.562129 -0.67656 -0.675034 -0.524172 -0.733986 -0.640301 
-0.478551 -0.792938 -0.610753 -0.68811 -0.380506 -0.984485 -0.715166 -0.313692 -0.932038 
-0.743188 -0.240215 -0.904854 -0.77715 -0.146023 -0.881158 -0.0997148 -1.01402 -0.853145 
-0.804848 0.149942 -0.520608 -0.779776 -0.0188034 -0.577855 -0.783689 0.018162 -0.382411 
-0.344036 -0.886656 -0.39154 -0.28192 -0.913191 -0.253772 -0.225918 -0.941924 -0.2055 
-0.146803 -0.968355 -0.24999 -0.915209 0.0440233 -0.123687 2.03704 -1.00052 -0.297047 
1.99205 -0.968958 -0.277922 1.95334 -0.921891 -0.271681 1.9075 -0.890216 -0.267481 
1.8525 -0.883144 -0.229179 1.78548 -0.905897 -0.164943 1.71424 -0.94164 -0.0725491 
1.64717 -0.969361 0.0283929 1.59132 -0.974835 0.147214 1.53969 -0.971213 0.267252 
1.48469 -0.972904 0.371645 1.42346 -0.983181 0.437526 1.36931 -0.973298 0.468726 
1.32351 -0.942498 0.480285 1.28481 -0.89543 0.486525 1.23982 -0.861918 0.490969 
1.19065 -0.837404 0.494219 1.14073 -0.814529 0.497252 1.09071 -0.791852 0.500259 
1.03993 -0.770814 0.503048 0.985022 -0.75771 0.497311 0.924507 -0.754747 0.475289 
0.873684 -0.727968 0.434011 0.828379 -0.688314 0.386955 0.766201 -0.686015 0.342431 
0.694917 -0.705297 0.309985 0.622058 -0.727976 0.277089 0.549211 -0.748942 0.229479 
0.478118 -0.768759 0.167073 0.417764 -0.793471 0.104018 0.380243 -0.829564 0.0469288 
0.342427 -0.866724 -0.00351319 0.276376 -0.893589 -0.0770423 0.1666 -0.930369 -0.19265 
5.86924 0.263494 0.0424117 5.81035 0.335409 -0.0825601 5.773 0.40163 -0.141023 
5.72947 0.443567 -0.172827 5.68619 0.486604 -0.211949 5.6535 0.553206 -0.255432 
5.62741 0.628724 -0.290248 5.6113 0.698878 -0.303361 5.61075 0.76011 -0.302717 
5.60728 0.821703 -0.29455 5.61942 0.875203 -0.279982 5.64245 0.920701 -0.24406 
5.67711 0.953806 -0.172427 5.73069 0.958306 -0.0672129 5.77881 0.920796 0.0473709 
5.81239 0.847362 0.157181 5.84028 0.763353 0.25066 5.86737 0.678581 0.336553 
5.89517 0.598268 0.400632 5.92715 0.529875 0.443868 5.96532 0.479827 0.452182 
5.99475 0.417882 0.421544 6.00525 0.333719 0.343141 5.9587 0.077505 0.212027 
5.9673 -0.0165462 0.199556 5.99243 -0.0902376 0.189786 6.02512 -0.150142 0.181843 
6.0693 -0.185393 0.177169 6.11927 -0.209142 0.181495 6.17515 -0.223616 0.21234 
6.2446 -0.218999 0.29917 6.33254 -0.202601 0.454231 7.90126 -0.529004 0.0270017 
7.82912 -0.563763 0.0971112 7.7612 -0.586505 0.1464 7.70041 -0.593863 0.197728 
7.63822 -0.60512 0.256014 7.58215 -0.603311 0.330982 7.52754 -0.596415 0.429029 
9.46027 -0.0151611 -0.0916781 9.39096 -0.0377379 -0.139501 9.34146 -0.0771303 -0.129784 
9.32857 -0.137107 -0.0928975 9.30368 -0.191617 -0.0552959 9.25599 -0.232811 -0.0383436 
9.21148 -0.273508 -0.0362648 9.16216 -0.311037 -0.0412408 9.12819 -0.355564 -0.0471447 
9.1034 -0.4033 -0.0609489 9.07861 -0.450063 -0.0820887 9.04477 -0.491727 -0.110028 
8.99719 -0.529077 -0.122454 8.96328 -0.574607 -0.121017 8.9368 -0.625467 -0.105346 
8.90279 -0.671924 -0.096566 8.85346 -0.710423 -0.0941956 8.80872 -0.750042 -0.0994489 
8.75754 -0.787696 -0.0969665 8.71095 -0.829392 -0.0800806 8.64893 -0.866977 -0.040235 
8.57774 -0.902327 0.0148566 6.10136 0.174704 0.41919 6.17458 0.136691 0.548657 
6.22254 0.0936886 0.605599 6.26075 0.0286949 0.62342 6.32383 -0.057721 0.637837 
6.81802 -0.567816 0.425356 6.84668 -0.645315 0.482324 6.88453 -0.698106 0.505214 
6.94078 -0.708319 0.511335 6.99986 -0.711451 0.510919 7.06195 -0.708098 0.511364 
6.72467 -0.504148 0.403909 6.66891 -0.501644 0.46402 6.61814 -0.486448 0.510863 
6.56894 -0.464955 0.539003 6.52428 -0.426863 0.563017 6.4879 -0.335159 0.601051 
6.77647 -0.432407 0.480665 6.77393 -0.378685 0.622294 6.59528 -0.212234 0.714483 
6.68522 -0.252028 0.750595 7.51503 -0.570675 0.73881 6.84292 -0.277385 0.962632 
8.60771 -0.403518 0.753499 8.55767 -0.382087 0.766307 8.50651 -0.365446 0.808359 
8.44848 -0.360763 0.898647 7.20162 -0.35531 1.16339 7.65126 -0.546618 1.03342 
7.72245 -0.526847 1.09582 7.78452 -0.49622 1.10734 7.83206 -0.455115 1.07544 
7.88915 -0.427437 1.0268 7.94823 -0.420163 0.982931 8.01107 -0.412007 0.961598 
8.07104 -0.412237 0.954093 8.13318 -0.408785 0.954551 7.55152 -0.498235 1.01741 
7.52637 -0.438046 1.11257 7.51201 -0.384292 1.22929 7.52196 -0.335284 1.36281 
8.27377 -0.395087 0.981273 8.22924 -0.482174 1.09676 8.28842 -0.488701 1.1731 
8.3448 -0.448931 1.14101 6.98995 -0.264625 1.20157 7.05569 -0.284752 1.25681 
7.11876 -0.290914 1.31203 8.69395 0.349599 1.21949 8.65663 0.315362 1.14771 
8.62096 0.284267 1.04644 8.5732 0.25771 0.953254 8.53753 0.219798 0.903398 
8.50011 0.174898 0.912384 8.43976 0.136554 0.95214 8.36866 0.103106 0.992534 
8.29582 0.0733782 1.01101 8.22287 0.0456428 1.0148 8.14992 0.0179071 1.0186 
8.07698 -0.0117752 1.03708 8.00403 -0.0453524 1.08493 7.93108 -0.0828238 1.16216 
7.85814 -0.12419 1.26875 7.78514 -0.166225 1.38025 7.71129 -0.205651 1.46967 
7.63222 -0.240493 1.50988 7.24752 -0.29528 1.47024 7.31971 -0.278758 1.53719 
7.38863 -0.266506 1.55874 7.45669 -0.270264 1.5433 
LINES 36 568
13 32 33 34 35 36 37 38 39 40 41 42 43 25 
96 31 44 45 46 47 48 49 50 51 52 53 54 55 56 57 58 59 60 61 62 63 64 65 66 67 68 69 70 71 72 73 74 75 76 77 78 79 80 81 82 83 84 85 86 87 88 89 90 91 92 93 94 95 96 97 98 99 100 101 102 103 104 105 106 107 108 109 110 111 112 113 114 115 116 117 118 119 120 121 122 123 124 125 126 127 128 129 130 131 132 133 134 135 136 137 30 
5 31 138 139 140 25 
5 31 141 142 143 26 
16 30 144 145 146 147 148 149 150 151 152 153 154 155 156 157 28 
13 30 158 159 160 161 162 163 164 165 166 167 168 28 
14 29 169 170 171 172 173 174 175 176 177 178 179 180 27 
125 28 181 182 183 184 185 186 187 188 189 190 191 192 193 194 195 196 197 198 199 200 201 202 203 204 205 206 207 208 209 210 211 212 213 214 215 216 217 218 219 220 221 222 223 224 225 226 227 228 229 230 231 232 233 234 235 236 237 238 239 240 241 242 243 244 245 246 247 248 249 250 251 252 253 254 255 256 257 258 259 260 261 262 263 264 265 266 267 268 269 270 271 272 273 274 275 276 277 278 279 280 281 282 283 284 285 286 287 288 289 290 291 292 293 294 295 296 297 298 299 300 301 302 303 24 
4 25 304 305 22 
3 23 306 24 
8 26 307 308 309 310 311 312 22 
6 26 313 314 315 316 23 
3 25 317 18 
3 24 318 21 
4 23 319 320 21 
6 22 321 322 323 324 18 
3 21 325 19 
36 20 326 327 328 329 330 331 332 333 334 335 336 337 338 339 340 341 342 343 344 345 346 347 348 349 350 351 352 353 354 355 356 357 358 359 18 
25 14 360 361 362 363 364 365 366 367 368 369 370 371 372 373 374 375 376 377 378 379 380 381 382 14 
11 14 383 384 385 386 387 388 389 390 391 10 
24 16 399 400 401 402 403 404 405 406 407 408 409 410 411 412 413 414 415 416 417 418 419 420 15 
7 14 421 422 423 424 425 10 
8 13 426 427 428 429 430 431 12 
8 13 432 433 434 435 436 437 10 
4 13 438 439 9 
4 10 440 441 9 
6 8 444 445 446 447 3 
3 7 448 2 
11 6 449 450 451 452 453 454 455 456 457 5 
6 6 458 459 460 461 0 
3 5 462 3 
5 5 463 464 465 3 
20 4 469 470 471 472 473 474 475 476 477 478 479 480 481 482 483 484 485 486 0 
6 2 487 488 489 490 0 
11 17 392 393 394 395 396 397 398 11 442 6 
7 9 443 1 466 467 468 2 

POINT_DATA 491
SCALARS DY_raw double
LOOKUP_TABLE default
28.3436 42.2715 49.2867 42.5523 24.3412 50.7182 81.1807 64.9682 62.1279 
48.4867 44.949 43.151 67.4137 34.75 43.3675 75.8188 70.8773 35.9742 
59.1508 0 35.991 17.2945 56.6123 25.2072 37.7905 30.8713 39.8849 
62.2367 48.5869 62.5 51.2093 34.0354 20.2424 26.6117 32.7129 36.965 
43.8344 54.7071 46.6784 49.0382 40.0152 28.7163 30.3789 29.3781 34.9627 
35.0005 36.3076 36.6848 30.5048 27.3087 26.2365 31.0902 28.1333 33.3702 
31.487 34.3494 30.3504 47.7329 48.6481 35.6314 39.2684 32.9002 32.9002 
36.7032 46.2254 54.7434 47.8174 64.0734 62.1505 56.3883 57.4766 84.3118 
102.519 91.9318 96.97 106.008 92.7402 89.7182 84.8593 85.5078 85.5078 
66.4303 77.3882 76.298 87.7119 91.2248 82.9283 82.9283 66.7892 59.7317 
50.7984 50.7984 46.7979 47.4565 47.4565 57.2308 56.454 50.7901 43.5937 
43.5937 44.7889 35.4532 35.4532 45.5217 52.1704 52.6074 53.2387 52.8562 
55.8453 53.9211 49.7113 45.5074 48.1965 41.6047 41.6458 46.7109 49.7374 
53.7269 41.7162 45.8622 46.8025 39.1481 39.1481 37.9941 41.4364 44.1944 
59.8121 62.9011 81.0719 85.9765 85.9765 92.2587 79.8953 88.2856 83.1226 
64.3138 64.3138 52.4788 34.354 33.0247 34.9387 39.2027 36.6943 35.3335 
63.1931 77.5872 87.5922 86.4036 81.4679 68.9715 68.9715 55.2797 58.4398 
52.1972 58.4666 58.4666 59.0573 50.6646 51.2093 51.4824 42.0758 39.3792 
39.9627 43.0078 42.4814 44.4348 44.4348 45.6202 46.0015 48.3408 53.0454 
49.5269 44.0307 50.275 52.5289 49.9845 48.7359 53.3566 47.52 50.1151 
44.6088 43.7153 51.2385 49.9791 42.2975 45.1432 35.8019 35.4763 35.9937 
41.8159 49.5432 53.0925 53.1811 53.8864 48.7149 48.7149 40.9984 39.2292 
40.0144 38.9405 39.8996 36.8233 38.2481 41.3238 40.8231 41.787 46.2179 
46.1631 41.7086 40.2303 33.0064 32.9013 42.0595 46.9525 46.9525 59.8596 
58.7178 64.844 62.4164 49.8621 66.955 53.4329 39.1027 42.9588 42.9588 
55.2478 47.3305 51.0351 51.0351 45.0262 40.4345 45.3876 40.6774 41.2946 
54.3 57.4059 65.3764 69.004 62.9312 48.2287 42.6048 49.1238 49.1238 
49.3413 42.5046 54.8417 58.9681 56.4608 62.4262 74.9406 77.0176 57.0338 
62.6208 56.625 44.7696 56.1659 47.7064 53.6667 48.5537 45.4603 41.2779 
50.1124 50.1124 62.4715 75.7088 75.7088 75.3938 75.3938 58.2538 36.4094 
36.4094 32.1231 33.8388 25.9024 33.6209 34.4375 29.992 28.6747 29.5836 
32.8985 30.1334 23.8166 21.5235 29.6608 23.6325 27.7527 26.7227 26.7227 
27.8801 24.7584 24.7584 29.1225 29.1225 27.0686 27.2803 27.1574 35.5937 
36.1821 36.1821 38.5151 35.0822 38.7743 35.0114 32.4236 35.4353 45.0317 
32.9513 29.0177 35.0915 27.6242 22.3717 23.0789 28.3396 27.0015 31.6958 
31.8971 28.9208 52.2163 32.3321 23.8897 17.7211 52.3118 64.0771 63.0428 
56.6868 13.0328 44.275 44.275 44.8493 33.6208 40.234 46.9475 36.3314 
29.0372 52.6406 75.873 52.7976 46.8392 46.8392 46.5684 49.2816 49.2816 
52.722 53.6122 51.0824 51.0824 49.6437 46.914 41.2221 33.4507 30.0552 
42.5509 35.5354 47.2065 37.8141 27.1074 28.4772 42.1915 31.1783 33.5918 
35.0438 30.8706 31.7241 33.8009 29.5305 29.3763 33.4357 37.2555 44.257 
44.257 50.676 50.7368 42.5381 34.2367 32.8074 46.4351 39.8576 42.338 
38.0962 33.8535 40.4271 35.9283 34.5405 34.133 28.874 28.7757 29.8273 
32.1682 32.1682 40.911 45.7755 46.7339 34.7515 38.1474 39.7389 40.5534 
34.6682 36.6145 41.0662 68.2637 55.0237 46.9722 54.2287 81.0537 97.3517 
81.8223 92.2955 91.6887 85.788 83.2251 75.4209 75.4209 66.6511 54.144 
52.8977 58.8813 54.7638 53.7884 62.3235 65.2159 69.0965 37.2953 43.7153 
41.9529 43.9085 46.0741 36.3519 40.1632 44.7119 53.5815 51.1977 55.4371 
32.5418 36.4166 39.5909 44.1579 45.4943 42.6301 33.736 41.5916 43.2802 
50.2615 58.0198 38.1586 62.1279 50.6321 43.5531 42.3813 40.1438 64.2033 
67.2756 56.4365 47.425 46.0614 48.3247 56.1647 57.2283 57.2283 50.4811 
52.152 46.7297 35.3382 41.8798 60.3638 59.4732 54.4809 51.1926 44.1247 
44.8229 21.7931 19.8841 20.6959 27.9196 30.879 33.2973 39.6653 51.145 
64.9784 52.7503 38.5655 31.879 31.972 25.0672 22.4023 23.4832 27.9179 
26.4922 45.1212 47.1342 35.2905 27.2986 
FIELD FieldData 7
DY_minmax 1 491 double
0.267372 0.398757 0.464932 0.401405 0.229616 0.478437 0.765795 0.612859 0.586067 
0.457386 0.424014 0.407053 0.635929 0.327805 0.409096 0.715216 0.668602 0.339353 
0.557983 0 0.339511 0.163143 0.534037 0.237785 0.356487 0.291216 0.376244 
0.587092 0.458331 0.589577 0.483069 0.321063 0.190951 0.251035 0.308588 0.348699 
0.4135 0.516064 0.440328 0.462589 0.377473 0.270887 0.286571 0.27713 0.329811 
0.330167 0.342497 0.346056 0.287759 0.257609 0.247495 0.293281 0.265387 0.314789 
0.297024 0.324026 0.286303 0.450275 0.458908 0.336119 0.370428 0.310355 0.310355 
0.346229 0.436054 0.516407 0.451072 0.604418 0.58628 0.531923 0.54219 0.795332 
0.967082 0.867213 0.91474 1 0.87484 0.846332 0.800496 0.806615 0.806615 
0.626652 0.730021 0.719736 0.827406 0.860544 0.782281 0.782281 0.630038 0.563463 
0.479193 0.479193 0.441455 0.447668 0.447668 0.539871 0.532543 0.479115 0.411229 
0.411229 0.422504 0.334438 0.334438 0.429417 0.492135 0.496258 0.502213 0.498605 
0.526802 0.508649 0.468938 0.429281 0.454648 0.392466 0.392854 0.440635 0.469184 
0.506818 0.393518 0.432628 0.441498 0.369293 0.369293 0.358407 0.390879 0.416896 
0.564221 0.59336 0.764769 0.811036 0.811036 0.870297 0.75367 0.832818 0.784114 
0.606687 0.606687 0.495045 0.324069 0.31153 0.329585 0.369808 0.346145 0.333309 
0.596114 0.731898 0.826277 0.815064 0.768505 0.650624 0.650624 0.521466 0.551276 
0.492388 0.551529 0.551529 0.557101 0.47793 0.483069 0.485645 0.396911 0.371473 
0.376977 0.405702 0.400737 0.419164 0.419164 0.430345 0.433943 0.456009 0.500389 
0.467199 0.415352 0.474256 0.495517 0.471515 0.459737 0.503325 0.448267 0.472747 
0.420805 0.412376 0.483344 0.471464 0.399001 0.425846 0.337727 0.334656 0.339536 
0.394459 0.467353 0.500834 0.501669 0.508323 0.459539 0.459539 0.386747 0.370058 
0.377465 0.367334 0.376382 0.347362 0.360803 0.389816 0.385093 0.394186 0.435984 
0.435467 0.393446 0.379502 0.311357 0.310365 0.396757 0.442914 0.442914 0.564669 
0.553898 0.611688 0.588788 0.470361 0.631601 0.504045 0.368864 0.40524 0.40524 
0.521165 0.446479 0.481426 0.481426 0.424742 0.381428 0.428152 0.383719 0.389541 
0.512224 0.541523 0.61671 0.65093 0.593644 0.454952 0.401901 0.463396 0.463396 
0.465448 0.400955 0.517334 0.55626 0.532607 0.58888 0.706932 0.726524 0.538013 
0.590716 0.534156 0.422322 0.529826 0.450025 0.50625 0.458018 0.428838 0.389384 
0.472721 0.472721 0.589307 0.714179 0.714179 0.711207 0.711207 0.549521 0.343458 
0.343458 0.303025 0.319209 0.244344 0.317153 0.324857 0.282922 0.270495 0.279069 
0.310339 0.284256 0.224667 0.203036 0.279797 0.22293 0.261797 0.252081 0.252081 
0.262999 0.233552 0.233552 0.274719 0.274719 0.255345 0.257342 0.256182 0.335763 
0.341314 0.341314 0.363322 0.330938 0.365767 0.33027 0.305859 0.334269 0.424794 
0.310837 0.27373 0.331026 0.260585 0.211037 0.217708 0.267334 0.254711 0.298994 
0.300892 0.272816 0.492569 0.304996 0.225357 0.167167 0.493469 0.604453 0.594697 
0.534739 0.122941 0.417656 0.417656 0.423073 0.317152 0.379536 0.442866 0.342723 
0.273915 0.496571 0.715727 0.498052 0.441844 0.441844 0.43929 0.464884 0.464884 
0.497339 0.505736 0.481872 0.481872 0.4683 0.44255 0.388857 0.315548 0.283517 
0.401393 0.335214 0.44531 0.356709 0.25571 0.268632 0.398002 0.294112 0.316879 
0.330576 0.29121 0.299261 0.318851 0.278568 0.277114 0.315407 0.351439 0.417486 
0.417486 0.478038 0.478611 0.401272 0.322963 0.309479 0.438032 0.375986 0.399384 
0.35937 0.319348 0.381358 0.33892 0.325828 0.321984 0.272375 0.271448 0.281367 
0.30345 0.30345 0.385923 0.431811 0.440852 0.327819 0.359853 0.374866 0.382549 
0.327033 0.345393 0.387387 0.643946 0.519051 0.443099 0.511552 0.764597 0.918341 
0.771849 0.870644 0.864921 0.809257 0.785081 0.711463 0.711463 0.628735 0.510752 
0.498996 0.55544 0.5166 0.507398 0.587912 0.615196 0.651803 0.351815 0.412376 
0.395751 0.414199 0.434627 0.342916 0.378869 0.421777 0.505446 0.482959 0.52295 
0.306974 0.343526 0.37347 0.416551 0.429158 0.402139 0.318239 0.392343 0.408272 
0.474128 0.547314 0.359959 0.586067 0.477624 0.410846 0.399793 0.378685 0.605644 
0.634625 0.532378 0.447371 0.434507 0.455858 0.529814 0.539848 0.539848 0.4762 
0.491961 0.440812 0.333353 0.395062 0.569425 0.561024 0.513931 0.482912 0.416239 
0.422824 0.205579 0.187571 0.195229 0.263372 0.291289 0.314101 0.374171 0.482463 
0.612956 0.497605 0.363797 0.300721 0.301599 0.236464 0.211326 0.221522 0.263356 
0.249907 0.425638 0.444627 0.332903 0.257514 
WidthEq 1 491 double
4.9535 4.27664 3.58028 4.88669 7.80119 5.06701 3.99787 3.59776 6.06426 
4.11185 4.18185 6.97435 2.51818 4.3364 4.33066 2.97486 4.04967 4.28362 
4.04661 2.31698 1.18502 4.85009 3.40791 4.37613 3.88801 5.86078 3.70867 
4.6622 4.49421 1 4.8208 5.06532 2.83564 4.17598 4.30228 4.41201 
3.70417 3.44288 3.69314 3.64695 3.83804 4.32785 4.7296 4.95846 5.19182 
5.32393 5.10472 5.16018 5.7945 6.31374 6.58891 6.50397 6.64267 5.71647 
4.58888 3.69875 3.87111 3.48314 3.85976 4.79268 5.32184 5.96014 5.96014 
5.84636 5.78341 5.06271 5.81107 4.66762 4.38709 4.71818 4.39883 3.63377 
3.52404 3.98796 3.82675 3.32663 3.49762 3.45671 3.47446 3.50564 3.50564 
3.76575 3.96662 3.95305 3.5091 3.37901 3.55862 3.55862 4.07805 4.65548 
5.686 5.686 6.28105 6.27564 6.27564 5.76403 5.23931 5.51997 5.34252 
5.34252 5.00347 5.32053 5.32053 5.30318 5.41246 5.726 5.8296 6.4176 
6.10973 6.29253 6.53111 6.52224 6.61625 6.75501 6.95941 5.19364 4.61986 
4.05607 5.90371 6.02479 7.04813 7.07084 7.07084 6.05963 5.31127 5.18255 
4.3212 4.00629 3.797 3.47211 3.47211 3.0705 3.04336 2.99143 3.12562 
3.50656 3.50656 4.3105 4.95983 5.141 5.44553 5.2277 4.86888 4.22517 
3.95756 3.77188 3.51321 3.81651 4.23958 4.33875 4.33875 4.32961 3.95501 
4.35043 4.17572 4.17572 4.20964 4.45696 4.8208 5.01939 4.9109 4.69867 
4.33529 4.70728 4.61425 4.38552 4.38552 4.13129 4.46029 2.28482 2.97707 
3.18049 4.51548 5.53217 6.62493 6.91955 6.90272 6.22566 7.08565 7.15193 
6.82175 4.76378 4.58679 4.64394 4.95089 4.79164 5.43268 5.2793 4.44189 
4.28688 3.43962 3.27541 3.59 3.99154 4.6029 4.6029 4.93556 4.50863 
4.74904 4.35023 4.64792 4.53871 4.52912 4.54654 4.61308 4.36667 4.09084 
4.17519 4.34227 4.41508 4.9045 4.92655 4.2951 4.26516 4.26516 3.61596 
3.57336 3.02881 3.1527 3.12321 2.65806 3.21487 4.23117 4.54575 4.54575 
4.379 5.15672 5.04809 5.04809 4.83052 4.95369 4.21238 4.29895 4.29354 
3.9175 3.29949 3.53461 3.3843 3.45965 3.53213 3.65334 3.15733 3.15733 
2.63633 2.71971 2.4031 2.73249 3.4787 3.55235 3.21455 3.07761 3.71323 
2.93049 3.02587 3.5198 3.01909 3.61733 3.65608 3.74266 3.95906 3.70997 
3.5153 3.5153 3.05804 2.7903 2.7903 2.89135 2.89135 3.30399 3.8306 
3.8306 3.87633 3.47087 3.71741 3.25036 3.2122 3.76366 4.71531 5.22992 
5.01026 4.46381 4.90372 4.60382 3.79491 3.9907 3.70162 3.50975 3.50975 
3.54805 3.71389 3.71389 3.93407 3.93407 4.09625 3.99115 3.78865 3.8077 
4.25818 4.25818 4.36452 4.41762 4.31239 4.21577 4.18152 5.00321 3.61701 
3.9965 3.77873 3.49971 4.00048 4.18655 4.37933 4.22765 5.13565 5.33352 
5.3983 5.09011 4.27318 4.37058 4.08627 4.98501 4.06142 3.63827 4.34625 
4.59807 4.12652 2.08447 2.08447 2.97329 4.2328 4.29041 4.21577 4.10774 
4.16776 4.08164 3.79015 3.89127 3.97445 3.97445 3.90608 3.85337 3.85337 
3.61538 3.25206 3.22146 3.22146 3.34 3.36936 3.29629 3.04747 2.73497 
2.6775 2.74965 2.7689 3.28396 4.09593 4.46146 4.99532 5.27193 4.68478 
4.32459 4.96459 5.48037 5.92706 6.53901 6.7265 6.68775 6.32202 5.50784 
5.50784 5.10577 5.17101 5.33521 5.00895 4.26672 4.42532 4.3959 4.50328 
4.27103 4.27312 4.32185 4.48671 4.66814 4.35532 4.78251 5.293 5.33371 
5.23187 5.23187 4.38024 4.35036 4.33646 5.6999 7.36852 7.2614 6.48923 
7.57611 7.78762 7.04448 5.3998 5.74752 5.76383 5.16663 3.97811 3.49814 
3.52495 3.18336 3.0778 3.22446 3.38528 3.33263 3.33263 3.6628 4.08614 
4.44424 4.61471 5.21713 5.63003 5.69416 5.48976 3.98052 3.80235 3.34529 
3.15616 3.38978 3.58119 4.75628 4.67219 4.09332 3.38736 3.85076 3.30627 
4.31291 4.43974 4.44496 4.16188 3.87411 4.24911 4.19137 4.33092 3.78187 
3.85643 5.63153 4.09606 6.06426 6.47475 5.94768 5.45995 3.95827 5.09428 
4.42702 5.42805 6.71417 7.45679 7.76165 6.972 6.40592 6.40592 5.62487 
5.17603 5.07471 5.20088 4.88493 4.70879 4.29589 4.56839 4.18381 4.36784 
4.19764 7.62857 7.8359 6.64867 4.56024 4.07655 4.04387 3.66568 3.83986 
3.53317 3.97041 5.70251 6.51056 6.59766 7.01395 7.03411 6.66733 5.77623 
5.52956 3.43121 3.4894 3.91437 4.36067 
rRFP 1 491 double
3007.49 2903.74 2797 2997.25 3443.99 3024.89 2861.01 2799.68 3177.75 
2878.48 2889.21 3317.25 2634.2 2912.9 2912.02 2704.2 2868.95 2904.81 
2868.48 2603.36 2429.85 2991.64 2770.58 2918.99 2844.17 3146.56 2816.68 
2962.84 2937.09 2401.49 2987.15 3024.63 2682.86 2888.31 2907.67 2924.49 
2815.99 2775.94 2814.3 2807.22 2836.51 2911.59 2973.17 3008.25 3044.02 
3064.27 3030.67 3039.17 3136.4 3215.99 3258.17 3245.15 3266.41 3124.44 
2951.6 2815.16 2841.58 2782.11 2839.84 2982.84 3063.95 3161.79 3161.79 
3144.35 3134.7 3024.23 3138.94 2963.67 2920.67 2971.42 2922.47 2805.2 
2788.38 2859.49 2834.78 2758.12 2784.33 2778.06 2780.78 2785.56 2785.56 
2825.43 2856.22 2854.14 2786.09 2766.15 2793.68 2793.68 2873.3 2961.81 
3119.77 3119.77 3210.98 3210.15 3210.15 3131.73 3051.3 3094.32 3067.12 
3067.12 3015.15 3063.75 3063.75 3061.09 3077.84 3125.9 3141.78 3231.91 
3184.72 3212.74 3249.31 3247.95 3262.36 3283.63 3314.96 3044.3 2956.35 
2869.93 3153.14 3171.7 3328.56 3332.04 3332.04 3177.04 3062.33 3042.6 
2910.57 2862.3 2830.22 2780.42 2780.42 2718.86 2714.7 2706.74 2727.31 
2785.7 2785.7 2908.93 3008.46 3036.23 3082.91 3049.52 2994.52 2895.85 
2854.83 2826.37 2786.72 2833.21 2898.06 2913.26 2913.26 2911.86 2854.44 
2915.05 2888.27 2888.27 2893.47 2931.38 2987.15 3017.59 3000.96 2968.43 
2912.73 2969.75 2955.49 2920.43 2920.43 2881.46 2931.89 2598.43 2704.54 
2735.72 2940.35 3096.19 3263.69 3308.85 3306.27 3202.49 3334.31 3344.47 
3293.86 2978.41 2951.28 2960.04 3007.09 2982.68 3080.94 3057.43 2929.07 
2905.31 2775.44 2750.27 2798.49 2860.04 2953.75 2953.75 3004.74 2939.3 
2976.15 2915.02 2960.65 2943.91 2942.44 2945.11 2955.31 2917.54 2875.26 
2888.19 2913.8 2924.96 2999.98 3003.36 2906.57 2901.98 2901.98 2802.47 
2795.94 2712.47 2731.46 2726.94 2655.64 2740.99 2896.77 2944.99 2944.99 
2919.43 3038.64 3021.99 3021.99 2988.64 3007.52 2893.89 2907.16 2906.33 
2848.69 2753.96 2790 2766.96 2778.51 2789.62 2808.2 2732.17 2732.17 
2652.31 2665.09 2616.56 2667.05 2781.43 2792.72 2740.94 2719.95 2817.38 
2697.4 2712.02 2787.73 2710.98 2802.68 2808.62 2821.89 2855.06 2816.88 