# vtk DataFile Version 3.0
vtk output
ASCII
DATASET POLYDATA
POINTS 361 float
5.44474 -0.546632 0.467494 6.09282 0.584743 -0.0463052 5.61058 0.174795 0.189022 
4.7817 0.0470074 0.0100301 3.19386 -0.789061 -0.056373 6.58822 0.480348 -0.218716 
-0.266911 -0.88181 -0.274506 6.41494 0.90683 -0.533894 -0.505651 0.331923 -0.569426 
6.65184 1.21376 -0.900631 5.42633 1.36145 -0.794634 7.10175 0.385479 -1.34392 
-0.537005 0.0162222 -0.764693 6.31023 -0.995068 -1.50789 6.96223 1.12045 -1.50495 
6.94208 0.307875 -1.49775 6.96368 -0.234273 -1.672 6.60852 -0.495124 -1.63312 
-0.464162 0.229371 -1.13595 3.14283 1.10678 -1.52298 -0.01958 0.888669 -1.37517 
6.62446 0.165549 -2.25445 2.28574 1.45141 -1.81291 1.18169 1.56505 -1.7926 
6.50908 1.20863 -2.31773 1.70926 1.26082 -2.10614 0.933618 1.17316 -2.19365 
6.34793 1.4747 -2.66468 0.614431 1.03989 -2.40432 0.684187 1.07088 -2.40252 
0.745255 1.10405 -2.39221 0.793632 1.1385 -2.35822 0.858191 1.16043 -2.28983 
6.38758 1.38007 -2.54934 6.43742 1.28974 -2.43377 1.77261 1.28458 -2.08645 
1.84273 1.31301 -2.05115 1.91557 1.33872 -2.02032 1.98915 1.36271 -1.98609 
2.0634 1.38454 -1.94098 2.1381 1.40495 -1.8886 2.21236 1.42678 -1.8435 
1.64766 1.27802 -2.11044 1.58817 1.29359 -2.11519 1.52409 1.29374 -2.14154 
1.46227 1.29831 -2.17096 1.39965 1.29468 -2.18301 1.34595 1.30269 -2.16312 
1.30233 1.32517 -2.1108 1.27037 1.37172 -2.04193 1.24306 1.42867 -1.96376 
1.21449 1.49194 -1.88177 6.4927 1.12786 -2.32482 6.48504 1.05899 -2.31501 
6.4937 0.988376 -2.28386 6.49793 0.919632 -2.2445 6.50659 0.850461 -2.21307 
6.49995 0.790999 -2.2015 6.49199 0.735752 -2.21172 6.49682 0.679188 -2.24563 
6.49726 0.628047 -2.3009 6.51305 0.572122 -2.36558 6.53893 0.509764 -2.41699 
6.56713 0.439838 -2.4297 6.58894 0.363651 -2.39789 6.59935 0.277819 -2.33199 
6.59901 1.23705 -2.27984 6.67573 1.24305 -2.20771 6.74028 1.21222 -2.08756 
6.80351 1.16371 -1.92087 6.87488 1.12504 -1.72253 1.08378 1.52814 -1.76111 
1.00812 1.50228 -1.73133 0.947115 1.49051 -1.69719 0.88268 1.46223 -1.65093 
0.814927 1.42386 -1.60137 0.747727 1.38458 -1.55959 0.688404 1.34579 -1.54086 
0.642208 1.30432 -1.53855 0.581576 1.26975 -1.5416 0.511383 1.24016 -1.55067 
0.440755 1.21198 -1.56699 0.378814 1.18162 -1.59182 0.331838 1.14292 -1.60405 
0.273434 1.10624 -1.60008 0.216338 1.06534 -1.57433 0.171979 1.01821 -1.543 
0.1144 0.973801 -1.49523 0.0480324 0.931608 -1.43895 1.26428 1.61325 -1.75548 
1.3199 1.6559 -1.7279 1.38222 1.68949 -1.71506 1.45154 1.71827 -1.71113 
1.51852 1.73758 -1.71142 1.57916 1.74137 -1.71433 1.64173 1.74976 -1.71647 
1.7016 1.75168 -1.71969 1.76343 1.75832 -1.72212 1.81951 1.75113 -1.72689 
1.87556 1.74384 -1.73166 1.93665 1.74871 -1.73439 1.99192 1.73955 -1.73949 
2.04267 1.71951 -1.74641 2.08825 1.68703 -1.75544 2.12427 1.63152 -1.76835 
2.16024 1.57591 -1.78127 2.205 1.54147 -1.79063 2.24977 1.50702 -1.79998 
2.34298 1.41507 -1.72512 2.40222 1.39337 -1.66487 2.46498 1.39242 -1.63859 
2.51999 1.3802 -1.6367 2.56704 1.35125 -1.64513 2.60834 1.30848 -1.65589 
2.65961 1.28723 -1.65552 2.72193 1.28769 -1.63651 2.78361 1.27922 -1.59651 
2.84393 1.26503 -1.54996 2.89164 1.22294 -1.51563 2.93995 1.18968 -1.5023 
2.99049 1.16668 -1.50223 3.04124 1.14664 -1.50916 3.09203 1.12671 -1.51607 
6.67733 0.0915726 -2.29714 6.72557 0.0391453 -2.30263 6.77041 -0.0216273 -2.24654 
6.82551 -0.0806363 -2.11515 6.89073 -0.148968 -1.91312 6.56405 0.0792629 -2.03574 
6.53486 -0.00216234 -1.86836 6.51818 -0.0740373 -1.76286 6.50372 -0.139939 -1.69412 
6.49926 -0.206427 -1.64626 6.51893 -0.279918 -1.61632 6.5483 -0.353515 -1.60966 
6.57858 -0.425003 -1.61775 -0.0121244 0.854517 -1.5485 -0.0165804 0.818873 -1.68362 
-0.0150087 0.772225 -1.76832 -0.0278385 0.722593 -1.79983 -0.0571408 0.673255 -1.7925 
-0.102061 0.625113 -1.75378 -0.141871 0.573729 -1.70841 -0.186994 0.525666 -1.66966 
-0.218989 0.474918 -1.64733 -0.250984 0.42417 -1.625 -0.295519 0.373894 -1.57411 
-0.335046 0.315618 -1.47972 -0.391446 0.263278 -1.32774 -0.0855494 0.840149 -1.28234 
-0.153264 0.797251 -1.21856 -0.222621 0.759932 -1.18382 -0.290633 0.723319 -1.15658 
-0.346328 0.678171 -1.10907 -0.375705 0.618992 -1.04317 -0.392775 0.550828 -0.954574 
-0.409796 0.479498 -0.851468 -0.441173 0.405097 -0.720381 6.98476 0.975025 -1.3576 
7.03037 0.890564 -1.21645 7.08093 0.830283 -1.10872 7.12033 0.758875 -1.05084 
7.15279 0.684995 -1.03686 7.18312 0.613607 -1.04493 7.21045 0.545942 -1.06929 
7.22214 0.486708 -1.11994 7.18786 0.438542 -1.21377 -0.502341 0.1202 -0.955748 
-0.480589 0.282543 -0.973509 -0.483404 0.312404 -0.786167 6.6818 -0.470452 -1.60252 
6.7521 -0.440905 -1.59346 6.81166 -0.402959 -1.60734 6.85611 -0.356477 -1.62621 
6.90997 -0.304503 -1.64961 6.59324 -0.563539 -1.54719 6.57454 -0.625671 -1.49007 
6.54443 -0.677158 -1.468 6.49901 -0.71894 -1.46579 6.46759 -0.76621 -1.46549 
6.44573 -0.818467 -1.45918 6.4243 -0.87213 -1.44561 6.39287 -0.919399 -1.44531 
6.34606 -0.95693 -1.46487 7.02465 -0.21237 -1.51018 7.07498 -0.192292 -1.36572 
7.12724 -0.172633 -1.24917 7.15399 -0.141168 -1.14392 7.15599 -0.095924 -1.0597 
7.16898 -0.0512877 -0.998934 7.18935 -0.00461515 -0.968453 7.20926 0.0476063 -0.969164 
7.22077 0.114447 -1.02563 7.19628 0.219701 -1.15838 6.99869 0.346173 -1.42229 
6.88576 1.1293 -1.34446 6.82643 1.11982 -1.20517 6.78622 1.13457 -1.0888 
6.7436 1.15277 -1.00865 6.69747 1.18058 -0.951364 -0.551975 -0.0741474 -0.718299 
-0.565812 -0.149232 -0.656414 -0.568267 -0.223298 -0.577394 -0.544524 -0.309979 -0.479708 
-0.509484 -0.401843 -0.378664 -0.473533 -0.491597 -0.292376 -0.439663 -0.574363 -0.242415 
-0.407974 -0.650105 -0.228746 -0.377551 -0.721532 -0.236837 -0.346833 -0.789792 -0.251894 
-0.311635 -0.847267 -0.265133 -0.578231 0.0881154 -0.647524 -0.597458 0.146259 -0.55702 
-0.586702 0.196814 -0.512609 -0.556919 0.256622 -0.522975 -0.54499 0.397721 -0.420808 
-0.562617 0.450637 -0.303699 -0.550096 0.494121 -0.230531 -0.518472 0.535598 -0.196692 
-0.470499 0.573905 -0.1846 -0.427199 0.614046 -0.171872 -0.378353 0.649545 -0.145265 
-0.345124 0.686236 -0.0872564 -0.32914 0.725993 -0.0049366 -0.327426 0.767651 0.10127 
-0.310032 0.803153 0.205354 -0.272009 0.82921 0.31392 -0.208506 0.844334 0.411289 
-0.138809 0.841096 0.512282 -0.0843311 0.803675 0.600024 -0.0551066 0.733542 0.690502 
-0.0565763 0.661991 0.775 -0.06929 0.591454 0.86792 -0.082481 0.522221 0.953571 
-0.0848587 0.448745 1.03774 -0.0652351 0.370334 1.09697 -0.0447019 0.294035 1.14144 
-0.0372409 0.225335 1.17303 -0.015251 0.149699 1.20998 0.0155291 0.071845 1.23842 
0.0466805 -0.00245194 1.24484 0.0753167 -0.0683588 1.20769 0.103122 -0.131354 1.15603 
0.132489 -0.1955 1.11918 0.168261 -0.25896 1.12742 0.211088 -0.312803 1.15978 
0.24821 -0.380376 1.18982 0.280926 -0.45119 1.19682 0.316387 -0.512946 1.19785 
0.359368 -0.559049 1.20902 0.40553 -0.60486 1.24272 0.460555 -0.631794 1.28712 
0.507885 -0.677249 1.32838 0.556299 -0.715184 1.35591 0.603624 -0.753286 1.37593 
0.64455 -0.799427 1.3721 0.690388 -0.828833 1.35609 0.739141 -0.846314 1.32711 
0.789019 -0.863539 1.30567 0.839375 -0.882068 1.29149 0.890168 -0.902002 1.28458 
0.940919 -0.922037 1.27766 0.990979 -0.943732 1.27045 1.03725 -0.974543 1.26171 
1.07778 -1.01919 1.25063 1.12406 -1.05 1.24189 1.17412 -1.07169 1.23468 
1.22487 -1.09173 1.22775 1.27566 -1.11166 1.22084 1.32645 -1.1316 1.21393 
1.37724 -1.15153 1.20702 1.42804 -1.17147 1.20011 1.47883 -1.1914 1.1932 
1.52962 -1.21133 1.18629 1.58041 -1.23127 1.17938 1.63121 -1.2512 1.17247 
1.682 -1.27114 1.16556 1.73279 -1.29107 1.15865 1.78358 -1.31101 1.15174 
1.83438 -1.33094 1.14483 1.88517 -1.35087 1.13792 1.93592 -1.37091 1.131 
1.98602 -1.3925 1.12381 2.03263 -1.42006 1.10811 2.07715 -1.44773 1.07741 
2.13588 -1.43137 1.02414 2.20092 -1.39246 0.95218 2.26268 -1.35651 0.864739 
2.31897 -1.33868 0.789222 2.37808 -1.31894 0.729026 2.43611 -1.30673 0.68256 
2.49966 -1.27631 0.624163 2.56547 -1.23553 0.552516 2.62721 -1.19935 0.46512 
2.68244 -1.17906 0.390144 2.73507 -1.14412 0.333279 2.77835 -1.09739 0.29438 
2.83585 -1.05318 0.246577 2.90192 -1.01415 0.197246 2.96632 -0.986304 0.153423 
3.02585 -0.975101 0.121781 3.08935 -0.949365 0.092715 3.14475 -0.907383 0.0521678 
3.17495 -0.851115 0.000778334 5.48202 1.32139 -0.707477 5.53265 1.27653 -0.643626 
5.5762 1.22196 -0.6039 5.62479 1.17954 -0.562125 5.67334 1.13703 -0.520356 
5.71568 1.08201 -0.488206 5.75844 1.03292 -0.470044 5.79586 0.968519 -0.446963 
5.83498 0.8984 -0.39487 5.88135 0.833982 -0.307335 5.92617 0.75341 -0.209224 
5.98781 0.6669 -0.120832 6.61064 1.18051 -0.840352 6.58425 1.11722 -0.764103 
6.55498 1.05356 -0.676408 6.50263 1.00273 -0.60374 6.44873 0.956875 -0.556471 
6.45581 0.831089 -0.452751 6.50206 0.766139 -0.362293 6.54041 0.689327 -0.281206 
6.56401 0.612642 -0.22945 6.57064 0.546852 -0.212349 6.34548 0.869551 -0.499143 
6.27804 0.825669 -0.431027 6.21332 0.771097 -0.321312 6.15151 0.695397 -0.185618 
6.00161 0.526354 -0.0354936 5.94523 0.4776 -0.0370117 5.89413 0.436818 -0.0372934 
5.85033 0.392583 -0.0250915 5.79413 0.348789 0.0151625 5.73764 0.301277 0.0698265 
5.68736 0.241731 0.129338 4.85334 0.0772606 0.0115806 4.92498 0.107514 0.0131312 
4.99662 0.137767 0.0146816 5.06822 0.16792 0.0162153 5.13913 0.196412 0.0174689 
5.20621 0.215688 0.0171688 5.26685 0.21947 0.0142568 5.32941 0.227869 0.0121231 
5.3898 0.228394 0.0161567 5.45484 0.22943 0.0426814 5.52441 0.208695 0.102504 
5.63293 0.093871 0.172017 5.62927 0.0320341 0.160269 5.62314 -0.0234173 0.142345 
5.63933 -0.0857178 0.114203 5.6642 -0.150146 0.0775681 5.68071 -0.213763 0.0567028 
5.6733 -0.270455 0.0537369 5.65733 -0.32626 0.0665673 5.64702 -0.384283 0.0786289 
5.64049 -0.446144 0.104841 5.59746 -0.496564 0.165684 5.54046 -0.533787 0.260162 
5.49067 -0.546338 0.366533 
LINES 29 421
6 28 29 30 31 32 26 
4 27 33 34 24 
16 24 52 53 54 55 56 57 58 59 60 61 62 63 64 65 21 
7 24 66 67 68 69 70 14 
20 23 71 72 73 74 75 76 77 78 79 80 81 82 83 84 85 86 87 88 20 
21 23 89 90 91 92 93 94 95 96 97 98 99 100 101 102 103 104 105 106 107 22 
17 22 108 109 110 111 112 113 114 115 116 117 118 119 120 121 122 19 
7 21 123 124 125 126 127 16 
10 21 128 129 130 131 132 133 134 135 17 
15 20 136 137 138 139 140 141 142 143 144 145 146 147 148 18 
11 20 149 150 151 152 153 154 155 156 157 8 
11 14 158 159 160 161 162 163 164 165 166 11 
3 18 167 12 
4 18 168 169 8 
7 17 170 171 172 173 174 16 
11 17 175 176 177 178 179 180 181 182 183 13 
12 16 184 185 186 187 188 189 190 191 192 193 11 
3 15 194 11 
13 12 200 201 202 203 204 205 206 207 208 209 210 6 
6 12 211 212 213 214 8 
91 8 215 216 217 218 219 220 221 222 223 224 225 226 227 228 229 230 231 232 233 234 235 236 237 238 239 240 241 242 243 244 245 246 247 248 249 250 251 252 253 254 255 256 257 258 259 260 261 262 263 264 265 266 267 268 269 270 271 272 273 274 275 276 277 278 279 280 281 282 283 284 285 286 287 288 289 290 291 292 293 294 295 296 297 298 299 300 301 302 303 4 
14 10 304 305 306 307 308 309 310 311 312 313 314 315 1 
7 7 321 322 323 324 325 5 
6 7 326 327 328 329 1 
9 1 330 331 332 333 334 335 336 2 
13 3 337 338 339 340 341 342 343 344 345 346 347 2 
15 2 348 349 350 351 352 353 354 355 356 357 358 359 360 0 
20 22 41 40 39 38 37 36 35 25 42 43 44 45 46 47 48 49 50 51 23 
13 14 195 196 197 198 199 9 316 317 318 319 320 7 

POINT_DATA 361
SCALARS DY_raw double
LOOKUP_TABLE default
238.534 250.009 215.648 138.428 49.8691 155.098 0 199.461 62.3044 
329.175 90.6992 173.324 76.0909 116.073 216.564 198.283 202.164 182.076 
100.669 130.33 90.6109 193.594 63.3504 85.0688 176.096 53.7093 90.8395 
208.939 62.1277 48.3682 64.2242 70.2144 95.3596 183.321 180.928 53.2088 
83.4274 107.502 103.194 77.7316 68.847 74.3885 47.8144 63.9828 78.2091 
66.8087 67.5459 65.0798 66.2567 74.3158 82.9112 78.571 168.651 167.02 
178.114 211.122 220.431 189.705 197.954 197.954 196.109 222.971 218.995 
187.58 178.479 182.738 180.657 158.328 150.294 172.212 186.855 96.2466 
90.9268 82.0073 82.2734 90.5002 85.6236 81.2419 85.2384 98.9611 98.9611 
98.6094 83.034 76.5807 87.6069 93.2023 84.5064 78.5864 77.2149 94.3439 
91.8748 71.938 65.2156 57.4251 64.7117 64.7117 68.0358 67.3064 67.3064 
83.5511 83.51 83.51 97.5085 97.5085 87.6368 81.3134 81.3134 76.1197 
85.4177 91.3528 93.0839 93.0839 67.2029 59.7151 59.7151 41.0412 58.5698 
63.121 76.295 76.295 90.8963 103.619 103.619 176.337 178.885 195.135 
218.903 187.5 207.835 235.124 260.803 227.511 220.784 233.645 200.558 
197.292 52.4208 47.787 49.5286 60.5226 60.5226 60.9086 59.9656 59.9656 
58.1557 57.6934 64.3227 51.5999 56.0259 62.7589 78.2308 60.164 76.4821 
70.009 91.2703 78.4863 84.7733 82.456 197.03 212.042 208.433 211.05 
216.334 240.178 258.598 238.183 202.807 92.9014 97.069 67.672 185.593 
183.18 153.562 165.621 175.936 186.048 206.516 191.158 167.669 167.669 
146.361 156.909 156.909 129.028 222.456 226.181 206.937 177.623 179.64 
191.844 210.912 181.376 180.324 156.759 167.477 209.444 224.846 253.967 
303.399 322.33 56.1213 48.3633 43.9861 46.51 80.7081 82.9322 81.7113 
83.8584 95.8214 66.1578 25.4358 60.4148 46.8812 50.638 57.4015 74.5967 
58.0408 49.5084 42.3357 43.9922 48.0647 47.6478 51.1952 55.5849 75.3709 
88.371 76.6415 85.3287 83.3877 82.7508 58.7492 60.3687 92.2987 118.876 
120.898 123.739 125.797 116.101 123.128 143.388 144.797 130.42 74.7524 
63.3627 63.1614 69.0828 56.2712 56.2712 53.3376 45.2297 54.5048 56.4792 
54.1749 46.8745 51.7641 46.0778 44.6959 50.0477 42.4271 57.8178 113.96 
125.287 125.287 132.362 127.972 127.972 108.872 94.2914 94.2914 90.2158 
90.2158 76.1835 57.4474 57.4474 59.7104 67.3142 67.3142 69.9419 80.3546 
80.3546 83.7296 84.9213 84.9213 81.5459 81.5459 90.6252 74.5575 80.9722 
69.8303 51.7507 48.5291 44.4897 31.5929 30.9692 33.4603 39.0297 49.2624 
50.1802 53.5548 42.0015 50.6479 55.5198 75.4594 77.1371 132.273 156.351 
178.269 161.336 181.507 206.87 210.442 259.074 283.806 260.609 239.088 
292.009 363.798 328.88 315.903 254.131 256.563 203.8 180.201 179.005 
165.943 155.098 152.275 148.49 175.292 261.572 245.529 219.777 197.497 
197.55 160.597 182.147 190.447 138.428 178.609 155.876 160.415 171.988 
178.821 207.374 170.442 165.03 173.64 189.541 210.348 208.112 216.705 
243.638 210.827 244.746 207.368 262.757 238.613 226.735 222.78 227.913 
229.696 
FIELD FieldData 7
DY_minmax 1 361 double
0.655677 0.687219 0.592768 0.380507 0.137079 0.426329 0 0.548273 0.171261 
0.904829 0.249312 0.476429 0.209157 0.319059 0.595286 0.545035 0.555705 0.500486 
0.276718 0.358248 0.249069 0.532147 0.174136 0.233835 0.484048 0.147635 0.249698 
0.574328 0.170775 0.132954 0.176538 0.193004 0.262123 0.50391 0.497331 0.146259 
0.229324 0.295499 0.283658 0.213667 0.189245 0.204478 0.131431 0.175875 0.21498 
0.183642 0.185669 0.17889 0.182125 0.204278 0.227905 0.215974 0.463583 0.4591 
0.489596 0.580328 0.605918 0.521456 0.544133 0.544133 0.539059 0.612897 0.601969 
0.515616 0.4906 0.502306 0.496585 0.435208 0.413125 0.473373 0.513622 0.264561 
0.249938 0.22542 0.226151 0.248765 0.235361 0.223316 0.234302 0.272022 0.272022 
0.271056 0.228242 0.210503 0.240812 0.256193 0.23229 0.216017 0.212247 0.259331 
0.252544 0.197742 0.179263 0.157849 0.177878 0.177878 0.187015 0.185011 0.185011 
0.229664 0.229551 0.229551 0.268029 0.268029 0.240894 0.223513 0.223513 0.209236 
0.234794 0.251109 0.255867 0.255867 0.184726 0.164144 0.164144 0.112813 0.160996 
0.173506 0.209718 0.209718 0.249854 0.284826 0.284826 0.48471 0.491714 0.536384 
0.601717 0.515396 0.571294 0.646304 0.716889 0.625379 0.606886 0.64224 0.55129 
0.542312 0.144093 0.131356 0.136143 0.166363 0.166363 0.167424 0.164832 0.164832 
0.159857 0.158586 0.176809 0.141837 0.154003 0.17251 0.215039 0.165378 0.210232 
0.192439 0.250882 0.215741 0.233023 0.226654 0.541591 0.582856 0.572937 0.580129 
0.594655 0.660198 0.710829 0.654711 0.557472 0.255366 0.266821 0.186015 0.510154 
0.503521 0.422108 0.455255 0.48361 0.511405 0.567667 0.52545 0.460886 0.460886 
0.402314 0.431309 0.431309 0.35467 0.611482 0.621723 0.568824 0.488247 0.493789 
0.527337 0.57975 0.498563 0.495672 0.430897 0.460356 0.575716 0.618051 0.698099 
0.833977 0.886013 0.154265 0.13294 0.120908 0.127846 0.221849 0.227962 0.224606 
0.230508 0.263392 0.181853 0.0699174 0.166067 0.128866 0.139193 0.157784 0.20505 
0.159541 0.136088 0.116371 0.120925 0.132119 0.130973 0.140724 0.152791 0.207178 
0.242913 0.21067 0.23455 0.229214 0.227464 0.161489 0.16594 0.253709 0.326763 
0.332322 0.340131 0.345788 0.319135 0.338451 0.394142 0.398015 0.358497 0.205478 
0.17417 0.173617 0.189893 0.154677 0.154677 0.146613 0.124326 0.149822 0.155249 
0.148915 0.128848 0.142288 0.126658 0.122859 0.13757 0.116623 0.158928 0.313251 
0.344386 0.344386 0.363834 0.351768 0.351768 0.299264 0.259186 0.259186 0.247983 
0.247983 0.209412 0.15791 0.15791 0.164131 0.185032 0.185032 0.192255 0.220877 
0.220877 0.230154 0.23343 0.23343 0.224152 0.224152 0.249109 0.204942 0.222575 
0.191948 0.142251 0.133396 0.122292 0.0868419 0.0851276 0.0919751 0.107284 0.135412 
0.137934 0.14721 0.115453 0.13922 0.152612 0.207421 0.212033 0.363589 0.429775 
0.490024 0.443476 0.498923 0.568641 0.578458 0.712137 0.780119 0.716357 0.6572 
0.80267 1 0.90402 0.868347 0.69855 0.705236 0.560201 0.495332 0.492044 
0.456142 0.426329 0.418571 0.408166 0.481839 0.719003 0.674904 0.604117 0.542876 
0.54302 0.441445 0.500683 0.523497 0.380507 0.490957 0.428468 0.440946 0.472759 
0.49154 0.570026 0.468507 0.453632 0.477299 0.521007 0.578201 0.572055 0.595675 
0.669707 0.579516 0.672754 0.57001 0.722262 0.655894 0.623244 0.612372 0.626483 
0.631384 
WidthEq 1 361 double
1.05964 2.06441 2.1326 1.70992 1.50294 2.53395 1.13556 3.56401 2.92949 
2.43989 2.57191 3.1065 3.08736 1.38792 3.0077 2.57879 3.31067 2.44909 
2.76748 1 2.29156 3.3375 1.97931 1.97863 3.15312 1.49267 1.02885 
1.07285 1.29588 1.32546 1.40554 1.20517 1.04499 1.67733 2.44208 1.40691 
1.41896 1.36109 1.50357 1.3903 1.86747 2.05193 1.35984 1.35505 1.39357 
1.27483 1.39017 1.34804 1.43759 1.66156 1.83799 2.00048 3.25685 3.17514 
3.07337 3.0822 3.09198 3.61146 3.78072 3.78072 3.41918 3.18863 3.15564 
3.43949 3.52461 3.57874 2.89538 2.80886 3.06639 3.18183 3.74671 1.97139 
1.8847 1.71497 1.62689 1.67359 1.86502 2.10027 2.19643 2.2816 2.2816 
2.34471 2.57015 2.55887 2.55197 2.53352 2.67435 2.6497 2.57062 1.63911 
1.38852 1.33337 1.45916 1.61619 1.63649 1.63649 1.55139 1.50847 1.50847 
1.4019 1.41935 1.41935 1.40624 1.40624 1.60789 1.82061 1.82061 2.07292 
1.90476 1.70373 1.60414 1.60414 1.43699 1.41572 1.41572 1.42345 1.3384 
1.39589 1.5364 1.5364 1.55111 1.44906 1.44906 3.23626 3.18049 3.19921 
3.20932 3.73696 3.55094 3.23599 2.82482 2.5637 2.32766 2.4705 2.43501 
2.61516 2.30824 2.45046 2.23568 2.01313 2.01313 1.93667 2.04067 2.04067 
1.90231 2.20129 2.13486 2.38702 2.71946 1.96801 1.6459 1.73027 1.75008 
1.62465 1.74449 2.49139 2.78755 2.74995 3.55698 3.39679 3.15132 2.98707 
2.87999 2.73255 2.60598 2.78278 3.05601 2.83365 2.82768 2.94642 2.65355 
2.57163 3.38378 3.57449 3.92131 2.22378 2.13911 2.13243 2.0306 2.0306 
2.00791 2.15271 2.15271 1.85153 3.23489 2.63709 2.63974 2.81286 2.84843 
2.69057 2.67989 3.17076 3.21177 3.16141 2.99027 3.50828 3.41995 3.08001 
2.51781 2.44082 3.35185 3.29713 3.25603 2.5874 2.17549 2.13439 2.41117 
2.41157 2.20264 1.58772 1.21011 2.89697 2.90756 3.16146 3.19016 2.50896 
1.99946 1.87625 2.02359 2.13447 1.91117 2.17093 2.24845 2.18225 2.41924 
2.16723 2.36974 2.62713 2.68133 2.43587 2.5614 2.37424 1.61389 1.36336 
1.46107 1.24415 1.42221 1.34806 1.17155 1.06404 1.16715 1.12996 1.20906 
1.33075 1.53337 1.63557 1.65378 1.65378 1.57225 1.40461 1.39713 1.44655 
1.44679 1.34721 1.38706 1.34121 1.28692 1.28937 1.30553 1.2574 1.1662 
1.17658 1.17658 1.194 1.22073 1.22073 1.28436 1.34869 1.34869 1.41827 
1.41827 1.40175 1.36577 1.36577 1.30379 1.24075 1.24075 1.22344 1.29053 
1.29053 1.46257 1.49126 1.49126 1.61627 1.61627 1.65241 1.66717 1.71392 
1.72103 1.78123 1.87434 1.86605 1.77635 2.04009 2.13327 2.13888 2.09084 
1.99182 2.04426 2.09421 2.11282 2.10628 1.86418 1.70696 2.73813 2.52477 
2.4647 2.04121 1.76649 1.68966 1.56594 1.50432 1.56967 2.1175 2.35804 
2.17024 2.32519 2.71944 2.97405 3.5865 3.4006 3.51502 3.4713 3.19863 
2.90653 2.53395 3.52789 3.33194 2.76059 2.21373 2.07068 2.0368 1.92094 
1.7791 1.92794 2.0199 2.17987 1.70992 1.72589 1.72073 1.71068 1.58278 
1.50256 1.39308 1.52832 1.65327 1.88182 2.07818 2.10313 2.02568 1.6989 
1.43914 1.59833 1.4296 1.71063 1.42702 1.62837 1.74662 1.8341 1.48473 
1.20202 
rRFP 1 361 double
2780.51 3317.6 3354.05 3128.11 3017.47 3568.59 2821.09 4119.2 3780.02 
3518.31 3588.88 3874.64 3864.41 2955.99 3821.83 3592.56 3983.78 3523.23 
3693.42 2748.63 3439.02 3998.12 3272.11 3271.75 3899.56 3011.98 2764.05 
2787.57 2906.79 2922.6 2965.41 2858.3 2772.68 3110.69 3519.48 2966.14 
2972.58 2941.65 3017.81 2957.26 3212.33 3310.93 2940.98 2938.42 2959.01 
2895.54 2957.19 2934.67 2982.54 3102.26 3196.57 3283.43 3955.01 3911.33 
3856.93 3861.65 3866.88 4144.56 4235.04 4235.04 4041.78 3918.54 3900.91 
4052.64 4098.14 4127.07 3761.79 3715.54 3853.2 3914.91 4216.86 3267.88 
3221.54 3130.81 3083.73 3108.69 3211.02 3336.77 3388.17 3433.7 3433.7 
3467.43 3587.94 3581.91 3578.22 3568.36 3643.64 3630.46 3588.19 3090.26 
2956.31 2926.83 2994.07 3078.01 3088.86 3088.86 3043.37 3020.43 3020.43 
2963.46 2972.79 2972.79 2965.78 2965.78 3073.57 3187.28 3187.28 3322.15 
3232.26 3124.8 3071.57 3071.57 2982.22 2970.85 2970.85 2974.98 2929.52 
2960.25 3035.36 3035.36 3043.22 2988.67 2988.67 3944 3914.19 3924.2 
3929.6 4211.65 4112.21 3943.86 3724.07 3584.49 3458.32 3534.67 3515.7 
3612 3447.94 3523.96 3409.15 3290.19 3290.19 3249.32 3304.91 3304.91 
3230.95 3390.77 3355.26 3490.05 3667.75 3266.07 3093.89 3138.99 3149.58 
3082.53 3146.59 3545.84 3704.15 3684.05 4115.44 4029.81 3898.6 3810.8 
3753.56 3674.75 3607.09 3701.6 3847.65 3728.79 3725.6 3789.07 3632.52 
3588.73 4022.86 4124.8 4310.19 3402.79 3357.53 3353.96 3299.53 3299.53 
3287.4 3364.8 3364.8 3203.81 3943.27 3623.72 3625.14 3717.68 3736.69 
3652.31 3646.6 3908.99 3930.91 3903.99 3812.51 4089.41 4042.19 3860.48 
3559.96 3518.81 4005.79 3976.54 3954.57 3597.16 3376.98 3355.01 3502.96 
3503.17 3391.49 3062.79 2860.94 3762.64 3768.3 3904.02 3919.36 3555.23 
3282.88 3217.02 3295.78 3355.05 3235.69 3374.54 3415.98 3380.59 3507.27 
3372.56 3480.81 3618.4 3647.37 3516.16 3583.26 3483.22 3076.78 2942.86 
2995.09 2879.14 2974.32 2934.68 2840.33 2782.86 2837.98 2818.1 2860.38 
2925.43 3033.74 3088.37 3098.1 3098.1 3054.52 2964.91 2960.91 2987.33 
2987.46 2934.23 2955.53 2931.02 2902 2903.31 2911.95 2886.22 2837.47 
2843.02 2843.02 2852.33 2866.62 2866.62 2900.63 2935.02 2935.02 2972.21 
2972.21 2963.38 2944.15 2944.15 2911.02 2877.32 2877.32 2868.07 2903.93 
2903.93 2995.89 3011.23 3011.23 3078.05 3078.05 3097.37 3105.26 3130.25 
3134.05 3166.23 3216 3211.57 3163.62 3304.6 3354.41 3357.41 3331.73 
3278.8 3306.83 3333.53 3343.48 3339.98 3210.57 3126.53 3677.73 3563.68 
3531.57 3305.2 3158.35 3117.28 3051.15 3018.21 3053.14 3345.98 3474.56 
3374.17 3457 3667.74 3803.84 4131.22 4031.85 4093.01 4069.64 3923.89 
3767.75 3568.59 4099.89 3995.15 3689.74 3397.42 3320.95 3302.84 3240.91 
3165.09 3244.65 3293.81 3379.32 3128.11 3136.65 3133.89 3128.52 3060.15 
3017.27 2958.75 3031.04 3097.83 3220 3324.96 3338.3 3296.9 3122.22 
2983.37 3068.46 2978.27 3128.49 2976.89 3084.52 3147.73 3194.49 3007.74 
2856.62 
rGFP 1 361 double
2627.44 2890.8 2834.57 2611.38 2449.63 2767.69 2374.68 3085.56 2557.2 
3177.83 2607.95 2913.11 2609.6 2535.78 3026.04 2886.01 3043.98 2820.6 
2653.28 2505.01 2582.32 3020.8 2500.07 2543 2929.93 2454.85 2468.14 
2598.84 2455.19 2438.79 2464.95 2459.3 2474.33 2682.17 2816.52 2449.54 
2493.06 2521 2529.84 2482.75 2503.25 2527.32 2439.7 2461.38 2483.67 
2459.85 2468.58 2462.41 2469.93 2498.16 2527.07 2531.86 2923.95 2904.99 
2922.09 3025.4 3056.25 3059.79 3123.09 3123.09 3045.21 3085.65 3065.75 
3019.86 3003.75 3028.65 2897.75 2819.4 2835.54 2922.63 3074.77 2564.42 
2546.05 2515.32 2508.53 2526.14 2534.37 2545.31 2561.9 2600.47 2600.47 
2605.89 2588.09 2570.64 2598.25 2610.81 2600.68 2582.91 2573.17 2529.32 
2502.25 2470.6 2469.84 2467.49 2480.58 2480.58 2480.23 2476.21 2476.21 
2491.81 2493.21 2493.21 2511.8 2511.8 2515.59 2522.72 2522.72 2532.47 
2537.38 2530.32 2524 2524 2471.25 2459.22 2459.22 2433.1 2453.07 
2462.79 2491.9 2491.9 2515.67 2524.83 2524.83 2945.35 2943.62 2998.96 
3077.21 3075.36 3112.69 3135.54 3111.4 2957.95 2888.59 2951.9 2863.04 
2890.63 2495.68 2491.78 2485.41 2496.52 2496.52 2492.64 2497.05 2497.05 
2485.31 2501.68 2512 2497.85 2527.04 2498.19 2503.44 2478.78 2508.53 
2488.42 2533.9 2570.22 2610.99 2601.43 3075.51 3094.94 3031.52 3005.1 
2997.72 3030.98 3048.58 3037.49 2994.46 2637.93 2649.16 2574.07 2867.16 
2845.75 2894.3 2966.69 3064.58 2788.41 2816.44 2782.31 2715.15 2715.15 
2668.56 2712.46 2712.46 2613.58 3094.3 2971.14 2920.94 2874.31 2886.37 
2890.85 2939.9 2949.78 2953.84 2870.26 2875.48 3109.47 3143.64 3156.9 
3138.58 3161.43 2562.79 2534.14 2517.9 2495.02 2550.26 2551.69 2571.7 
2576.91 2585.74 2479.72 2405.46 2549.7 2510.99 2534.77 2557.8 2561.84 
2490.73 2467.57 2460.35 2468.58 2466.54 2478.12 2489.79 2495.98 2557.02 
2566.2 2556.3 2598.85 2598.27 2576.25 2525.16 2518.01 2523.64 2536.75 
2551.32 2528.63 2553.59 2531.19 2518.93 2527.25 2543.68 2522.05 2465.06 
2459 2471.53 2487.67 2467.74 2467.74 2458.54 2438.21 2450.83 2456.38 
2453.06 2437.83 2446.48 2436.48 2432.2 2439.21 2430.07 2447.38 2507.58 
2522.09 2522.09 2532.72 2530.9 2530.9 2514.51 2501.85 2501.85 2502.63 
2502.63 2481.47 2453.14 2453.14 2452.53 2458.2 2458.2 2460.25 2478.38 
2478.38 2497.14 2501.32 2501.32 2506.48 2506.48 2524.43 2498.98 2513.46 
2494.86 2466.86 2465.64 2457.7 2430.8 2437.86 2446.06 2458.16 2477.68 
2474.63 2484.16 2462.64 2481.69 2491.62 2515.35 2506.35 2736.86 2769.43 
2814.06 2704 2695.31 2724.22 2704.22 2764.41 2820.16 2926.52 2938.46 
3008.41 3220.58 3269.05 3314.19 3286.12 3247.15 3091.04 3000.21 2947.25 
2857 2767.69 2911.89 2869.44 2858.59 2953.73 2883.09 2822.32 2754.06 
2726.14 2684.3 2742.6 2789.83 2611.38 2682.94 2642.9 2649.1 2646.9 
2643.37 2663.57 2635.17 2647.52 2701.44 2768.58 2817.07 2796.25 2742.84 
2725.31 2711.65 2724.57 2729.41 2749.64 2763.23 2770.7 2783.28 2713.07 
2650.78 
bkstRFP 1 361 double
566.421 1103.51 1139.96 914.021 803.381 1354.5 607.001 1905.11 1565.93 
1304.22 1374.79 1660.55 1650.32 741.901 1607.74 1378.47 1769.69 1309.14 
1479.33 534.541 1224.93 1784.03 1058.02 1057.66 1685.47 797.891 549.961 
573.481 692.701 708.511 751.321 644.211 558.591 896.601 1305.39 752.051 
758.491 727.561 803.721 743.171 998.241 1096.84 726.891 724.331 744.921 
681.451 743.101 720.581 768.451 888.171 982.481 1069.34 1740.92 1697.24 
1642.84 1647.56 1652.79 1930.47 2020.95 2020.95 1827.69 1704.45 1686.82 
1838.55 1884.05 1912.98 1547.7 1501.45 1639.11 1700.82 2002.77 1053.79 
1007.45 916.721 869.641 894.601 996.931 1122.68 1174.08 1219.61 1219.61 
1253.34 1373.85 1367.82 1364.13 1354.27 1429.55 1416.37 1374.1 876.171 
742.221 712.741 779.981 863.921 874.771 874.771 829.281 806.341 806.341 
749.371 758.701 758.701 751.691 751.691 859.481 973.191 973.191 1108.06 
1018.17 910.711 857.481 857.481 768.131 756.761 756.761 760.891 715.431 
746.161 821.271 821.271 829.131 774.581 774.581 1729.91 1700.1 1710.11 
1715.51 1997.56 1898.12 1729.77 1509.98 1370.4 1244.23 1320.58 1301.61 
1397.91 1233.85 1309.87 1195.06 1076.1 1076.1 1035.23 1090.82 1090.82 
1016.86 1176.68 1141.17 1275.96 1453.66 1051.98 879.801 924.901 935.491 
868.441 932.501 1331.75 1490.06 1469.96 1901.35 1815.72 1684.51 1596.71 
1539.47 1460.66 1393 1487.51 1633.56 1514.7 1511.51 1574.98 1418.43 
1374.64 1808.77 1910.71 2096.1 1188.7 1143.44 1139.87 1085.44 1085.44 
1073.31 1150.71 1150.71 989.721 1729.18 1409.63 1411.05 1503.59 1522.6 
1438.22 1432.51 1694.9 1716.82 1689.9 1598.42 1875.32 1828.1 1646.39 
1345.87 1304.72 1791.7 1762.45 1740.48 1383.07 1162.89 1140.92 1288.87 
1289.08 1177.4 848.701 646.851 1548.55 1554.21 1689.93 1705.27 1341.14 
1068.79 1002.93 1081.69 1140.96 1021.6 1160.45 1201.89 1166.5 1293.18 
1158.47 1266.72 1404.31 1433.28 1302.07 1369.17 1269.13 862.691 728.771 
781.001 665.051 760.231 720.591 626.241 568.771 623.891 604.011 646.291 
711.341 819.651 874.281 884.011 884.011 840.431 750.821 746.821 773.241 
773.371 720.141 741.441 716.931 687.911 689.221 697.861 672.131 623.381 
628.931 628.931 638.241 652.531 652.531 686.541 720.931 720.931 758.121 
758.121 749.291 730.061 730.061 696.931 663.231 663.231 653.981 689.841 
689.841 781.801 797.141 797.141 863.961 863.961 883.281 891.171 916.161 
919.961 952.141 1001.91 997.481 949.531 1090.51 1140.32 1143.32 1117.64 
1064.71 1092.74 1119.44 1129.39 1125.89 996.481 912.441 1463.64 1349.59 
1317.48 1091.11 944.261 903.191 837.061 804.121 839.051 1131.89 1260.47 
1160.08 1242.91 1453.65 1589.75 1917.13 1817.76 1878.92 1855.55 1709.8 
1553.66 1354.5 1885.8 1781.06 1475.65 1183.33 1106.86 1088.75 1026.82 
951.001 1030.56 1079.72 1165.23 914.021 922.561 919.801 914.431 846.061 
803.181 744.661 816.951 883.741 1005.91 1110.87 1124.21 1082.81 908.131 
769.281 854.371 764.181 914.401 762.801 870.431 933.641 980.401 793.651 
642.531 
bkstGFP 1 361 double
252.76 516.12 459.89 236.7 74.95 393.01 0 710.88 182.52 
803.15 233.27 538.43 234.92 161.1 651.36 511.33 669.3 445.92 
278.6 130.33 207.64 646.12 125.39 168.32 555.25 80.17 93.46 
224.16 80.51 64.11 90.27 84.62 99.65 307.49 441.84 74.86 
118.38 146.32 155.16 108.07 128.57 152.64 65.02 86.7 108.99 
85.17 93.9 87.73 95.25 123.48 152.39 157.18 549.27 530.31 
547.41 650.72 681.57 685.11 748.41 748.41 670.53 710.97 691.07 
645.18 629.07 653.97 523.07 444.72 460.86 547.95 700.09 189.74 
171.37 140.64 133.85 151.46 159.69 170.63 187.22 225.79 225.79 
231.21 213.41 195.96 223.57 236.13 226 208.23 198.49 154.64 
127.57 95.92 95.16 92.81 105.9 105.9 105.55 101.53 101.53 
117.13 118.53 118.53 137.12 137.12 140.91 148.04 148.04 157.79 
162.7 155.64 149.32 149.32 96.57 84.54 84.54 58.42 78.39 
88.11 117.22 117.22 140.99 150.15 150.15 570.67 568.94 624.28 