# vtk DataFile Version 3.0
vtk output
ASCII
DATASET POLYDATA
POINTS 307 float
-0.201382 -0.213204 0.962795 1.47661 1.47172 0.798464 -0.604351 -0.33292 0.339109 
-0.264948 1.19347 0.292449 -0.431341 1.15197 0.0155742 0.0821954 -1.30347 0.228931 
0.280521 -1.80624 0.2652 -0.408894 -0.586263 -0.238159 -0.344527 -0.903284 -0.28627 
1.03437 -2.49062 -0.388571 1.62503 -2.80725 -0.33434 -0.714524 0.61855 -0.714963 
-0.674805 -1.0328 -0.637059 0.407659 1.82195 -1.09548 3.53397 0.433606 -0.821537 
2.81377 -2.62608 -0.931351 5.85638 -1.02888 -0.932828 3.26308 -2.28576 -1.11723 
3.62623 -1.49355 -1.12885 3.62974 -1.84198 -1.11274 3.74521 -1.27828 -1.13064 
6.25086 -0.900668 -0.978974 3.8024 -1.65856 -1.37701 6.70524 -0.872177 -1.15031 
3.75444 -1.73596 -1.33708 3.69553 -1.79406 -1.24922 6.64842 -0.868665 -1.12457 
6.59011 -0.864145 -1.07669 6.53031 -0.858616 -1.00664 6.47001 -0.85275 -0.929225 
6.4117 -0.848339 -0.881335 6.35629 -0.847874 -0.877656 6.30336 -0.861224 -0.917777 
3.86674 -1.59173 -1.34351 3.90129 -1.53255 -1.32159 3.88803 -1.47557 -1.30773 
3.86382 -1.41753 -1.2798 3.81453 -1.35312 -1.21917 3.71062 -1.57601 -1.25565 
6.1918 -0.841485 -0.889032 6.13416 -0.797253 -0.828052 6.07742 -0.791815 -0.802395 
6.02095 -0.816334 -0.79765 5.96547 -0.8402 -0.805258 5.91212 -0.883261 -0.826707 
5.87146 -0.945856 -0.871193 6.19171 -0.952057 -0.950891 6.13406 -1.00435 -0.94496 
6.07772 -1.05546 -0.95882 6.01957 -1.09168 -0.966045 5.95012 -1.08379 -0.956216 
5.76206 -1.09237 -0.968499 5.69297 -1.13624 -0.99345 5.63615 -1.14906 -1.00661 
5.5813 -1.14907 -1.01278 5.52696 -1.14735 -1.02396 5.47363 -1.14619 -1.0499 
5.42179 -1.14604 -1.09798 5.37045 -1.14623 -1.15347 5.3186 -1.14608 -1.20156 
5.26527 -1.14493 -1.2275 5.21144 -1.14343 -1.24606 5.15811 -1.14228 -1.272 
5.10627 -1.14213 -1.32009 5.05542 -1.14265 -1.38295 5.00458 -1.14307 -1.44581 
4.95232 -1.14066 -1.4866 4.898 -1.12658 -1.49091 4.84184 -1.09561 -1.45894 
4.78412 -1.07726 -1.41164 4.7264 -1.0588 -1.36435 4.67032 -1.02589 -1.33247 
4.61451 -0.998581 -1.30775 4.55993 -0.966676 -1.29802 4.50519 -0.950238 -1.29502 
4.45096 -0.934137 -1.29941 4.39737 -0.902904 -1.30445 4.34355 -0.876941 -1.30926 
4.28995 -0.845928 -1.31428 4.23505 -0.833453 -1.31112 4.17823 -0.842177 -1.29225 
4.11876 -0.876922 -1.25009 4.05871 -0.913357 -1.20045 3.99983 -0.936948 -1.15875 
3.94361 -0.976851 -1.13843 3.89803 -1.0278 -1.13175 3.86975 -1.08163 -1.1312 
3.83563 -1.13664 -1.131 3.8025 -1.19956 -1.13036 3.67676 -1.345 -1.13221 
3.64622 -1.41264 -1.13119 3.58375 -1.78802 -1.18519 3.54485 -1.73244 -1.21263 
3.52199 -1.67555 -1.19447 3.50812 -1.61775 -1.16088 3.54728 -1.55874 -1.13863 
3.61294 -1.89726 -1.13365 3.5686 -1.94986 -1.11938 3.5095 -1.99999 -1.06162 
3.44858 -2.05004 -1.00399 3.39132 -2.10154 -0.975778 3.34684 -2.15641 -0.998571 
3.31545 -2.217 -1.04995 3.29992 -2.36092 -0.940395 3.30363 -2.41897 -0.788861 
3.28218 -2.4694 -0.669098 3.23554 -2.51914 -0.588226 3.18883 -2.56996 -0.537038 
3.15736 -2.62072 -0.514553 3.11217 -2.65975 -0.508386 3.0591 -2.67377 -0.518759 
3.00536 -2.68463 -0.544179 2.95338 -2.69993 -0.599006 2.90475 -2.68431 -0.684744 
2.8584 -2.66338 -0.800298 3.18221 -2.28558 -1.12269 3.11663 -2.3195 -1.12557 
3.05823 -2.36947 -1.12723 3.00101 -2.42206 -1.12869 2.94346 -2.47446 -1.12274 
2.88635 -2.52593 -1.09452 2.83853 -2.57618 -1.02857 2.7567 -2.67667 -0.932893 
2.70013 -2.71557 -0.934933 2.64463 -2.72938 -0.938044 2.58913 -2.74309 -0.941161 
2.53264 -2.78006 -0.943283 2.47558 -2.81852 -0.937943 2.41808 -2.84301 -0.918408 
2.35853 -2.87978 -0.87616 2.29856 -2.9144 -0.826593 2.24008 -2.92588 -0.785424 
2.18276 -2.93438 -0.759173 2.1253 -2.94609 -0.732784 2.06813 -2.92678 -0.69293 
2.00974 -2.91195 -0.638084 1.95051 -2.90494 -0.575505 1.89121 -2.89964 -0.512853 
1.83218 -2.89453 -0.45513 1.77246 -2.88713 -0.404992 1.70622 -2.86413 -0.365917 
3.47442 0.493345 -0.724229 3.41545 0.542549 -0.641261 3.35682 0.575848 -0.572404 
3.29926 0.622106 -0.511511 3.2417 0.668265 -0.450603 3.18349 0.699192 -0.389045 
3.12592 0.733216 -0.335018 3.06821 0.75178 -0.287732 3.01107 0.771836 -0.24791 
2.954 0.817648 -0.194387 2.89636 0.874006 -0.126515 2.8373 0.921163 -0.0434695 
2.77817 0.942564 0.0258954 2.72046 0.961129 0.0731815 2.66537 0.993371 0.0902936 
2.61056 1.02001 0.100255 2.55548 1.05225 0.117368 2.49826 1.07037 0.157273 
2.44053 1.08872 0.204578 2.38338 1.12047 0.251301 2.32616 1.13849 0.29121 
2.26844 1.15695 0.338501 2.21136 1.19054 0.385156 2.15456 1.21852 0.42464 
2.09947 1.25065 0.441757 2.04417 1.26561 0.452217 1.98802 1.27274 0.470401 
1.9308 1.29087 0.510306 1.87414 1.33442 0.556535 1.81806 1.37935 0.595295 
1.76276 1.40643 0.612628 1.70824 1.42792 0.61541 1.65271 1.42549 0.619212 
1.5962 1.43618 0.644645 1.53676 1.43816 0.707429 0.340229 1.79248 -0.93518 
0.275777 1.78494 -0.8054 0.213886 1.77743 -0.712621 0.152846 1.7538 -0.641333 
0.0929415 1.73281 -0.584959 0.033309 1.6941 -0.542627 -0.0257567 1.64464 -0.514627 
-0.0849 1.59336 -0.486549 -0.144546 1.54231 -0.451081 -0.203583 1.49091 -0.42299 
-0.258817 1.4381 -0.424307 -0.302489 1.38389 -0.447084 -0.330495 1.32982 -0.448986 
-0.36739 1.27799 -0.377265 -0.397656 1.22192 -0.213252 1.55521 -2.85658 -0.339276 
1.49351 -2.87167 -0.320453 1.43507 -2.87029 -0.282336 1.37788 -2.86658 -0.251685 
1.32264 -2.86215 -0.248176 1.26932 -2.84865 -0.267243 1.21622 -2.81776 -0.279663 
1.1626 -2.78976 -0.284552 1.11152 -2.74478 -0.290044 1.0728 -2.69128 -0.32234 
1.05238 -2.6357 -0.360932 1.03207 -2.57162 -0.387514 1.1131 -2.43696 -0.321308 
1.17543 -2.40724 -0.273864 1.23147 -2.38075 -0.251479 1.28603 -2.38265 -0.242758 
1.3396 -2.41195 -0.237814 1.39141 -2.43977 -0.233055 1.43253 -2.48436 -0.228252 
1.45801 -2.53843 -0.224071 1.49706 -2.59514 -0.223813 1.53769 -2.65394 -0.238211 
1.57018 -2.72135 -0.277547 -0.619974 -1.03486 -0.63327 -0.565066 -1.03509 -0.629559 
-0.510518 -1.02465 -0.613968 -0.457068 -0.994868 -0.562179 -0.403811 -0.961826 -0.448618 
-0.762548 0.633921 -0.778356 -0.802212 0.67694 -0.775554 -0.819745 0.734385 -0.690169 
-0.826872 0.795567 -0.552231 -0.820188 0.856312 -0.413343 -0.784909 0.914978 -0.294727 
-0.735262 0.971382 -0.212201 -0.681784 1.02444 -0.158993 -0.626967 1.06461 -0.129879 
-0.571902 1.08028 -0.0996317 -0.509981 1.10024 -0.0517713 -0.723434 0.568026 -0.616644 
-0.732664 0.516565 -0.540607 -0.750868 0.464825 -0.480021 -0.785159 0.414353 -0.405718 
-0.805841 0.364295 -0.308213 -0.816565 0.313843 -0.21002 -0.823483 0.261973 -0.141243 
-0.827695 0.208413 -0.109359 -0.828988 0.154106 -0.0921032 -0.818995 0.0996677 -0.0666565 
-0.784947 0.0449136 -0.0247052 -0.75079 -0.00984526 0.0172438 -0.738765 -0.0643629 0.0428411 
-0.72624 -0.119217 0.0610431 -0.690978 -0.174653 0.0882382 -0.655892 -0.228815 0.145091 
-0.636064 -0.281107 0.230569 -0.65117 0.648459 -0.816098 -0.58789 0.640465 -0.937815 
-0.525262 0.592979 -1.07264 -0.464715 0.532678 -1.18472 -0.407349 0.472362 -1.25242 
-0.3544 0.413694 -1.28334 -0.31373 0.355828 -1.30769 -0.297227 0.298283 -1.34855 
-0.282646 0.240815 -1.38954 -0.256391 0.183834 -1.40747 -0.248223 0.129469 -1.38215 
-0.249582 0.0764306 -1.33523 -0.24147 0.0233338 -1.28024 -0.207919 -0.0310843 -1.23092 
-0.174866 -0.085166 -1.1742 -0.167471 -0.137918 -1.11185 -0.174172 -0.189795 -1.04304 
-0.192754 -0.241203 -0.975064 -0.226557 -0.292011 -0.908147 -0.245249 -0.343415 -0.840175 
-0.254589 -0.394872 -0.764146 -0.265034 -0.445652 -0.673353 -0.289243 -0.494621 -0.553842 
-0.342435 -0.541179 -0.406667 0.959525 -2.45339 -0.271453 0.895575 -2.40099 -0.181532 
0.838529 -2.34267 -0.131055 0.783669 -2.28411 -0.102736 0.729682 -2.22603 -0.0867271 
0.675196 -2.16762 -0.063332 0.619716 -2.10854 -0.025176 0.56324 -2.04878 0.0277515 
0.506266 -1.98868 0.0880644 0.449288 -1.9287 0.148382 0.392726 -1.87098 0.201397 
0.336658 -1.82573 0.240143 -0.279313 -0.967086 -0.120416 -0.238651 -1.0226 0.0186238 
-0.217946 -1.07509 0.114072 -0.180832 -1.12733 0.173452 -0.131244 -1.1713 0.201091 
-0.0781263 -1.19907 0.21337 -0.0246204 -1.23234 0.218491 0.0291088 -1.26034 0.223388 
-0.337726 -0.817074 -0.160914 -0.360284 -0.748469 -0.0838108 -0.380978 -0.690876 -0.0779166 
-0.403767 -0.637341 -0.138869 -0.468311 -0.523223 -0.111265 -0.518378 -0.460235 0.0236963 
-0.554228 -0.397176 0.174481 -0.37265 1.1443 0.148703 -0.318798 1.15521 0.241019 
-0.562457 -0.326231 0.534854 -0.518992 -0.318735 0.708374 -0.472618 -0.302948 0.844561 
-0.423108 -0.273612 0.943169 -0.372172 -0.258915 1.01282 -0.318749 -0.245901 1.04556 
-0.261274 -0.221845 1.02604 
LINES 27 364
4 22 24 25 19 
9 23 26 27 28 29 30 31 32 21 
7 22 33 34 35 36 37 20 
3 22 38 18 
9 21 39 40 41 42 43 44 45 16 
7 21 46 47 48 49 50 16 
40 16 51 52 53 54 55 56 57 58 59 60 61 62 63 64 65 66 67 68 69 70 71 72 73 74 75 76 77 78 79 80 81 82 83 84 85 86 87 88 20 
4 20 89 90 18 
7 19 91 92 93 94 95 18 
9 19 96 97 98 99 100 101 102 17 
14 17 103 104 105 106 107 108 109 110 111 112 113 114 15 
9 17 115 116 117 118 119 120 121 15 
21 15 122 123 124 125 126 127 128 129 130 131 132 133 134 135 136 137 138 139 140 10 
37 14 141 142 143 144 145 146 147 148 149 150 151 152 153 154 155 156 157 158 159 160 161 162 163 164 165 166 167 168 169 170 171 172 173 174 175 1 
17 13 176 177 178 179 180 181 182 183 184 185 186 187 188 189 190 4 
14 10 191 192 193 194 195 196 197 198 199 200 201 202 9 
13 9 203 204 205 206 207 208 209 210 211 212 213 10 
7 12 214 215 216 217 218 8 
13 11 219 220 221 222 223 224 225 226 227 228 229 4 
19 11 230 231 232 233 234 235 236 237 238 239 240 241 242 243 244 245 246 2 
26 11 247 248 249 250 251 252 253 254 255 256 257 258 259 260 261 262 263 264 265 266 267 268 269 270 7 
14 9 271 272 273 274 275 276 277 278 279 280 281 282 6 
10 8 283 284 285 286 287 288 289 290 5 
6 8 291 292 293 294 7 
5 7 295 296 297 2 
4 4 298 299 3 
9 2 300 301 302 303 304 305 306 0 

POINT_DATA 307
SCALARS DY_raw double
LOOKUP_TABLE default
76.6305 117.155 83.5124 103.272 129.234 75.4398 94.507 83.0078 66.6781 
58.2065 82.9805 78.3775 130.628 149.315 95.9348 105.544 118.083 92.4838 
94.9515 126.868 101.145 106.346 80.8338 112.25 83.9522 97.4142 85.3495 
95.1521 100.745 87.4367 87.9594 84.5123 84.6306 91.1732 100.128 111.062 
102.046 95.0136 91.8816 105.407 121.299 128.856 134.844 132.25 124.066 
124.993 106.346 126.281 132.329 131.031 122.457 110.966 99.2943 102.29 
121.481 128.377 120.211 131.78 132.372 122.617 111.75 100.781 94.9394 
82.0969 74.0089 69.883 65.9242 65.9242 70.1699 78.3456 82.508 79.2596 
90.3901 90.3114 90.3114 103.264 110.886 122.131 122.131 151.84 178.469 
157.491 169.58 151.551 147.54 133.358 121.733 108.743 103.026 105.907 
96.6489 105.254 96.7598 96.9 90.2914 88.7408 123.169 121.883 133.487 
143.919 105.851 99.3212 89.8907 89.8765 108.008 102.976 105.098 93.7165 
92.833 85.2685 89.6899 70.8957 65.6479 66.8893 87.8519 113.344 126.421 
125.434 117.493 119.43 113.135 88.4883 89.639 91.6511 86.0809 98.381 
92.533 92.533 90.1019 99.1268 92.0902 100.453 83.165 86.4449 78.3962 
82.6875 75.4285 75.5795 82.945 79.788 80.1078 85.1937 78.6166 78.5251 
66.0052 63.8904 63.6161 58.0974 62.3501 59.1902 63.5553 67.4398 77.0429 
73.3844 84.7534 66.1116 62.708 62.708 68.535 69.1358 69.1216 71.114 
71.7269 71.0053 72.9444 76.0297 67.1835 60.8018 62.1843 61.9294 62.6808 
62.4467 59.9532 59.9532 68.8889 89.7499 95.7876 90.796 88.7332 109.814 
103.463 96.4179 91.6908 106.87 106.025 114.09 117.755 127.975 134.905 
140.521 132.864 77.6379 74.8483 77.7789 80.6918 94.4691 91.4044 91.4044 
84.8406 91.5695 87.6227 65.1151 59.5301 69.4587 88.2161 96.1333 94.8765 
98.7014 87.5227 90.4551 91.4314 93.1535 89.1144 84.6934 111.19 111.19 
85.9885 80.4591 77.8428 80.4837 94.3619 99.8648 94.306 101.384 102.432 
105.112 111.474 118.833 132.887 121.469 80.7702 92.4043 97.0958 103.648 
105.065 110.163 120.359 117.95 118.794 102.909 97.5919 85.4917 67.3801 
66.2964 68.5392 78.7922 71.6945 77.6092 71.4006 71.9533 70.3614 65.5101 
68.9151 72.6018 69.9133 66.7705 67.8923 68.9549 67.5785 78.3531 84.0178 
90.2828 87.7188 91.2509 84.8612 72.0938 78.3514 75.6642 79.0429 80.2433 
78.3455 58.7741 81.8374 97.3476 94.5344 93.1635 69.9717 79.8108 82.0883 
86.8216 96.9105 94.2452 94.507 60.8501 57.2928 68.6463 82.3108 89.6879 
81.722 83.3364 84.1289 70.1105 76.0804 80.3116 78.7858 73.3743 74.8642 
78.5624 112.766 103.443 87.3676 109.933 114.312 80.8443 86.2947 86.2947 
81.3743 
FIELD FieldData 7
DY_minmax 1 307 double
0.159583 0.494008 0.216375 0.379441 0.593691 0.149757 0.307107 0.212211 0.0774511 
0.00754029 0.211985 0.174 0.60519 0.759403 0.31889 0.398189 0.501669 0.290411 
0.310775 0.574164 0.361886 0.404811 0.19427 0.45353 0.220005 0.331099 0.231536 
0.312431 0.358587 0.24876 0.253073 0.224626 0.225603 0.279595 0.353491 0.443723 
0.369325 0.311288 0.285441 0.397061 0.528202 0.590571 0.639985 0.618577 0.551044 
0.558689 0.404811 0.56932 0.619227 0.608518 0.537759 0.442934 0.346614 0.371335 
0.529707 0.58662 0.519225 0.614697 0.619584 0.539084 0.449407 0.358881 0.310676 
0.204694 0.137948 0.1039 0.0712302 0.0712302 0.106268 0.173737 0.208086 0.18128 
0.273132 0.272484 0.272484 0.379377 0.442275 0.535068 0.535068 0.780245 1 
0.82688 0.926644 0.777862 0.744754 0.627722 0.531791 0.424589 0.37741 0.401185 
0.324783 0.395798 0.325698 0.326855 0.272318 0.259522 0.54364 0.533028 0.62879 
0.714874 0.400721 0.346836 0.269011 0.268895 0.418522 0.376993 0.394504 0.300583 
0.293293 0.230867 0.267354 0.112257 0.0689499 0.0791943 0.252186 0.462561 0.570472 
0.562327 0.4968 0.512782 0.460835 0.257438 0.266935 0.283539 0.237571 0.339077 
0.290817 0.290817 0.270754 0.345232 0.287163 0.356178 0.213508 0.240575 0.174154 
0.209568 0.149663 0.15091 0.211692 0.18564 0.188279 0.23025 0.175973 0.175218 
0.0718987 0.0544464 0.0521822 0.00664001 0.0417347 0.0156585 0.0516811 0.0837371 0.162986 
0.132794 0.226616 0.0727765 0.0446889 0.0446889 0.0927757 0.0977336 0.0976165 0.114058 
0.119117 0.113161 0.129164 0.154625 0.0816224 0.0289575 0.0403664 0.038263 0.044464 
0.0425319 0.0219551 0.0219551 0.0956954 0.267849 0.317675 0.276482 0.259459 0.433429 
0.381014 0.322877 0.283867 0.409132 0.402158 0.46871 0.498961 0.5833 0.640485 
0.686838 0.623646 0.167897 0.144875 0.16906 0.193098 0.306794 0.281503 0.281503 
0.227336 0.282866 0.250295 0.0645528 0.0184629 0.100398 0.255192 0.320528 0.310156 
0.341721 0.24947 0.273669 0.281726 0.295938 0.262605 0.226121 0.444782 0.444782 
0.236809 0.191178 0.169587 0.191381 0.30591 0.351322 0.305448 0.363855 0.372505 
0.394623 0.447124 0.507855 0.623837 0.529609 0.193745 0.289755 0.328471 0.382544 
0.394234 0.436307 0.520448 0.500571 0.507533 0.376445 0.332565 0.232709 0.0832447 
0.0743013 0.0928103 0.177422 0.118848 0.16766 0.116424 0.120984 0.107847 0.0678122 
0.0959121 0.126336 0.10415 0.0782137 0.0874714 0.0962401 0.0848818 0.173798 0.220546 
0.272247 0.251088 0.280236 0.227506 0.122144 0.173784 0.151609 0.179491 0.189397 
0.173736 0.0122241 0.202552 0.330549 0.307333 0.29602 0.104632 0.185828 0.204623 
0.243684 0.326942 0.304947 0.307107 0.029356 0 0.093694 0.206459 0.267338 
0.2016 0.214923 0.221463 0.105777 0.155043 0.189961 0.177369 0.132711 0.145006 
0.175525 0.457788 0.380854 0.24819 0.43441 0.470542 0.194357 0.239336 0.239336 
0.198731 
WidthEq 1 307 double
3.77422 2.07042 4.72457 4.02954 5.83677 2.5867 3.04591 6.45036 6.62407 
4.80565 4.64471 8.26743 3.52176 1.19975 3.15631 4.51385 2.96663 4.25848 
4.88007 2.59088 4.42553 3.64403 4.17016 1 3.90377 3.50688 2.30898 
2.29737 2.9651 3.90156 3.82211 3.98628 3.98804 3.91771 3.53588 3.3105 
4.0903 4.79805 4.62726 3.67906 2.73977 2.49487 2.44208 2.66004 2.80358 
2.82368 3.64403 3.14259 2.77431 2.735 2.8744 3.23775 3.63576 3.65334 
3.40737 3.41703 3.60392 3.37449 3.12083 3.27858 3.47954 3.75389 4.38785 
4.88191 5.65959 6.18019 6.51839 6.51839 6.52644 5.89005 5.79144 5.84131 
4.78559 4.44739 4.44739 3.52338 3.25857 3.13009 3.13009 2.72938 2.39464 
2.43016 2.14187 2.48727 2.76963 3.20416 3.6492 4.02554 4.32755 4.30821 
4.64475 3.49829 4.00755 4.17915 4.48426 4.81954 2.65334 2.57451 2.69381 
2.49856 3.34886 3.96965 4.31891 4.38268 3.84018 3.78721 3.96308 4.2779 
4.3365 4.67488 4.38834 4.80974 5.03337 5.07136 5.14866 3.76684 3.51889 
3.54825 3.75119 3.49393 3.78361 4.99852 5.54546 5.72704 6.19975 4.87899 
4.94775 4.94775 4.71 4.41344 4.42859 3.80794 4.30241 4.00301 4.26437 
4.19701 5.13135 5.55455 5.49123 5.43277 5.27826 4.64835 5.36757 5.44285 
6.33222 7.03188 6.87845 7.35489 6.8356 6.87157 5.96331 5.83231 4.65105 
4.34697 3.78793 4.78932 4.91069 4.91069 5.04326 4.97846 5.20676 4.72115 
4.68387 4.61444 4.483 4.34041 4.66215 4.84657 4.9482 5.17493 5.26158 
4.75942 4.58958 4.58958 4.13086 2.66463 2.30353 3.70281 4.58013 4.75011 
5.26189 5.20847 5.02482 4.67484 4.54695 4.39725 4.08288 3.93444 4.29904 
4.40773 5.07217 5.20609 5.13198 4.74499 4.39239 3.79405 3.44316 3.44316 
3.31563 3.17398 3.38965 3.90017 4.47958 4.46092 3.5438 3.23676 3.09835 
2.94869 3.32062 3.33713 3.07258 3.01556 3.3494 4.0107 4.57712 4.57712 
6.02406 6.31774 6.56066 8.04151 6.94464 6.37382 7.22457 6.87557 6.55324 
6.28654 5.53197 5.83348 5.62928 6.19467 7.87989 6.18315 5.86235 5.10621 
4.70672 4.2261 3.48075 3.44213 3.3101 3.27745 3.33686 3.48876 3.7471 
4.15694 4.60379 4.82256 5.28325 8.34063 8.50202 7.91694 7.57447 7.17142 
7.08553 6.47284 6.3164 6.1975 5.56057 5.01372 5.07928 4.16269 3.706 
3.43111 3.529 3.4826 3.8213 4.67475 4.60541 5.35259 5.63099 5.65181 
6.45436 5.05886 4.54303 4.09502 4.22471 4.13864 4.29288 4.04169 3.85974 
3.88475 3.68887 3.85929 3.04591 6.28298 5.27152 3.96569 3.25875 3.07388 
3.20416 2.96389 2.67506 6.68046 6.68122 6.79877 7.07424 7.04866 6.19656 
5.45872 6.05643 5.98975 4.76275 4.24885 4.12137 5.28262 5.19476 5.19476 
5.17731 
rRFP 1 307 double
3064.31 2685.42 3275.65 3121.09 3522.98 2800.23 2902.35 3659.43 3698.06 
3293.68 3257.89 4063.51 3008.17 2491.8 2926.9 3228.79 2884.72 3172 
3310.23 2801.16 3209.15 3035.36 3152.36 2447.38 3093.12 3004.86 2738.47 
2735.89 2884.38 3092.63 3074.96 3111.47 3111.86 3096.22 3011.31 2961.19 
3134.6 3291.99 3254.01 3043.15 2834.27 2779.81 2768.07 2816.54 2848.46 
2852.93 3035.36 2923.85 2841.95 2833.21 2864.21 2945.01 3033.52 3037.43 
2982.73 2984.88 3026.44 2975.42 2919.01 2954.09 2998.78 3059.79 3200.77 
3310.64 3483.58 3599.35 3674.56 3674.56 3676.35 3534.83 3512.9 3523.99 
3289.22 3214.01 3214.01 3008.53 2949.64 2921.07 2921.07 2831.96 2757.52 
2765.42 2701.31 2778.12 2840.91 2937.54 3036.51 3120.2 3187.36 3183.06 
3257.9 3002.95 3116.2 3154.36 3222.21 3296.77 2815.05 2797.52 2824.05 
2780.63 2969.72 3107.77 3185.44 3199.62 3078.98 3067.2 3106.31 3176.32 
3189.35 3264.6 3200.88 3294.59 3344.32 3352.77 3369.96 3062.67 3007.53 
3014.06 3059.19 3001.98 3066.4 3336.57 3458.2 3498.58 3603.7 3309.99 
3325.28 3325.28 3272.41 3206.46 3209.83 3071.81 3181.77 3115.19 3173.31 
3158.33 3366.11 3460.22 3446.14 3433.14 3398.78 3258.7 3418.64 3435.38 
3633.16 3788.75 3754.63 3860.58 3745.1 3753.1 3551.12 3521.99 3259.3 
3191.68 3067.36 3290.05 3317.04 3317.04 3346.52 3332.11 3382.88 3274.89 
3266.6 3251.16 3221.93 3190.22 3261.77 3302.78 3325.38 3375.8 3395.07 
3283.4 3245.63 3245.63 3143.62 2817.56 2737.26 3048.43 3243.53 3281.33 
3395.14 3383.26 3342.42 3264.59 3236.15 3202.86 3132.95 3099.94 3181.02 
3205.19 3352.95 3382.73 3366.25 3280.19 3201.78 3068.72 2990.69 2990.69 
2962.33 2930.83 2978.79 3092.32 3221.17 3217.02 3013.07 2944.79 2914.01 
2880.73 2963.44 2967.11 2908.28 2895.6 2969.84 3116.9 3242.86 3242.86 
3564.63 3629.94 3683.96 4013.27 3769.35 3642.41 3831.6 3753.99 3682.31 
3623 3455.2 3522.25 3476.84 3602.57 3977.33 3600.01 3528.67 3360.52 
3271.68 3164.8 2999.05 2990.46 2961.1 2953.84 2967.05 3000.83 3058.28 
3149.42 3248.79 3297.44 3399.89 4079.79 4115.68 3985.57 3909.41 3819.78 
3800.68 3664.43 3629.64 3603.2 3461.56 3339.95 3354.53 3150.7 3049.14 
2988.01 3009.78 2999.46 3074.78 3264.57 3249.15 3415.31 3477.22 3481.85 
3660.32 3349.99 3235.28 3135.65 3164.49 3145.35 3179.65 3123.79 3083.33 
3088.89 3045.33 3083.23 2902.35 3622.21 3397.28 3106.89 2949.68 2908.57 
2937.54 2884.11 2819.88 3710.6 3710.77 3736.91 3798.17 3792.48 3602.99 
3438.91 3571.83 3557 3284.14 3169.86 3141.51 3399.75 3380.21 3380.21 
3376.33 
rGFP 1 307 double
2742.22 2695.56 2847.56 2869.14 3207.31 2648.14 2740.86 2988.43 2894.68 
2732.72 2838.42 3100.98 2913.04 2632.14 2755.8 2929.41 2803.31 2846.84 
2916.37 2781.7 2900.62 2840.53 2790.09 2565.25 2780.73 2794.62 2650.07 
2671.6 2751.72 2794.14 2789.19 2789.89 2790.51 2810.19 2807.04 2820.67 
2870.4 2908.88 2878.16 2840.8 2785.33 2774.48 2782.3 2804.79 2800.83 
2805.94 2840.53 2849.85 2820.12 2811.37 2804.99 2812.28 2814.01 2826.7 
2866.93 2891.67 2886.23 2897.69 2866.11 2855.01 2841.84 2831.32 2869.58 
2853.79 2871.86 2884.89 2882.72 2882.72 2910.96 2914.46 2930.84 2915.98 
2885.57 2854.65 2854.65 2816.84 2814.33 2835.28 2835.28 2867.43 2880.37 
2835.73 2816.22 2829.95 2861.63 2880.3 2897.23 2890.75 2898.85 2909.27 
2901.91 2821.21 2840.77 2857.96 2857.89 2880.69 2779.81 2766.79 2812.59 
2812.59 2807.48 2847.27 2841.23 2846.9 2867.77 2842.99 2869.51 2853.91 
2855.57 2851.62 2846.59 2793.99 2783.43 2792.22 2905.32 2879.95 2897.86 
2898.07 2893.74 2870.28 2881.06 2895.31 2950.09 2977.89 2986.68 2933 
2910.83 2910.83 2877.38 2890.49 2860.83 2835.52 2810.81 2799.04 2787.31 
2800.04 2840.05 2872.81 2908.47 2886.47 2875.83 2849.01 2874.98 2880.4 
2870.96 2902.27 2890.58 2880.3 2879.2 2859.73 2832 2846.33 2811.33 
2772 2774.04 2769.63 2760.94 2760.94 2798.64 2797.19 2812.9 2788.74 
2788.96 2780.65 2780.01 2783 2766.22 2747.68 2760.7 2773.48 2782.8 
2750.21 2728.16 2728.16 2737.57 2692.15 2673.65 2789.2 2859.41 2974.63 
2997.41 2955.19 2913.73 2952.6 2935.09 2954.68 2933.78 2956.51 3032.96 
3072.38 3126.91 2857.19 2837.12 2822.06 2807.43 2811.42 2767.72 2767.72 
2734.3 2743.64 2750.01 2706.96 2719.67 2762.85 2765.62 2764.16 2746.96 
2744.04 2743.63 2754.86 2733.93 2733.91 2751.48 2792.68 2961.93 2961.93 
2971 2961.32 2963.7 3100.21 3108.31 3089.52 3134.32 3150.07 3124.26 
3113.79 3069.67 3146.21 3201.06 3205.46 3089.46 3024.35 3022.21 2982.25 
2947.51 2918.56 2871.94 2859 2846.22 2790.28 2778.65 2751.26 2705.48 
2728.59 2768.54 2832.98 2831.78 3100.31 3060.05 3022.65 2985.95 2922.8 
2941.3 2922.94 2894.6 2866.81 2830.52 2798.72 2796.25 2779.16 2764.37 
2762.77 2762.56 2770.79 2777.28 2790.02 2813.84 2858 2898.09 2906.52 
2958.67 2750.33 2824.79 2851.64 2852.38 2838.57 2753.38 2775.57 2769.84 
2790.28 2810.49 2816.72 2740.86 2835.32 2755.02 2725.23 2721.23 2728.69 
2714.85 2700 2678.05 2921.37 2961.31 2999.02 3010.35 2970.19 2916.9 
2881.85 3135.96 3072.6 2869.11 2920.09 2924.12 2880.07 2901.28 2901.28 
2874.3 
bkstRFP 1 307 double
839.31 460.42 1050.65 896.09 1297.98 575.23 677.35 1434.43 1473.06 
1068.68 1032.89 1838.51 783.17 266.8 701.9 1003.79 659.72 947 
1085.23 576.16 984.15 810.36 927.36 222.38 868.12 779.86 513.47 
510.89 659.38 867.63 849.96 886.47 886.86 871.22 786.31 736.19 
909.6 1066.99 1029.01 818.15 609.27 554.81 543.07 591.54 623.46 
627.93 810.36 698.85 616.95 608.21 639.21 720.01 808.52 812.43 
757.73 759.88 801.44 750.42 694.01 729.09 773.78 834.79 975.77 
1085.64 1258.58 1374.35 1449.56 1449.56 1451.35 1309.83 1287.9 1298.99 
1064.22 989.01 989.01 783.53 724.64 696.07 696.07 606.96 532.52 
540.42 476.31 553.12 615.91 712.54 811.51 895.2 962.36 958.06 
1032.9 777.95 891.2 929.36 997.21 1071.77 590.05 572.52 599.05 
555.63 744.72 882.77 960.44 974.62 853.98 842.2 881.31 951.32 
964.35 1039.6 975.88 1069.59 1119.32 1127.77 1144.96 837.67 782.53 
789.06 834.19 776.98 841.4 1111.57 1233.2 1273.58 1378.7 1084.99 
1100.28 1100.28 1047.41 981.46 984.83 846.81 956.77 890.19 948.31 
933.33 1141.11 1235.22 1221.14 1208.14 1173.78 1033.7 1193.64 1210.38 
1408.16 1563.75 1529.63 1635.58 1520.1 1528.1 1326.12 1296.99 1034.3 
966.68 842.36 1065.05 1092.04 1092.04 1121.52 1107.11 1157.88 1049.89 
1041.6 1026.16 996.93 965.22 1036.77 1077.78 1100.38 1150.8 1170.07 
1058.4 1020.63 1020.63 918.62 592.56 512.26 823.43 1018.53 1056.33 
1170.14 1158.26 1117.42 1039.59 1011.15 977.86 907.95 874.94 956.02 
980.19 1127.95 1157.73 1141.25 1055.19 976.78 843.72 765.69 765.69 
737.33 705.83 753.79 867.32 996.17 992.02 788.07 719.79 689.01 
655.73 738.44 742.11 683.28 670.6 744.84 891.9 1017.86 1017.86 
1339.63 1404.94 1458.96 1788.27 1544.35 1417.41 1606.6 1528.99 1457.31 
1398 1230.2 1297.25 1251.84 1377.57 1752.33 1375.01 1303.67 1135.52 
1046.68 939.8 774.05 765.46 736.1 728.84 742.05 775.83 833.28 
924.42 1023.79 1072.44 1174.89 1854.79 1890.68 1760.57 1684.41 1594.78 
1575.68 1439.43 1404.64 1378.2 1236.56 1114.95 1129.53 925.7 824.14 
763.01 784.78 774.46 849.78 1039.57 1024.15 1190.31 1252.22 1256.85 
1435.32 1124.99 1010.28 910.65 939.49 920.35 954.65 898.79 858.33 
863.89 820.33 858.23 677.35 1397.21 1172.28 881.89 724.68 683.57 
712.54 659.11 594.88 1485.6 1485.77 1511.91 1573.17 1567.48 1377.99 
1213.91 1346.83 1332 1059.14 944.86 916.51 1174.75 1155.21 1155.21 
1151.33 
bkstGFP 1 307 double
289.22 242.56 394.56 416.14 754.31 195.14 287.86 535.43 441.68 
279.72 385.42 647.98 460.04 179.14 302.8 476.41 350.31 393.84 
463.37 328.7 447.62 387.53 337.09 112.25 327.73 341.62 197.07 
218.6 298.72 341.14 336.19 336.89 337.51 357.19 354.04 367.67 
417.4 455.88 425.16 387.8 332.33 321.48 329.3 351.79 347.83 
352.94 387.53 396.85 367.12 358.37 351.99 359.28 361.01 373.7 
413.93 438.67 433.23 444.69 413.11 402.01 388.84 378.32 416.58 
400.79 418.86 431.89 429.72 429.72 457.96 461.46 477.84 462.98 
432.57 401.65 401.65 363.84 361.33 382.28 382.28 414.43 427.37 
382.73 363.22 376.95 408.63 427.3 444.23 437.75 445.85 456.27 
448.91 368.21 387.77 404.96 404.89 427.69 326.81 313.79 359.59 
359.59 354.48 394.27 388.23 393.9 414.77 389.99 416.51 400.91 
402.57 398.62 393.59 340.99 330.43 339.22 452.32 426.95 444.86 
445.07 440.74 417.28 428.06 442.31 497.09 524.89 533.68 480 
457.83 457.83 424.38 437.49 407.83 382.52 357.81 346.04 334.31 
347.04 387.05 419.81 455.47 433.47 422.83 396.01 421.98 427.4 
417.96 449.27 437.58 427.3 426.2 406.73 379 393.33 358.33 
319 321.04 316.63 307.94 307.94 345.64 344.19 359.9 335.74 
335.96 327.65 327.01 330 313.22 294.68 307.7 320.48 329.8 
297.21 275.16 275.16 284.57 239.15 220.65 336.2 406.41 521.63 
544.41 502.19 460.73 499.6 482.09 501.68 480.78 503.51 579.96 
619.38 673.91 404.19 384.12 369.06 354.43 358.42 314.72 314.72 
281.3 290.64 297.01 253.96 266.67 309.85 312.62 311.16 293.96 
291.04 290.63 301.86 280.93 280.91 298.48 339.68 508.93 508.93 
518 508.32 510.7 647.21 655.31 636.52 681.32 697.07 671.26 
660.79 616.67 693.21 748.06 752.46 636.46 571.35 569.21 529.25 
494.51 465.56 418.94 406 393.22 337.28 325.65 298.26 252.48 
275.59 315.54 379.98 378.78 647.31 607.05 569.65 532.95 469.8 
488.3 469.94 441.6 413.81 377.52 345.72 343.25 326.16 311.37 
309.77 309.56 317.79 324.28 337.02 360.84 405 445.09 453.52 
505.67 297.33 371.79 398.64 399.38 385.57 300.38 322.57 316.84 
337.28 357.49 363.72 287.86 382.32 302.02 272.23 268.23 275.69 
261.85 247 225.05 468.37 508.31 546.02 557.35 517.19 463.9 
428.85 682.96 619.6 416.11 467.09 471.12 427.07 448.28 448.28 
421.3 
tubeWidth 1 307 double
0.183297 0.130486 0.121286 0.208268 0.210835 0.145085 0.261254 0.148555 0.227833 
0.182803 0.239407 0.0947364 0.168347 0.0880529 0.207381 0.211832 0.115465 0.245061 
0.151441 0.154188 0.23571 0.244933 0.187491 0.00886345 0.115954 0.12154 0.121271 
0.203332 0.235007 0.278489 0.328862 0.334914 0.288468 0.123856 0.133517 0.0507701 
0.0746841 0.187065 0.102858 0.261505 0.202852 0.184803 0.197052 0.170432 0.15626 
0.160663 0.124427 0.127158 0.0607835 0.096883 0.100003 0.153319 0.279218 0.279647 
0.245978 0.220187 0.203145 0.182049 0.170816 0.179063 0.190682 0.200502 0.21466 
0.237699 0.243855 0.229693 0.248874 0.258901 0.24783 0.248779 0.267944 0.247983 
0.231968 0.233204 0.22763 0.240184 0.212275 0.209987 0.227209 0.282828 0.222928 
0.214246 0.206605 0.217333 0.20988 0.219961 0.221636 0.213972 0.229423 0.194483 
0.167184 0.140688 0.148962 0.165374 0.186856 0.174233 0.157072 0.135179 0.22172 
0.239516 0.247136 0.289507 0.316532 0.210825 0.188512 0.228566 0.263627 0.220389 
0.233577 0.239355 0.240306 0.236227 0.211392 0.156635 0.189793 0.188994 0.123922 
0.121158 0.155166 0.14962 0.167635 0.226219 0.28574 0.256497 0.231859 0.187206 
0.200653 0.21214 0.18868 0.249601 0.232631 0.213915 0.215872 0.229078 0.223791 
0.205106 0.203661 0.244469 0.235134 0.229819 0.286246 0.324276 0.249077 0.258271 
0.233669 0.222856 0.27335 0.291659 0.251984 0.225782 0.264461 0.23555 0.168717 
0.201611 0.170707 0.154317 0.181649 0.221908 0.288587 0.286701 0.242339 0.25706 
0.26313 0.25939 0.220714 0.22907 0.251389 0.259876 0.267812 0.283671 0.249026 
0.234667 0.270248 0.317517 0.310048 0.275024 0.18652 0.270513 0.296437 0.294724 
0.290074 0.248557 0.217175 0.207402 0.242173 0.264829 0.222404 0.217147 0.219387 
0.166576 0.196661 0.232052 0.270453 0.241782 0.21405 0.195095 0.19681 0.154527 
0.15517 0.1795 0.203015 0.196539 0.142693 0.234838 0.205896 0.168376 0.194813 
0.224327 0.171704 0.174587 0.151688 0.130502 0.157013 0.189294 0.218492 0.244897 
0.24127 0.231183 0.135519 0.10859 0.150663 0.124333 0.172567 0.241735 0.231437 
0.249905 0.179645 0.160388 0.188054 0.24225 0.0993407 0.148131 0.199759 0.248016 
0.202775 0.267605 0.215761 0.208848 0.211576 0.213056 0.182904 0.208629 0.232596 
0.201789 0.204004 0.204414 0.245394 0.206432 0.217185 0.222191 0.246897 0.216596 
0.210373 0.219308 0.251536 0.292418 0.319241 0.292813 0.241996 0.172049 0.137243 
0.198356 0.177155 0.163585 0.227789 0.222829 0.238569 0.248963 0.17797 0.18249 
0.0802338 0.260713 0.318478 0.254381 0.232446 0.232831 0.254626 0.248061 0.23574 
0.208717 0.231014 0.268068 0.258228 0.23618 0.152892 0.187714 0.166805 0.205922 
0.243241 0.26316 0.206896 0.195459 0.224999 0.238166 0.224574 0.211646 0.240042 
0.160752 0.237014 0.269635 0.141939 0.136105 0.198294 0.177692 0.247094 0.307244 
0.301389 
