# vtk DataFile Version 3.0
vtk output
ASCII
DATASET POLYDATA
POINTS 468 float
-0.0333026 -0.312044 0.740315 2.62455 -1.1641 0.119257 0.343459 1.02892 0.957784 
0.679016 1.39381 1.00583 3.87677 -0.140011 0.583714 4.17174 -0.0143846 0.591682 
2.52175 2.43088 1.09989 2.78818 2.24166 1.05394 3.0102 2.08398 1.01564 
2.63085 2.48744 1.10461 3.92383 -0.21258 0.365439 4.09196 -0.170097 0.346042 
7.4013 -0.537578 0.142229 0.252632 -0.505481 0.133653 4.48468 0.690407 0.293921 
8.09917 -2.05826e-008 -9.73543e-008 2.26072 -1.38152 -0.217758 2.45327 -1.3605 -0.274087 
7.81246 -0.180914 -0.390762 6.17097 1.42518 -0.0641901 0.137904 -0.0261676 -0.23409 
5.78542 0.855577 -0.349075 5.98333 0.849062 -0.359674 5.9404 1.03594 -0.324809 
8.00688 0.752374 -0.47333 0.131702 -0.999227 -0.607944 0.172293 -0.759965 -0.56787 
6.67078 0.193176 -0.914259 4.89882 1.67504 -0.56939 -0.250621 0.156446 -1.13212 
3.64308 0.611949 -1.10264 4.78509 1.41125 -0.886968 6.50651 0.186865 -1.31409 
-0.132898 -0.20277 -1.47187 -0.606574 1.73091 -1.51626 4.23103 1.74124 -1.94885 
2.36888 0.0364605 -2.56581 3.99721 0.689615 -2.52892 3.60323 2.91308 -2.11966 
3.73991 0.525972 -2.95193 3.79255 0.68965 -2.9257 3.39032 2.7179 -2.55033 
3.18443 1.24431 -3.20582 1.01765 0.733351 -3.39531 2.59484 1.41156 -3.75814 
2.61906 1.45712 -3.72118 2.6417 1.49952 -3.66964 2.69292 1.50828 -3.61784 
2.75143 1.49207 -3.57831 2.81424 1.47895 -3.5535 2.86825 1.45347 -3.53044 
2.92289 1.42536 -3.49282 2.98572 1.40662 -3.4464 3.03958 1.37568 -3.4017 
3.08755 1.33673 -3.35813 3.1355 1.29249 -3.2929 0.985215 0.689366 -3.40148 
0.951655 0.645146 -3.40011 0.910726 0.604095 -3.38278 0.85852 0.567955 -3.34146 
0.817418 0.522895 -3.2947 0.775967 0.479118 -3.25523 0.722717 0.446817 -3.23578 
0.681351 0.407107 -3.22571 0.646928 0.361434 -3.2095 0.607214 0.31539 -3.16299 
0.554844 0.275237 -3.09224 0.506206 0.229336 -3.0001 0.445337 0.192121 -2.90585 
0.386204 0.152642 -2.80455 0.345632 0.101011 -2.7138 0.306449 0.0483966 -2.6233 
0.254403 0.00711335 -2.54523 0.20618 -0.0345312 -2.46742 0.151816 -0.0594752 -2.37133 
0.10582 -0.0649027 -2.23456 0.060095 -0.0756842 -2.0611 0.000545296 -0.110367 -1.86859 
-0.065609 -0.155796 -1.67012 3.42407 2.75683 -2.51499 3.45885 2.79192 -2.45779 
3.49469 2.82317 -2.37871 3.53122 2.85186 -2.28508 3.5674 2.88183 -2.19872 
3.77 0.642775 -2.96297 3.75967 0.583085 -2.97296 3.77911 0.770353 -2.941 
3.7667 0.847217 -2.93445 3.75543 0.920178 -2.90603 3.74572 0.992033 -2.8779 
3.74529 1.05833 -2.8587 3.76628 1.11045 -2.85055 3.79542 1.15677 -2.84381 
3.81841 1.20644 -2.82866 3.82994 1.26217 -2.79684 3.85441 1.30665 -2.75255 
3.88694 1.34541 -2.70966 3.92025 1.38568 -2.68158 3.9532 1.42723 -2.66081 
3.98469 1.46983 -2.63977 4.00881 1.51559 -2.60277 4.02104 1.56877 -2.55638 
4.0462 1.61069 -2.49752 4.07978 1.64561 -2.43276 4.11552 1.67692 -2.35367 
4.1524 1.70433 -2.25274 4.19102 1.72534 -2.11537 3.87523 0.675241 -2.76654 
3.94706 0.672663 -2.6349 2.40297 0.0741086 -2.52318 2.43889 0.105297 -2.44413 
2.47846 0.127699 -2.32162 2.52861 0.139484 -2.1789 2.59845 0.139356 -2.05426 
2.66837 0.143299 -1.95904 2.7251 0.159709 -1.88357 2.7853 0.175715 -1.8234 
2.83952 0.197009 -1.76955 2.89859 0.216918 -1.73124 2.95167 0.242114 -1.69923 
3.00813 0.266967 -1.6825 3.05089 0.301558 -1.66342 3.08585 0.340657 -1.63563 
3.12011 0.378181 -1.59304 3.15576 0.414723 -1.55068 3.19887 0.448034 -1.5243 
3.25534 0.472886 -1.50757 3.30798 0.499425 -1.48284 3.36584 0.519161 -1.43697 
3.41043 0.547288 -1.38145 3.44842 0.580101 -1.3248 3.49457 0.607123 -1.26956 
3.56354 0.614842 -1.19621 -0.597648 1.66168 -1.55896 -0.598953 1.60177 -1.61459 
-0.622381 1.55862 -1.67376 -0.653526 1.51991 -1.72424 -0.675642 1.47169 -1.75423 
-0.676773 1.4065 -1.77316 -0.676345 1.34021 -1.79235 -0.687012 1.28283 -1.81697 
-0.687192 1.21903 -1.85075 -0.686675 1.15267 -1.86996 -0.695869 1.09011 -1.86545 
-0.691437 1.01375 -1.83389 -0.679714 0.930142 -1.7889 -0.674586 0.851218 -1.74277 
-0.682241 0.783572 -1.70911 -0.67763 0.71253 -1.69922 -0.65971 0.646407 -1.70416 
-0.630274 0.592919 -1.70742 -0.601598 0.532951 -1.68921 -0.561137 0.480264 -1.63264 
-0.513341 0.430545 -1.54577 -0.464474 0.382283 -1.4587 -0.416438 0.337452 -1.39107 
-0.368086 0.292646 -1.33097 -0.314412 0.235476 -1.2457 -0.108165 -0.283891 -1.38942 
-0.0765835 -0.350424 -1.32732 -0.0535911 -0.425145 -1.28131 -0.0294305 -0.503538 -1.21341 
0.00686489 -0.575931 -1.09986 0.0491729 -0.650658 -0.941832 0.111535 -0.703342 -0.758309 
-0.152816 -0.139647 -1.4523 -0.180954 -0.0912228 -1.41987 -0.204817 -0.0427565 -1.36254 
-0.230777 0.000417171 -1.29097 -0.245074 0.06489 -1.21121 4.82209 1.47295 -0.808257 
4.83875 1.52938 -0.703153 4.84509 1.58445 -0.62226 4.86786 1.63104 -0.583168 
6.59034 0.179391 -1.11612 4.79792 1.33722 -0.8987 4.84 1.27438 -0.830809 
4.88175 1.20818 -0.7202 4.90958 1.12193 -0.599264 4.93697 1.03741 -0.487425 
4.9781 0.976859 -0.39461 5.02443 0.932172 -0.336916 5.07017 0.895429 -0.315436 
5.11498 0.8627 -0.315793 5.16059 0.832797 -0.323223 5.21315 0.81236 -0.329322 
5.28055 0.812137 -0.332582 5.34909 0.81346 -0.335624 5.40986 0.804204 -0.340153 
5.4796 0.807168 -0.342964 5.55522 0.818133 -0.344652 5.63191 0.830555 -0.346134 
5.70866 0.843066 -0.347604 -0.175799 0.0890638 -0.909114 -0.107329 0.0352142 -0.718557 
-0.0299495 0.00768317 -0.55642 0.0532053 -0.00915727 -0.400224 6.74745 0.184871 -1.01726 
6.81529 0.18383 -1.08092 6.86859 0.165628 -1.10172 6.92084 0.141151 -1.09346 
6.9757 0.122101 -1.09189 7.01828 0.0880742 -1.0999 7.07393 0.07185 -1.10541 
7.13388 0.0544633 -1.08121 7.20552 0.0494842 -1.04033 7.28209 0.0512261 -0.998508 
7.35275 0.0501757 -0.979483 7.41279 0.0381734 -0.976928 7.47581 0.0302233 -0.973803 
7.53534 0.0140287 -0.956906 7.59974 -0.00472539 -0.901792 7.65837 -0.0466392 -0.793998 
7.72433 -0.109003 -0.616108 6.65795 0.266627 -0.802867 6.63285 0.31639 -0.725175 
6.58312 0.334796 -0.68945 6.54025 0.366741 -0.67426 6.51063 0.418411 -0.663772 
6.4721 0.457948 -0.654989 6.42296 0.48303 -0.648237 6.36971 0.502522 -0.64227 
6.33421 0.546191 -0.632906 6.29569 0.585729 -0.624122 6.25235 0.618723 -0.616258 
6.20808 0.650435 -0.608574 6.16481 0.683518 -0.600698 6.12741 0.7246 -0.591697 
6.09928 0.776544 -0.573701 6.06328 0.812508 -0.535549 6.02315 0.834074 -0.46209 
0.18122 -0.829197 -0.61057 0.181655 -0.895496 -0.629765 0.161272 -0.950108 -0.623317 
0.198073 -0.729834 -0.428291 0.20517 -0.68656 -0.283621 0.211442 -0.640089 -0.140241 
0.232777 -0.589139 -0.00243478 7.97653 0.705877 -0.472513 7.9552 0.649876 -0.45121 
7.94792 0.578728 -0.395602 7.93129 0.510096 -0.308977 7.91491 0.44025 -0.215057 
7.90712 0.366373 -0.137307 7.87825 0.309528 -0.0706127 7.82875 0.268374 -0.00771928 
7.79008 0.219523 0.0533151 7.76095 0.163895 0.112703 7.74257 0.101668 0.162889 
7.74509 0.0276918 0.187416 7.75494 -0.0443763 0.160487 7.76431 -0.104077 0.0566957 
7.77937 -0.148056 -0.136207 5.9695 1.10468 -0.246362 5.98431 1.16419 -0.176387 
6.00816 1.2087 -0.117009 6.03116 1.25431 -0.0724605 6.04453 1.30771 -0.0336052 
6.07723 1.35048 -0.0201259 6.12926 1.38261 -0.0320225 5.96584 0.934968 -0.343753 
5.84724 1.02441 -0.36003 5.78589 0.997391 -0.376896 5.77514 0.935109 -0.372267 
5.90924 0.833154 -0.328811 5.84063 0.831743 -0.325781 0.158459 -0.0919316 -0.239088 
0.187979 -0.151321 -0.21893 0.210911 -0.233946 -0.151716 0.231045 -0.349667 -0.0280664 
0.164983 0.00407126 -0.102075 0.180879 0.0432866 0.0245079 0.206825 0.0774277 0.134676 
0.230953 0.113894 0.237799 0.235217 0.167562 0.322315 0.238786 0.223791 0.392252 
0.260477 0.269215 0.444362 0.283904 0.312373 0.503522 0.29553 0.362879 0.572069 
0.311766 0.409078 0.647171 0.32374 0.458305 0.723008 0.347516 0.500181 0.789459 
0.369118 0.545668 0.841584 0.369387 0.609403 0.875348 0.360885 0.681431 0.895933 
0.358195 0.751396 0.900816 0.367308 0.814012 0.896322 0.36418 0.885321 0.89393 
0.354032 0.958518 0.9148 7.7173 -0.267979 -0.282288 7.63788 -0.320966 -0.163571 
7.56721 -0.358389 -0.0437882 7.50648 -0.396758 0.0565285 7.46599 -0.444317 0.117866 
7.43339 -0.492314 0.141113 2.40694 -1.43604 -0.396193 2.34898 -1.45886 -0.431307 
2.30096 -1.43703 -0.359306 7.90919 -0.135921 -0.208033 7.98519 -0.114573 -0.0836877 
8.03206 -0.0846839 -0.0254669 8.06673 -0.0439841 -0.00617377 2.35736 -1.34691 -0.238883 
2.44722 -1.2702 -0.135594 2.47913 -1.22526 -0.0238254 2.54499 -1.20024 0.0621316 
2.13257 -1.38993 -0.181116 2.05971 -1.37738 -0.135901 2.01321 -1.35669 -0.0773449 
1.9699 -1.33616 -0.0170798 1.91978 -1.32469 0.0400319 1.85412 -1.33086 0.0797232 
1.78738 -1.3385 0.119218 1.7292 -1.33273 0.153128 1.66942 -1.33091 0.193953 
1.61927 -1.31421 0.229397 1.57398 -1.29088 0.265773 1.5232 -1.27154 0.28665 
1.46321 -1.26297 0.298552 1.41173 -1.24107 0.304857 1.36506 -1.21262 0.312082 
1.31358 -1.19072 0.318388 1.25325 -1.18086 0.323001 1.20189 -1.15879 0.32933 
1.15742 -1.12735 0.336977 1.11883 -1.0879 0.345748 1.08334 -1.04423 0.355112 
1.03002 -1.02482 0.361066 0.979741 -1.00129 0.367601 0.934325 -0.971128 0.375067 
0.890996 -0.938126 0.382932 0.853544 -0.897123 0.391922 0.82392 -0.845461 0.402409 
0.779516 -0.813924 0.410068 0.720265 -0.802601 0.414887 0.667489 -0.780708 0.413721 
0.615023 -0.754887 0.398177 0.559495 -0.727974 0.360386 0.520428 -0.676891 0.31851 
0.472427 -0.638196 0.276777 0.409021 -0.617728 0.238231 0.340982 -0.575808 0.19049 
4.50439 0.742266 0.309617 4.50343 0.804518 0.343179 4.48804 0.861621 0.399111 
4.46145 0.904949 0.460702 4.43746 0.953763 0.515589 4.40932 1.00219 0.548022 
4.38963 1.06386 0.574856 4.36784 1.12269 0.60128 4.32682 1.15357 0.631248 
4.27625 1.17496 0.644952 4.24869 1.23118 0.648609 4.23312 1.30725 0.640124 
4.21791 1.38204 0.63893 4.19069 1.43697 0.649878 4.14076 1.45573 0.678141 
4.09964 1.48122 0.729752 4.07252 1.52401 0.791273 4.03716 1.55733 0.843984 
3.99493 1.58658 0.873722 3.95094 1.61692 0.888684 3.90654 1.64846 0.896343 
3.86207 1.67991 0.90399 3.81653 1.7099 0.911432 3.76511 1.73189 0.91775 
3.70478 1.74174 0.922362 3.6533 1.76364 0.928667 3.60662 1.79209 0.935892 
3.55508 1.8139 0.942185 3.49361 1.8222 0.94658 3.43512 1.83456 0.951544 
3.37245 1.84123 0.95571 3.31282 1.85204 0.960457 3.24434 1.8508 0.96351 
3.17694 1.85102 0.966769 3.12445 1.87155 0.972881 3.08004 1.90308 0.980541 
3.04379 1.94571 0.989758 3.02352 2.01011 1.00204 2.71109 -1.14944 0.157225 
2.76609 -1.12093 0.172777 2.81073 -1.08393 0.165849 2.8638 -1.05073 0.140908 
2.90483 -1.00975 0.123559 2.94064 -0.969192 0.136501 2.98375 -0.935882 0.162876 
3.0397 -0.913761 0.201735 3.08281 -0.880451 0.22811 3.11897 -0.841177 0.248342 
3.16069 -0.802753 0.245564 3.21463 -0.773005 0.240679 3.25782 -0.735625 0.237647 
3.30136 -0.699524 0.241906 3.35574 -0.671119 0.244296 3.39928 -0.635019 0.248555 
3.44282 -0.598919 0.252814 3.49746 -0.571737 0.262508 3.53987 -0.535868 0.274312 
3.57569 -0.495314 0.287254 3.61714 -0.455667 0.277172 3.67187 -0.424415 0.25746 
3.72182 -0.387702 0.223872 3.77766 -0.356214 0.196617 3.82675 -0.320953 0.177879 
3.87358 -0.289258 0.19626 3.8965 -0.246768 0.26286 0.166466 -0.505994 0.241203 
0.109895 -0.496005 0.341661 0.0658088 -0.480767 0.429261 0.018858 -0.469662 0.506861 
-0.0300296 -0.460198 0.578623 -0.0528794 -0.416755 0.647576 -0.053996 -0.359984 0.702768 
4.14003 -0.113482 0.387564 4.16599 -0.0642557 0.474025 4.00807 -0.196713 0.345376 
3.9073 -0.167645 0.479522 2.58567 2.45251 1.10064 2.74257 2.27156 1.06137 
2.69116 2.29355 1.06769 2.63089 2.30349 1.07231 2.58067 2.32711 1.07886 
2.54328 2.3682 1.08786 2.47734 2.46241 1.10755 2.43287 2.49386 1.1152 
2.38727 2.52377 1.12263 2.33465 2.54412 1.12872 2.26617 2.54288 1.13177 
2.19176 2.53355 1.13369 2.12214 2.53076 1.13652 2.06245 2.54148 1.14126 
1.99978 2.54815 1.14542 1.94122 2.56042 1.15038 1.87856 2.56709 1.15454 
1.81893 2.5779 1.15929 1.75039 2.57657 1.16233 1.68178 2.57516 1.16536 
1.62101 2.58442 1.16989 1.55127 2.58145 1.1727 1.47565 2.57049 1.17439 
1.39903 2.55815 1.17588 1.32341 2.54719 1.17757 1.25373 2.54431 1.18039 
1.19404 2.55503 1.18513 1.13139 2.56155 1.18927 1.07335 2.5711 1.19372 
1.01494 2.56022 1.1946 0.972453 2.52573 1.19057 0.938521 2.48294 1.18468 
0.906171 2.43889 1.17849 0.875378 2.39373 1.17203 0.852741 2.34279 1.16416 
0.843893 2.28205 1.15392 0.832445 2.22316 1.14413 0.834698 2.15454 1.13197 
0.843547 2.08123 1.11867 0.844323 2.01365 1.10677 0.824899 1.96043 1.09835 
0.805385 1.90726 1.08995 0.804603 1.8408 1.07832 0.803821 1.77433 1.06668 
0.784219 1.72123 1.05829 0.763228 1.66911 1.05015 0.754388 1.60837 1.0399 
0.741285 1.55065 1.03039 0.732357 1.48997 1.02016 0.709719 1.43903 1.0123 

LINES 37 537
13 44 45 46 47 48 49 50 51 52 53 54 55 42 
25 43 56 57 58 59 60 61 62 63 64 65 66 67 68 69 70 71 72 73 74 75 76 77 78 33 
7 41 79 80 81 82 83 38 
4 40 84 85 39 
23 40 86 87 88 89 90 91 92 93 94 95 96 97 98 99 100 101 102 103 104 105 106 35 
4 40 107 108 37 
26 36 109 110 111 112 113 114 115 116 117 118 119 120 121 122 123 124 125 126 127 128 129 130 131 132 30 
27 34 133 134 135 136 137 138 139 140 141 142 143 144 145 146 147 148 149 150 151 152 153 154 155 156 157 29 
9 33 158 159 160 161 162 163 164 26 
7 33 165 166 167 168 169 29 
3 32 174 27 
6 29 193 194 195 196 20 
19 27 197 198 199 200 201 202 203 204 205 206 207 208 209 210 211 212 213 18 
19 27 214 215 216 217 218 219 220 221 222 223 224 225 226 227 228 229 230 22 
5 26 231 232 233 25 
6 26 234 235 236 237 13 
17 24 238 239 240 241 242 243 244 245 246 247 248 249 250 251 252 18 
9 23 253 254 255 256 257 258 259 19 
3 23 260 22 
5 23 261 262 263 21 
4 22 264 265 21 
6 20 266 267 268 269 13 
21 20 270 271 272 273 274 275 276 277 278 279 280 281 282 283 284 285 286 287 288 2 
8 18 289 290 291 292 293 294 12 
5 17 295 296 297 16 
6 18 298 299 300 301 15 
3 17 302 16 
38 16 306 307 308 309 310 311 312 313 314 315 316 317 318 319 320 321 322 323 324 325 326 327 328 329 330 331 332 333 334 335 336 337 338 339 340 341 13 
40 14 342 343 344 345 346 347 348 349 350 351 352 353 354 355 356 357 358 359 360 361 362 363 364 365 366 367 368 369 370 371 372 373 374 375 376 377 378 379 8 
9 13 407 408 409 410 411 412 413 0 
3 10 417 4 
3 9 418 6 
7 7 419 420 421 422 423 6 
46 6 424 425 426 427 428 429 430 431 432 433 434 435 436 437 438 439 440 441 442 443 444 445 446 447 448 449 450 451 452 453 454 455 456 457 458 459 460 461 462 463 464 465 466 467 3 
25 28 173 172 171 170 31 175 176 177 178 179 180 181 182 183 184 185 186 187 188 189 190 191 192 21 
33 17 303 304 305 1 380 381 382 383 384 385 386 387 388 389 390 391 392 393 394 395 396 397 398 399 400 401 402 403 404 405 406 10 
6 5 415 414 11 416 10 

POINT_DATA 468
SCALARS DY_raw double
LOOKUP_TABLE default
200.046 97.8663 228.17 166.991 233.021 193.641 139.396 174.084 169.679 
149.873 139.467 160.62 178.238 162.404 204.207 221.606 101.657 86.6513 
141.829 151.704 151.286 167.237 175.481 157.624 311.179 230.348 249.949 
185.209 178.003 178.32 190.052 176.171 214.596 215.011 135.768 264.469 
159.914 182.054 179.673 289.864 195.9 153.244 115.632 121.025 228.443 
223.134 204.993 171.606 129.867 140.203 121.046 130.566 136.986 116.256 
125.465 114.145 104.489 104.489 97.0485 93.5904 99.2909 104.102 99.9174 
99.9174 109.094 114.305 120.483 118.872 113.39 103.884 96.8339 91.7006 
90.4086 90.9136 104.638 113.805 126.407 131.399 173.227 153.244 156.237 
139.282 149.216 164.2 195.502 195.502 180.382 205.137 181.034 172.906 
209.2 162.386 178.748 159.793 152.48 169.628 169.412 165.934 180.702 
144.262 140.222 152.853 134.767 146.129 165.135 158.803 200.695 216.671 
205.169 159.914 112.212 105.564 114.651 98.0105 121.363 124.445 153.349 
164.04 185.663 191.13 191.13 212.092 213.442 201.718 208.018 216.235 
216.235 195.125 198.422 197.839 193.342 200.767 180.653 117.286 121.882 
119.902 115.749 153.141 140.921 164.385 200.95 190.633 233.108 214.219 
178.837 188.826 170.323 155.452 142.407 137.193 149.537 156.615 165.07 
165.048 160.377 166.72 163.665 157.803 201.79 207.345 234.541 195.928 
203.423 249.793 212.039 215.011 201.818 223.392 181.634 173.61 175.371 
213.921 219.368 178.003 219.7 179.877 181.998 234.205 259.685 257.253 
233.186 257.345 241.748 194.464 194.464 186.508 185.881 185.881 197.901 
196.729 194.021 206.259 190.02 203.441 224.478 205.393 168.457 156.431 
149.793 152.904 177.327 177.327 197.036 213.301 176.923 164.165 177.623 
147.658 128.647 132.035 98.9135 110.629 124.573 136.409 173.73 190.914 
222.227 257.99 263.494 263.494 277.562 262.306 262.306 253.988 221.241 
180.837 180.837 157.315 135.81 142.69 157.585 212.093 184.723 251.076 
262.417 219.377 173.976 157.503 207.601 197.63 233.909 229.283 214.696 
223.197 228.012 229.828 217.282 217.233 219.287 228.128 225.395 213.496 
180.047 199.143 202.778 208.993 210.808 190.324 161.423 151.246 147.579 
153.155 157.166 153.822 164.333 172.158 182.598 190.919 190.687 173.914 
178.453 172.359 180.523 198.407 187.419 159.088 163.44 145.13 131.997 
156.439 127.757 128.817 128.817 112.303 112.303 115.506 151.055 159.453 
203.828 157.991 181.08 194.267 163.108 148.142 155.622 103.661 104.916 
106.233 165.924 185.535 192.097 221.606 97.1322 85.2597 84.2517 95.7513 
100.49 90.6846 94.4534 118.73 128.287 148.484 154.555 179.341 169.901 
157.326 200.333 178.576 178.576 154.727 147.486 147.486 145.336 152.296 
152.296 153.131 148.147 148.147 145.917 145.917 144.422 134.833 134.833 
134.615 146.31 146.31 174.161 166.555 163.812 153.935 146.251 143.163 
210.972 195.435 203.588 191.301 215.602 192.847 199.766 195.605 195.605 
227.661 215.571 233.555 235.418 218.242 228.546 220.434 227.577 210.527 
213.298 198.07 190.612 210.751 210.751 200.108 200.108 202.24 191.216 
191.216 168.463 152.56 152.56 148.286 143.409 145.889 142.426 142.426 
146.38 160.554 102.245 109.091 118.616 109.462 109.508 110.439 110.439 
133.364 137.588 148.523 145.49 139.006 156.505 156.313 156.313 163.868 
156.444 156.444 139.595 149.364 141.835 147.64 157.481 157.481 151.758 
148.802 163.49 179.325 184.327 184.859 168.706 180.192 184.663 196.096 
157.777 144.417 145.981 159.769 139.396 184.064 167.189 152.744 152.744 
150.869 142.195 132.235 132.235 109 103.052 103.052 105.301 110.647 
111.933 117.435 117.102 118.364 118.364 119.819 115.617 131.355 134.257 
115.561 114.272 105.066 119.264 119.264 121.924 129.662 127.781 127.781 
131.95 143.331 143.331 156.621 179.095 186.109 210.877 198.333 190.127 
188.062 171.397 173.606 183.375 171.384 177.881 163.378 163.378 172.076 

FIELD FieldData 7
DY_minmax 1 468 double
0.510271 0.0599953 0.634205 0.364606 0.65558 0.482047 0.243003 0.395865 0.376452 
0.289173 0.243319 0.336533 0.414169 0.344392 0.528609 0.605277 0.0766998 0.0105741 
0.253727 0.29724 0.295401 0.36569 0.402021 0.323331 1 0.643803 0.730177 
0.444888 0.413133 0.414529 0.466231 0.405059 0.57439 0.576217 0.227019 0.794163 
0.333421 0.430985 0.420491 0.90607 0.492 0.304029 0.138282 0.162049 0.635407 
0.612014 0.532071 0.384942 0.201012 0.246562 0.162142 0.204092 0.232383 0.141032 
0.181617 0.131733 0.0891789 0.0891789 0.0563917 0.0411528 0.0662734 0.0874723 0.0690341 
0.0690341 0.109473 0.132435 0.159659 0.152559 0.128404 0.0865152 0.055446 0.0328252 
0.0271315 0.0293572 0.0898383 0.130233 0.185767 0.207762 0.392087 0.304029 0.317215 
0.2425 0.286278 0.352307 0.490246 0.490246 0.423615 0.532706 0.426492 0.390672 
0.550607 0.344315 0.416416 0.332888 0.30066 0.376227 0.375276 0.35995 0.425027 
0.264449 0.246645 0.302306 0.222607 0.272675 0.35643 0.328523 0.513131 0.583534 
0.532847 0.333421 0.123211 0.0939174 0.133958 0.0606307 0.16354 0.17712 0.30449 
0.351605 0.446889 0.470978 0.470978 0.563355 0.569304 0.517639 0.545401 0.58161 
0.58161 0.488586 0.503113 0.500544 0.480727 0.513447 0.424813 0.145571 0.165824 
0.157102 0.138799 0.303575 0.249724 0.353124 0.514253 0.468792 0.655963 0.572726 
0.416808 0.460828 0.379292 0.313757 0.256271 0.233297 0.287692 0.318883 0.35614 
0.356044 0.335463 0.363413 0.349951 0.324119 0.517957 0.542437 0.66228 0.492122 
0.52515 0.729491 0.563118 0.576217 0.51808 0.61315 0.429137 0.393776 0.401537 
0.571413 0.595417 0.413133 0.596882 0.42139 0.43074 0.660798 0.77308 0.762366 
0.65631 0.762768 0.694036 0.485671 0.485671 0.450613 0.447851 0.447851 0.50082 
0.495651 0.483719 0.537647 0.466088 0.525229 0.617933 0.533831 0.371067 0.31807 
0.28882 0.302531 0.410156 0.410156 0.497008 0.568683 0.408373 0.352154 0.411461 
0.279414 0.195636 0.210565 0.0646104 0.116236 0.177682 0.229843 0.394306 0.470031 
0.608015 0.765611 0.789867 0.789867 0.851859 0.784633 0.784633 0.747977 0.603669 
0.425621 0.425621 0.321968 0.2272 0.257521 0.323156 0.563357 0.442745 0.735143 
0.785123 0.595456 0.395388 0.322796 0.543561 0.499624 0.659496 0.639108 0.574828 
0.612288 0.633509 0.641511 0.586226 0.586011 0.595059 0.634021 0.621976 0.56954 
0.422141 0.506291 0.522311 0.549699 0.557695 0.46743 0.340072 0.295225 0.279066 
0.303638 0.321312 0.306575 0.352894 0.387376 0.433381 0.47005 0.469028 0.395113 
0.415117 0.388261 0.424237 0.503049 0.454628 0.329779 0.34896 0.268272 0.210399 
0.318107 0.191716 0.196387 0.196387 0.123612 0.123612 0.137727 0.294382 0.331391 
0.526938 0.324946 0.426691 0.484804 0.347496 0.281546 0.314509 0.0855308 0.0910599 
0.0968652 0.359904 0.446326 0.475243 0.605277 0.0567605 0.00444209 0 0.0506751 
0.0715557 0.028348 0.044956 0.151934 0.194049 0.283051 0.309804 0.41903 0.377432 
0.322015 0.511537 0.41566 0.41566 0.310564 0.278654 0.278654 0.269179 0.299849 
0.299849 0.303529 0.281567 0.281567 0.271739 0.271739 0.265152 0.222897 0.222897 
0.221935 0.273473 0.273473 0.396203 0.362685 0.350596 0.307072 0.273214 0.259603 
0.558416 0.489951 0.525879 0.471736 0.578823 0.478548 0.509036 0.490702 0.490702 
0.631961 0.578683 0.657936 0.666145 0.590454 0.635861 0.600115 0.631592 0.556456 
0.568669 0.501564 0.468696 0.557443 0.557443 0.510546 0.510546 0.51994 0.471359 
0.471359 0.371094 0.301015 0.301015 0.282181 0.260686 0.271618 0.256358 0.256358 
0.273782 0.336243 0.0792892 0.109461 0.151434 0.111093 0.111298 0.115401 0.115401 
0.216422 0.235038 0.283224 0.26986 0.241284 0.318397 0.317552 0.317552 0.350845 
0.318128 0.318128 0.24388 0.286928 0.253751 0.279333 0.322699 0.322699 0.297482 
0.284453 0.349178 0.418959 0.441002 0.443345 0.372166 0.422782 0.442483 0.492864 
0.324002 0.265129 0.272021 0.332782 0.243003 0.439844 0.36548 0.301824 0.301824 
0.293562 0.255339 0.211448 0.211448 0.10906 0.082849 0.082849 0.0927586 0.116314 
0.121981 0.146228 0.144762 0.150321 0.150321 0.156733 0.138216 0.207572 0.220356 
0.137969 0.132292 0.0917217 0.154289 0.154289 0.166011 0.200111 0.191821 0.191821 
0.210193 0.260343 0.260343 0.318908 0.417947 0.448854 0.557999 0.502721 0.466561 
0.45746 0.384023 0.393757 0.436809 0.383968 0.412596 0.348687 0.348687 0.387017 

WidthEq 1 468 double
3.69899 4.6213 1.64188 2.35342 1.62603 1.57342 3.34199 2.90744 2.37088 
2.26378 3.16991 3.23365 2.81516 6.99848 2.32107 4.64054 6.40722 5.69408 
6.31984 3.20038 5.79285 4.21797 4.35442 4.28144 1 4.1768 5.17666 
3.25783 2.16097 5.08519 2.19913 6.2008 1.01902 5.34498 1.94198 1.31304 
6.28706 1.96568 2.89298 2.44494 4.35329 5.28855 5.88255 5.10927 2.63094 
3.20968 4.14364 5.47895 6.39169 6.15185 5.73772 5.66603 5.44004 5.84762 
5.7332 6.05963 7.04744 7.04744 7.54127 7.56605 6.72306 6.48741 6.85725 
6.85725 7.08726 7.30545 7.23323 7.65515 8.17655 8.40511 9.55511 8.85315 
9.44489 8.68736 7.70051 7.47092 7.89526 7.72222 6.68077 5.28855 5.6865 
5.45584 4.19706 3.91401 4.3843 4.3843 5.01775 4.59238 5.06832 5.12695 
4.55149 5.17155 4.92934 5.24152 5.09438 4.82261 4.68278 4.67703 4.50194 
5.35551 5.69118 5.39608 5.59987 4.69858 3.96807 2.9888 2.48611 3.81448 
2.87772 6.28706 9.26926 9.59558 8.77963 8.49776 7.81363 7.24182 6.14389 
6.19145 5.79345 5.10083 5.10083 4.54509 4.35195 4.52408 4.44653 4.36742 
4.36742 4.43309 4.53649 4.54622 3.99215 3.92734 2.922 2.18295 3.84807 
3.82652 4.71986 4.5934 5.07923 4.73028 4.09087 4.23409 3.49139 3.6768 
4.12666 3.92191 4.31696 4.38489 4.691 5.09121 4.95723 4.85975 4.8225 
4.82842 4.98561 5.02081 5.11459 5.2599 6.09816 5.74099 4.91295 5.63136 
5.0896 4.3771 5.5421 5.34498 5.02769 3.97135 4.68159 5.17037 5.57542 
3.72763 3.00928 2.16097 2.0867 6.26218 5.75147 4.37215 3.64842 3.12143 
2.81774 2.55968 2.52399 2.74503 2.74503 2.64932 2.59595 2.59595 2.83161 
3.0298 2.92458 2.89631 3.21645 5.05553 4.41665 4.53789 5.88696 3.91911 
3.89697 3.80577 3.70162 3.70162 3.53685 3.37681 3.7674 3.96625 4.07373 
4.53289 4.64962 4.85357 5.06047 4.82739 4.90059 5.68274 3.74419 3.40508 
3.03631 2.58649 2.51045 2.51045 2.34052 2.44252 2.44252 2.50051 3.0879 
3.58726 3.58726 4.19228 5.0221 5.1112 4.78085 6.0391 6.10455 3.95426 
4.80665 5.35562 6.32247 7.37376 2.47831 2.7432 2.86358 3.33016 4.25844 
4.44191 4.56852 4.83809 4.95659 4.9252 4.82363 4.92499 5.16333 5.46638 
6.05441 3.56818 3.79143 3.96275 3.80341 4.02412 3.79164 3.24708 4.59529 
4.11457 3.57334 4.32298 4.51795 4.16896 5.54946 5.28559 5.38227 6.4528 
5.49164 5.40946 4.73109 4.49157 4.2113 4.47093 4.42503 3.97629 4.03713 
3.77278 4.24484 4.1631 4.1631 4.29482 4.29482 3.94066 3.1317 2.46278 
1.71379 5.81559 4.59195 4.43621 4.27176 4.56041 3.69066 5.18622 5.86718 
6.43641 5.84961 5.60766 5.51163 4.64054 6.30737 5.67242 4.87942 4.48641 
6.73193 6.51245 5.84869 4.70379 4.61286 3.74956 3.39277 3.15733 3.14164 
3.16604 3.03878 3.25939 3.25939 3.51573 3.73785 3.73785 3.73252 3.49596 
3.49596 3.15508 3.16077 3.16077 3.27707 3.27707 3.42378 3.79417 3.79417 
3.91487 4.24242 4.24242 4.28901 4.60388 4.66364 5.37604 6.088 6.76482 
2.29898 2.63755 2.87944 3.18925 2.99681 3.27051 3.08295 3.33973 3.33973 
2.92979 3.09225 2.77394 2.38588 2.34579 2.25346 2.53286 2.51136 2.93425 
3.11052 3.10526 3.33704 3.27481 3.27481 3.38896 3.38896 3.16964 2.75196 
2.75196 2.86751 3.26277 3.26277 3.72785 3.89955 3.9168 3.94926 3.94926 
3.63375 2.72181 4.67251 4.69917 4.93246 4.91139 4.87925 4.84121 4.84121 
4.39564 4.18589 4.34808 3.88816 3.59747 3.62832 3.42083 3.42083 3.4341 
3.34312 3.34312 3.35499 3.02282 3.06038 2.88024 2.96257 2.96257 3.02717 
2.85789 2.91969 6.47021 5.94172 5.30075 4.78209 4.84959 4.78725 4.35297 
3.03523 2.85783 3.34091 2.75003 3.34199 2.7862 3.26707 3.44485 3.44485 
3.37047 3.07274 2.99186 2.99186 3.03695 3.07677 3.07677 2.9521 2.88223 
2.83161 2.71128 2.81941 2.91432 2.91432 3.11837 3.08441 2.95236 2.81043 
2.90582 2.95828 3.11461 3.25503 3.25503 3.31673 3.29486 3.43039 3.43039 
3.4707 3.51229 3.51229 3.31093 2.83859 2.87992 2.39566 2.49449 2.60783 
2.4092 2.67495 2.55935 2.39792 2.71348 2.67544 2.7547 2.7547 2.35191 

rRFP 1 468 double
2906.57 3078.19 2523.79 2656.19 2520.84 2511.05 2840.14 2759.28 2659.44 
2639.51 2808.12 2819.98 2742.11 3520.53 2650.17 3081.77 3410.51 3277.81 
3394.25 2813.79 3296.19 3003.14 3028.53 3014.95 2404.35 2995.48 3181.53 
2824.48 2620.38 3164.51 2627.48 3372.1 2407.89 3212.85 2579.63 2462.6 
3388.15 2584.04 2756.59 2673.22 3028.32 3202.35 3312.88 3168.99 2707.83 
2815.52 2989.31 3237.78 3407.62 3362.99 3285.93 3272.59 3230.54 3306.38 
3285.09 3345.83 3529.64 3529.64 3621.53 3626.14 3469.28 3425.43 3494.25 
3494.25 3537.05 3577.65 3564.21 3642.72 3739.74 3782.27 3996.26 3865.64 
3975.75 3834.79 3651.16 3608.44 3687.4 3655.2 3461.41 3202.35 3276.4 
3233.48 2999.25 2946.58 3034.09 3034.09 3151.96 3072.81 3161.37 3172.28 
3065.2 3180.58 3135.51 3193.6 3166.22 3115.65 3089.63 3088.56 3055.98 
3214.81 3277.27 3222.36 3260.28 3092.57 2956.64 2774.42 2680.88 2928.06 
2753.75 3388.15 3943.07 4003.79 3851.96 3799.51 3672.21 3565.81 3361.51 
3370.36 3296.3 3167.42 3167.42 3064.01 3028.07 3060.1 3045.67 3030.95 
3030.95 3043.17 3062.41 3064.22 2961.12 2949.06 2761.99 2624.47 2934.31 
2930.3 3096.53 3073 3163.4 3098.47 2979.49 3006.14 2867.94 2902.44 
2986.15 2948.05 3021.56 3034.2 3091.16 3165.63 3140.7 3122.56 3115.63 
3116.73 3145.98 3152.53 3169.98 3197.02 3353 3286.54 3132.46 3266.14 
3165.33 3032.75 3249.53 3212.85 3153.81 2957.25 3089.41 3180.36 3255.73 
2911.9 2778.23 2620.38 2606.56 3383.52 3288.49 3031.83 2897.16 2799.1 
2742.59 2694.57 2687.93 2729.06 2729.06 2711.25 2701.32 2701.32 2745.17 
2782.05 2762.47 2757.21 2816.78 3158.99 3040.11 3062.67 3313.7 2947.53 
2943.41 2926.44 2907.06 2907.06 2876.4 2846.62 2919.3 2956.3 2976.3 
3061.74 3083.46 3121.41 3159.91 3116.54 3130.16 3275.7 2914.98 2851.88 
2783.26 2699.56 2685.41 2685.41 2653.79 2672.77 2672.77 2683.56 2792.86 
2885.78 2885.78 2998.36 3152.77 3169.35 3107.88 3342.01 3354.19 2954.07 
3112.68 3214.83 3394.74 3590.36 2679.43 2728.72 2751.12 2837.94 3010.67 
3044.81 3068.37 3118.53 3140.58 3134.74 3115.84 3134.7 3179.05 3235.44 
3344.86 2882.23 2923.77 2955.65 2926 2967.07 2923.81 2822.48 3073.35 
2983.9 2883.19 3022.68 3058.96 2994.02 3250.9 3201.8 3219.79 3418.99 
3240.14 3224.85 3098.62 3054.05 3001.9 3050.21 3041.67 2958.17 2969.49 
2920.3 3008.14 2992.93 2992.93 3017.44 3017.44 2951.54 2801.01 2676.54 
2537.17 3300.42 3072.73 3043.75 3013.15 3066.86 2905.02 3183.31 3310.02 
3415.94 3306.75 3261.73 3243.86 3081.77 3391.93 3273.78 3126.22 3053.09 
3470.93 3430.09 3306.58 3093.54 3076.62 2915.98 2849.59 2805.78 2802.86 
2807.4 2783.72 2824.77 2824.77 2872.47 2913.8 2913.8 2912.81 2868.79 
2868.79 2805.36 2806.42 2806.42 2828.06 2828.06 2855.36 2924.28 2924.28 
2946.74 3007.69 3007.69 3016.36 3074.95 3086.07 3218.63 3351.11 3477.05 
2646.06 2709.06 2754.07 2811.72 2775.91 2826.84 2791.94 2839.72 2839.72 
2763.44 2793.67 2734.44 2662.23 2654.77 2637.59 2689.58 2685.58 2764.27 
2797.07 2796.09 2839.22 2827.64 2827.64 2848.88 2848.88 2808.07 2730.35 
2730.35 2751.85 2825.4 2825.4 2911.94 2943.89 2947.1 2953.14 2953.14 
2894.43 2724.74 3087.72 3092.68 3136.09 3132.17 3126.19 3119.11 3119.11 
3036.2 2997.17 3027.35 2941.77 2887.68 2893.42 2854.81 2854.81 2857.28 
2840.35 2840.35 2842.56 2780.75 2787.74 2754.22 2769.54 2769.54 2781.56 
2750.06 2761.56 3422.23 3323.89 3204.62 3108.11 3120.67 3109.07 3028.26 
2783.06 2750.05 2839.94 2729.99 2840.14 2736.72 2826.2 2859.28 2859.28 
2845.44 2790.04 2774.99 2774.99 2783.38 2790.79 2790.79 2767.59 2754.59 
2745.17 2722.78 2742.9 2760.56 2760.56 2798.53 2792.21 2767.64 2741.23 