# vtk DataFile Version 3.0
vtk output
ASCII
DATASET POLYDATA
POINTS 343 float
-0.35765 -0.996164 -0.482876 -0.30949 -0.835451 -0.303909 -0.531778 -0.47729 0.57488 
-0.442814 -0.299109 0.463359 -0.636681 -0.23964 0.711138 -0.0778783 -0.305004 1.61306 
-0.882513 -0.00430608 0.333434 -0.867749 0.0101137 0.60333 0.782847 -0.289758 1.63988 
1.81008 -0.0991736 1.77524 1.40543 0.0668279 1.71369 -0.310726 0.352581 1.45617 
1.80592 0.230807 1.57478 -0.0186658 1.51842 1.44049 5.25738 0.279648 0.482983 
0.0987272 1.50103 1.57416 0.644964 1.58016 1.50642 6.43574 0.608733 0.113268 
0.977976 1.93084 1.72351 6.38317 0.762179 -0.855928 5.0298 1.10352 -0.250942 
5.95972 0.942269 0.450253 5.57604 1.18266 -0.318676 0.546625 2.3993 1.13927 
-0.0832297 2.67863 0.127688 2.6331 2.10971 -2.44504 3.53714 2.05414 -0.22132 
2.79267 2.49542 -2.28321 2.22232 2.41093 -2.37888 2.33435 2.53028 -2.26561 
6.70673 1.73981 -0.503699 2.80671 2.51859 -1.88236 0.501228 3.15665 0.0103998 
0.432911 3.18159 0.158506 3.03845 2.66162 -2.04465 1.4149 3.11011 -0.724512 
1.30103 3.15169 -0.477668 1.1841 3.18589 -0.353548 1.32476 3.36218 -0.318358 
2.72279 3.15576 -1.84457 2.75076 2.94337 -1.85717 2.77874 2.73098 -1.86976 
1.25523 3.27764 -0.33619 1.18655 3.18145 -0.412943 1.23344 3.16854 -0.45041 
1.1111 3.19626 -0.327692 1.03488 3.19219 -0.30089 0.953842 3.16647 -0.272667 
0.871193 3.13355 -0.24397 0.790152 3.10783 -0.215747 0.712415 3.09652 -0.18866 
0.636193 3.08465 -0.164857 0.565028 3.05533 -0.158043 0.503187 3.007 -0.17747 
0.427242 2.95602 -0.169333 0.343778 2.90778 -0.144896 0.263034 2.85857 -0.126093 
0.190184 2.80677 -0.119867 0.121506 2.75527 -0.0948782 0.0726111 2.70825 -0.0503886 
0.0278876 2.67562 -0.00437018 -0.023736 2.66687 0.0345647 -0.058654 2.66997 0.0792085 
1.49715 3.15063 -0.754667 1.56254 3.17181 -0.789347 1.58712 3.16315 -0.837826 
1.58133 3.13019 -0.896217 1.58561 3.08779 -0.948374 1.60185 3.05815 -0.997164 
1.62463 3.04984 -1.04653 1.65232 3.05563 -1.09601 1.69055 3.06693 -1.14155 
1.74058 3.06095 -1.17874 1.78282 3.0414 -1.21724 1.82641 3.00656 -1.25253 
1.8566 2.98178 -1.29571 1.87957 2.96591 -1.34372 1.90414 2.95725 -1.39219 
1.93916 2.95413 -1.43679 1.99079 2.95536 -1.47445 2.03946 2.96467 -1.51485 
2.08949 2.95869 -1.55204 2.12128 2.94113 -1.59569 2.14094 2.91084 -1.64279 
2.16059 2.88808 -1.69117 2.18175 2.87255 -1.74006 2.20453 2.86423 -1.78943 
2.2272 2.85594 -1.83885 2.24827 2.84795 -1.88906 2.2605 2.84164 -1.94363 
2.25764 2.83069 -2.00438 2.26334 2.80306 -2.05837 2.26383 2.75135 -2.11078 
2.25214 2.68682 -2.16809 2.27006 2.61107 -2.21864 2.98669 2.54717 -2.11035 
2.93948 2.46967 -2.17693 2.88386 2.45523 -2.23827 2.98817 2.74171 -2.0379 
2.94511 2.80356 -2.05286 2.89983 2.82722 -2.0779 2.84817 2.78319 -2.11317 
2.80758 2.6661 -2.18104 3.04159 2.56722 -1.96603 3.04247 2.50332 -1.89371 
3.03875 2.47778 -1.832 3.05743 2.46981 -1.77417 3.09359 2.4648 -1.7277 
3.12921 2.46027 -1.67579 3.16711 2.45492 -1.62857 3.19874 2.45186 -1.56775 
3.23032 2.44882 -1.50683 3.26747 2.44375 -1.45796 3.29905 2.4407 -1.39705 
3.33064 2.43766 -1.33613 3.36774 2.43261 -1.28718 3.39691 2.42264 -1.22405 
3.41873 2.39976 -1.151 3.43488 2.35552 -1.07495 3.44937 2.3116 -0.999599 
3.45815 2.28382 -0.929596 3.45836 2.28776 -0.868892 3.46313 2.29083 -0.805934 
3.46172 2.28755 -0.744756 3.4704 2.25978 -0.674802 3.4848 2.22342 -0.600763 
3.48876 2.17399 -0.52934 3.47943 2.12709 -0.464426 3.48541 2.08485 -0.392522 
3.50689 2.06251 -0.312439 2.7016 2.6176 -2.23719 2.64495 2.69859 -2.23837 
2.59718 2.72813 -2.25954 2.53909 2.70682 -2.27942 2.45535 2.63385 -2.28516 
0.455683 3.17328 0.109138 0.478456 3.16496 0.0597685 2.70845 2.30299 -2.3727 
6.68576 1.74778 -0.453441 6.67353 1.75409 -0.398873 6.6747 1.75785 -0.337694 
6.66236 1.76417 -0.283175 6.63798 1.76527 -0.233332 6.59985 1.75395 -0.187742 
6.54178 1.72386 -0.148184 6.48668 1.68568 -0.105897 6.42852 1.65561 -0.0663881 
6.38858 1.64463 -0.0216875 6.35195 1.64806 0.0221106 6.30515 1.66096 0.0596256 
6.27013 1.66408 0.104221 6.23752 1.64418 0.153801 6.18964 1.58959 0.202184 
6.12051 1.50143 0.246419 6.06161 1.38876 0.299381 6.01796 1.258 0.360271 
5.99109 1.10813 0.418948 2.28079 2.46652 -2.33766 3.4713 1.97475 -0.148079 
3.42625 1.91277 -0.0868511 3.4016 1.86889 -0.0280451 3.39144 1.82216 0.0364933 
3.36795 1.77795 0.0943753 3.33724 1.74265 0.147427 3.30974 1.72931 0.198263 
3.28365 1.7232 0.248532 3.25444 1.71018 0.298527 3.21319 1.67689 0.346379 
3.16416 1.63004 0.392929 3.1387 1.56364 0.45364 3.10386 1.47648 0.51352 
3.05535 1.36183 0.571732 3.00212 1.23304 0.630144 2.95352 1.12593 0.687041 
2.91296 1.06242 0.740302 2.87152 1.03668 0.786792 2.81667 1.02102 0.825403 
2.76156 0.982845 0.867689 2.69697 0.923906 0.909093 2.64256 0.847998 0.958054 
2.58975 0.779288 1.00654 2.52516 0.720359 1.04795 2.46674 0.667768 1.09113 
2.40205 0.616381 1.13122 2.34192 0.564115 1.17356 2.2685 0.514382 1.20934 
2.1982 0.471578 1.2454 2.15182 0.439266 1.29072 2.11179 0.428307 1.33538 
2.06157 0.434325 1.37247 2.01387 0.437364 1.41131 1.94637 0.414188 1.44687 
1.8699 0.343141 1.49513 3.60543 1.97148 -0.205932 3.66337 1.89782 -0.204504 
3.7145 1.84104 -0.200834 3.77531 1.80393 -0.212163 3.83851 1.78154 -0.2228 
3.89287 1.77018 -0.211254 3.94238 1.76059 -0.189197 3.99184 1.75102 -0.167042 
4.04383 1.73273 -0.15338 4.09968 1.69742 -0.154102 4.14933 1.64097 -0.150416 
4.20368 1.57499 -0.159953 4.25964 1.51624 -0.169964 4.31416 1.48142 -0.167787 
4.37407 1.46023 -0.171296 4.4334 1.44705 -0.17054 4.49897 1.4316 -0.183293 
4.56382 1.41641 -0.194502 4.61737 1.39754 -0.184215 4.667 1.36451 -0.171446 
4.71806 1.30754 -0.170839 4.76614 1.24385 -0.166776 4.82291 1.18481 -0.17852 
4.88867 1.14588 -0.20075 4.95841 1.1211 -0.22556 0.479641 2.37091 1.17443 
0.433163 2.33861 1.21971 0.381764 2.28468 1.26636 0.298612 2.19167 1.3049 
0.190835 2.02811 1.34344 0.0785489 1.7975 1.38791 5.59196 1.07786 -0.354955 
5.63492 0.998013 -0.382963 5.68753 0.953927 -0.412544 5.7332 0.933726 -0.44935 
5.79234 0.918482 -0.480777 5.85148 0.903239 -0.512204 5.89884 0.890238 -0.54944 
5.9597 0.874668 -0.580021 6.02938 0.857416 -0.606245 6.10058 0.839875 -0.631723 
6.17017 0.822641 -0.657995 6.22931 0.807398 -0.689422 6.26614 0.796405 -0.731856 
6.30126 0.785737 -0.775132 6.34815 0.772828 -0.812604 6.01016 0.830907 0.431125 
6.06628 0.748691 0.411736 6.12621 0.704073 0.398899 6.18307 0.683696 0.397456 
6.23889 0.669947 0.377527 6.28375 0.657563 0.341182 6.33221 0.644362 0.304607 
6.36562 0.634021 0.260485 6.3901 0.625381 0.211958 6.41297 0.617048 0.162637 
5.86188 0.836859 0.481755 5.77054 0.736891 0.502181 5.69358 0.647262 0.497452 
5.62241 0.563333 0.483184 5.55268 0.502272 0.474829 5.47919 0.458198 0.480671 
5.40944 0.42056 0.481397 5.33268 0.362077 0.488283 0.898739 1.88106 1.73878 
0.831515 1.83469 1.73103 0.772445 1.80096 1.71162 0.719902 1.78827 1.68736 
0.675649 1.78064 1.65268 0.649929 1.75249 1.59984 0.645045 1.6819 1.55047 
-0.107458 1.60656 1.43898 -0.172244 1.63518 1.42346 -0.232568 1.60159 1.40197 
-0.295705 1.52251 1.37305 -0.355586 1.42665 1.33129 -0.425758 1.31114 1.30281 
-0.49835 1.18091 1.27355 -0.562145 1.03967 1.2222 -0.615366 0.925769 1.15999 
-0.662089 0.856351 1.10226 -0.703769 0.824662 1.05726 -0.721555 0.787333 1.00748 
-0.717222 0.707597 0.965931 -0.752698 0.590902 0.92135 -0.816802 0.458186 0.88303 
-0.871317 0.34511 0.828935 -0.903248 0.264615 0.768563 -0.904573 0.200627 0.716063 
-0.891774 0.118332 0.66426 0.0442793 1.50996 1.5254 -0.0565416 1.21983 1.39728 
-0.114985 0.958453 1.38745 -0.188134 0.739108 1.38895 -0.249359 0.541154 1.40928 
1.70928 0.215278 1.60863 1.61932 0.184154 1.63993 1.5217 0.130807 1.67363 
1.81351 0.0663014 1.68177 -0.3597 0.192462 1.39928 -0.38886 0.0661696 1.34582 
-0.42025 -0.00703864 1.2824 -0.45087 -0.0352611 1.21188 -0.479028 -0.0412583 1.14078 
-0.511321 -0.0457452 1.07865 -0.551402 -0.0626905 1.03191 -0.57958 -0.105563 0.978137 
-0.583041 -0.161402 0.926788 -0.584422 -0.210283 0.872465 -0.605016 -0.233232 0.800421 
-0.290376 0.322431 1.52939 -0.269161 0.26856 1.5917 -0.238231 0.179931 1.6209 
-0.197631 0.0565624 1.61708 -0.153705 -0.0758269 1.60303 -0.11222 -0.199519 1.59729 
1.28787 -0.00707643 1.75263 1.19316 -0.0795837 1.77459 1.11974 -0.147259 1.76882 
1.05494 -0.206217 1.75119 0.993406 -0.25466 1.73109 0.935138 -0.288684 1.70994 
0.881695 -0.301065 1.68738 0.831466 -0.299021 1.66386 -0.805163 -0.0704492 0.631252 
-0.757844 -0.14002 0.658892 -0.707308 -0.195156 0.685584 -0.887361 0.00893392 0.518737 
-0.889548 0.0050398 0.451964 -0.892926 0.00165736 0.388944 -0.578091 -0.354443 0.667261 
-0.54963 -0.432198 0.621918 -0.487667 -0.392325 0.397097 -0.515734 -0.458643 0.334047 
-0.513547 -0.493123 0.27959 -0.506439 -0.505978 0.22376 -0.518231 -0.507708 0.157339 
-0.529926 -0.509457 0.0909656 -0.519405 -0.515438 0.035552 -0.498348 -0.523427 -0.0146627 
-0.473957 -0.53205 -0.0632337 -0.44064 -0.542374 -0.1074 -0.395546 -0.562466 -0.144489 
-0.366919 -0.594459 -0.187169 -0.351275 -0.654065 -0.231187 -0.331335 -0.737063 -0.269284 
-0.508608 -0.387896 0.509238 -0.467591 -0.395711 0.529474 -0.333421 -0.910091 -0.36365 
-0.359175 -0.961811 -0.428091 
LINES 33 404
4 39 40 41 31 
3 38 42 37 
4 37 43 44 36 
20 37 45 46 47 48 49 50 51 52 53 54 55 56 57 58 59 60 61 62 24 
34 35 63 64 65 66 67 68 69 70 71 72 73 74 75 76 77 78 79 80 81 82 83 84 85 86 87 88 89 90 91 92 93 94 29 
5 34 95 96 97 27 
7 34 98 99 100 101 102 27 
29 34 103 104 105 106 107 108 109 110 111 112 113 114 115 116 117 118 119 120 121 122 123 124 125 126 127 128 129 26 
7 27 130 131 132 133 134 29 
4 33 135 136 32 
3 27 137 25 
21 30 138 139 140 141 142 143 144 145 146 147 148 149 150 151 152 153 154 155 156 21 
3 29 157 28 
37 26 158 159 160 161 162 163 164 165 166 167 168 169 170 171 172 173 174 175 176 177 178 179 180 181 182 183 184 185 186 187 188 189 190 191 192 12 
27 26 193 194 195 196 197 198 199 200 201 202 203 204 205 206 207 208 209 210 211 212 213 214 215 216 217 20 
8 23 218 219 220 221 222 223 13 
17 22 224 225 226 227 228 229 230 231 232 233 234 235 236 237 238 19 
12 21 239 240 241 242 243 244 245 246 247 248 17 
10 21 249 250 251 252 253 254 255 256 14 
9 18 257 258 259 260 261 262 263 16 
21 13 264 265 266 267 268 269 270 271 272 273 274 275 276 277 278 279 280 281 282 7 
3 15 283 13 
6 13 284 285 286 287 11 
3 12 291 9 
13 11 292 293 294 295 296 297 298 299 300 301 302 4 
8 11 303 304 305 306 307 308 5 
5 7 317 318 319 4 
5 7 320 321 322 6 
4 4 323 324 2 
3 3 339 2 
3 3 340 2 
14 12 288 289 290 10 309 310 311 312 313 314 315 316 8 
19 3 325 326 327 328 329 330 331 332 333 334 335 336 337 338 1 341 342 0 

POINT_DATA 343
SCALARS DY_raw double
LOOKUP_TABLE default
56.88 13.8026 20.5343 0 22.5648 18.4867 25.1477 18.7021 17.5835 
25.1315 26.7255 30.6629 19.0987 38.3254 25.2483 25.8572 53.7756 95.7925 
36.8143 51.2701 136.427 29.1474 80.2151 25.9272 65.4966 191.295 36.5873 
84.6912 56.7631 61.5244 65.7701 91.9635 45.7437 99.854 59.5903 88.1627 
77.8176 47.7721 55.6844 146.079 106.682 100.786 39.7806 47.2698 77.8176 
45.1479 41.7422 41.7422 41.2833 53.3649 66.8715 59.6242 55.2385 47.4626 
40.6668 45.428 37.0691 32.4493 32.9188 33.159 36.4414 38.5596 40.2006 
68.7726 55.0541 55.0541 60.0783 65.5111 65.5111 67.3025 67.7402 61.6753 
66.1646 66.5867 70.3499 66.9021 63.527 56.9203 52.0544 52.0544 46.2615 
49.9777 49.9777 51.1834 59.4744 59.4744 55.4201 55.4304 55.4304 56.9906 
56.9906 60.3257 60.3163 53.9805 55.8167 58.4358 63.5297 75.5841 62.3659 
64.0797 63.9733 62.8194 66.1743 57.3762 57.4336 59.9317 55.0822 52.0698 
52.0698 53.0629 52.5252 52.5252 62.5713 74.8035 71.4492 108.381 103.494 
108.98 82.0659 70.8178 60.6311 54.7816 54.7816 48.3781 47.0873 53.6757 
50.716 40.8953 32.1784 33.4525 72.253 72.9935 81.7818 77.4832 65.4473 
71.3407 45.7437 95.9995 65.7701 57.2708 49.5457 49.5457 48.7204 41.3911 
45.6298 47.0618 47.0678 59.4068 47.0957 44.2285 44.2285 44.0257 47.3693 
49.3776 51.0076 42.4609 37.0353 58.7627 53.0183 65.0574 73.5609 65.1967 
62.1931 51.2663 44.7264 44.7264 39.7327 41.0711 41.7715 36.9523 33.3702 
35.956 43.2806 53.1278 36.7925 37.44 37.44 36.122 40.8062 34.9017 
26.96 28.1278 30.1633 31.5987 34.428 25.5888 23.5657 23.2685 28.0002 
25.1567 23.6155 26.6233 26.1038 45.2611 53.7045 70.1885 79.7819 89.4964 
77.4051 68.5998 68.5998 56.3709 53.5482 59.292 58.3325 61.9443 58.8378 
52.2512 55.8435 55.3776 57.7025 57.7025 79.1872 89.5129 119.185 119.202 
138.599 160.216 24.2714 21.1817 22.5673 29.2657 30.2801 28.9839 63.6216 
57.2344 65.2977 56.8483 73.7057 69.3908 57.217 62.6789 53.6607 53.6607 
46.152 40.5469 44.989 44.7544 44.7544 33.4784 32.8893 41.7989 39.1409 
40.0813 44.5227 50.1992 50.1992 60.1098 95.7925 30.5142 34.8079 36.189 
31.8598 26.9744 22.6701 21.8994 25.0327 32.6159 30.9391 33.8526 32.5966 
28.7024 33.5482 45.7631 32.315 31.1631 32.3058 26.5158 27.9474 28.323 
30.2238 18.8774 18.7546 18.4224 16.687 16.7677 18.0843 27.7635 24.5077 
15.991 18.8259 19.2728 18.6163 28.9022 32.543 25.1264 30.2123 31.687 
24.3209 27.3894 24.5087 20.7275 25.638 25.2172 25.9165 25.3249 25.7691 
22.4983 17.2892 19.505 22.4746 22.731 26.857 29.0314 29.4523 32.7078 
25.6571 22.55 12.7981 30.8163 30.163 27.8013 25.3473 21.0165 24.2342 
24.2342 18.6715 25.2218 28.4688 23.2612 15.5596 17.6765 10.9555 17.662 
18.0623 6.29669 20.6193 29.8311 49.8542 54.2234 48.7204 42.1777 42.1777 
40.6368 37.2409 37.2409 24.7872 17.5875 17.2115 9.07297 15.374 23.9231 
39.9934 
FIELD FieldData 7
DY_minmax 1 343 double
0.297341 0.0721535 0.107343 0 0.117958 0.0966394 0.13146 0.0977653 0.0919182 
0.131376 0.139708 0.160291 0.099839 0.200347 0.131986 0.135169 0.281113 0.500757 
0.192448 0.268015 0.713174 0.152368 0.419326 0.135535 0.342385 1 0.191261 
0.442725 0.29673 0.32162 0.343814 0.480741 0.239126 0.521988 0.311509 0.460872 
0.406793 0.24973 0.291091 0.76363 0.55768 0.526859 0.207954 0.247104 0.406793 
0.236011 0.218208 0.218208 0.215809 0.278966 0.349572 0.311686 0.28876 0.248111 
0.212586 0.237476 0.193779 0.169629 0.172083 0.173339 0.190498 0.201571 0.210149 
0.35951 0.287796 0.287796 0.31406 0.342461 0.342461 0.351825 0.354113 0.322408 
0.345877 0.348083 0.367755 0.349732 0.332088 0.297552 0.272115 0.272115 0.241833 
0.261259 0.261259 0.267562 0.310904 0.310904 0.28971 0.289763 0.289763 0.297919 
0.297919 0.315354 0.315304 0.282184 0.291783 0.305474 0.332103 0.395117 0.326019 
0.334977 0.334422 0.328389 0.345927 0.299935 0.300235 0.313294 0.287943 0.272196 
0.272196 0.277387 0.274576 0.274576 0.327092 0.391037 0.373502 0.566563 0.541016 
0.569695 0.429001 0.370201 0.31695 0.286372 0.286372 0.252897 0.24615 0.280591 
0.265119 0.213781 0.168213 0.174874 0.377704 0.381575 0.427516 0.405045 0.342127 
0.372935 0.239126 0.501839 0.343814 0.299384 0.259001 0.259001 0.254687 0.216372 
0.238531 0.246017 0.246048 0.31055 0.246194 0.231205 0.231205 0.230145 0.247624 
0.258122 0.266643 0.221965 0.193603 0.307183 0.277154 0.340089 0.384541 0.340817 
0.325115 0.267995 0.233808 0.233808 0.207703 0.2147 0.218361 0.193169 0.174443 
0.187961 0.22625 0.277727 0.192333 0.195718 0.195718 0.188828 0.213315 0.182449 
0.140934 0.147038 0.157679 0.165183 0.179973 0.133766 0.12319 0.121636 0.146372 
0.131507 0.12345 0.139174 0.136458 0.236603 0.280741 0.366911 0.417061 0.467844 
0.404636 0.358607 0.358607 0.29468 0.279924 0.30995 0.304934 0.323815 0.307576 
0.273144 0.291923 0.289488 0.301641 0.301641 0.413953 0.46793 0.62304 0.623132 
0.72453 0.837533 0.126879 0.110728 0.117971 0.152987 0.15829 0.151514 0.332583 
0.299194 0.341345 0.297175 0.385298 0.362742 0.299103 0.327655 0.280512 0.280512 
0.241261 0.21196 0.235181 0.233954 0.233954 0.175009 0.171929 0.218505 0.20461 
0.209526 0.232743 0.262417 0.262417 0.314225 0.500757 0.159513 0.181959 0.189179 
0.166548 0.141009 0.118508 0.114479 0.130859 0.1705 0.161735 0.176965 0.170399 
0.150042 0.175374 0.239227 0.168927 0.162905 0.168879 0.138612 0.146096 0.148059 
0.157995 0.0986818 0.0980402 0.0963032 0.0872315 0.0876535 0.0945362 0.145134 0.128114 
0.0835933 0.0984125 0.100749 0.097317 0.151087 0.170119 0.131349 0.157935 0.165644 
0.127138 0.143179 0.12812 0.108353 0.134023 0.131823 0.135479 0.132386 0.134709 
0.11761 0.0903794 0.101963 0.117486 0.118826 0.140395 0.151762 0.153962 0.170981 
0.134123 0.117881 0.0669025 0.161092 0.157677 0.145332 0.132504 0.109864 0.126685 
0.126685 0.0976055 0.131848 0.148821 0.121598 0.0813378 0.0924044 0.0572701 0.0923282 
0.094421 0.0329161 0.107788 0.155943 0.260613 0.283454 0.254687 0.220485 0.220485 
0.21243 0.194677 0.194677 0.129576 0.091939 0.0899733 0.0474291 0.0803676 0.125059 
0.209066 
WidthEq 1 343 double
1 3.08926 2.4968 2.41132 4.30095 4.08727 2.57479 4.69039 2.31068 
4.42034 4.39206 5.29075 6.87323 8.802 8.99703 8.40077 4.61045 2.54425 
6.12098 4.43787 1.63479 9.99472 2.67082 10.4952 2.18668 1.86272 7.99841 
5.13087 7.57095 6.97089 4.22152 3.50085 4.6496 2.20933 7.21645 4.32893 
4.5383 7.8125 7.38411 3.88742 4.26118 4.15009 9.92544 7.45042 4.5383 
8.69808 9.82173 9.82173 9.22844 7.20774 5.83761 6.41501 6.34666 6.5382 
7.46949 7.33666 8.58801 9.75767 9.8579 9.05637 7.12349 6.07138 5.74743 
5.65109 7.70951 7.70951 6.901 5.87686 5.87686 5.63233 5.03054 5.80687 
5.41589 5.85012 5.26113 5.63151 5.67743 6.29459 6.02639 6.02639 6.79831 
6.34543 6.34543 5.81732 5.98324 5.98324 6.75639 7.19985 7.19985 7.57002 
7.57002 7.2886 7.01701 7.499 7.71955 7.07973 6.54261 6.02045 7.24514 
7.03187 7.11765 7.17884 6.85478 7.13118 7.15434 7.36638 7.75696 7.44058 
7.44058 6.21527 5.63254 5.63254 4.44853 3.88578 3.72754 2.61568 2.37463 
2.45724 3.35255 4.24017 5.52175 6.36746 6.36746 6.56413 6.77422 6.29931 
6.04228 6.07087 7.01558 7.44817 5.86426 5.71832 5.3463 5.83249 6.49424 
3.03515 4.6496 4.18586 4.22152 4.86339 5.30541 5.30541 5.48045 6.35475 
6.00046 6.50038 6.55798 5.82357 7.20087 7.33666 7.33666 6.34471 6.01655 
6.06246 6.73292 8.4393 9.10535 7.55547 6.46513 5.41875 4.54671 4.54548 
4.64489 5.52585 5.97074 5.97074 6.24171 6.1917 5.96172 5.55229 5.72457 
4.27328 3.34445 2.91166 4.56669 5.17976 5.17976 5.57084 5.17617 5.60087 
7.0371 6.96536 6.80364 6.83572 6.29285 6.93584 7.10525 7.10617 6.73958 
7.02039 6.94671 6.96946 6.65268 7.15957 6.0723 4.49874 3.46006 3.0618 
3.59124 3.82552 3.82552 4.30115 4.48306 4.36787 4.19303 3.94112 4.11504 
4.73559 4.60072 4.55491 4.03449 4.03449 3.33564 2.91053 2.43848 2.34635 
1.90997 1.6806 11.7381 12.3866 11.0359 9.39426 8.56075 8.4433 3.32529 
3.80523 3.49951 4.09792 3.16787 3.47553 4.02782 3.88281 4.17848 4.17848 
4.48973 4.95747 4.97633 4.98186 4.98186 10.0357 9.84058 9.24904 9.35798 
9.4453 8.73487 7.56367 7.56367 5.86344 2.54425 10.0265 8.68137 7.98171 
8.40589 9.32847 10.6987 11.34 10.8714 6.95029 7.91263 7.56367 7.98335 
8.08122 7.02542 5.68952 8.46882 7.20661 5.74046 4.44566 4.68988 5.11068 
5.47317 6.68578 6.62716 7.64668 7.91335 6.50059 6.10141 4.1958 3.71842 
4.16546 4.43592 5.06621 5.02839 9.96152 6.77566 6.91145 6.50961 5.70612 
6.19426 5.28891 4.8599 6.26221 5.2391 4.66467 4.08891 3.54276 2.79831 
2.69398 2.76705 2.90951 3.28593 3.56254 4.02465 5.24914 4.80302 4.29408 
4.31888 4.45365 4.62255 4.2536 4.15675 3.7545 3.32303 3.10423 2.85919 
2.85919 2.62593 4.53297 4.27451 4.28353 4.52262 4.16597 3.72324 3.89254 
3.13969 2.73795 2.56895 2.51248 2.39298 1.95137 2.27399 2.81286 2.81286 
3.50003 3.60733 3.60733 3.52319 3.82829 3.81722 2.21978 2.13738 2.94025 
2.1051 
rRFP 1 343 double
2346.7 2550.56 2492.75 2484.41 2668.79 2647.94 2500.36 2706.79 2474.59 
2680.44 2677.68 2765.37 2919.78 3107.98 3127.01 3068.83 2698.99 2497.38 
2846.38 2682.15 2408.64 3224.36 2509.73 3273.19 2462.49 2430.88 3029.57 
2749.77 2987.86 2929.31 2661.04 2590.72 2702.81 2464.7 2953.27 2671.52 
2691.95 3011.43 2969.63 2628.44 2664.91 2654.07 3217.6 2976.1 2691.95 
3097.84 3207.48 3207.48 3149.59 2952.42 2818.73 2875.07 2868.4 2887.09 
2977.96 2965 3087.1 3201.23 3211.01 3132.8 2944.2 2841.54 2809.93 
2800.53 3001.38 3001.38 2922.49 2822.56 2822.56 2798.7 2739.98 2815.73 
2777.58 2819.95 2762.48 2798.62 2803.1 2863.32 2837.15 2837.15 2912.47 
2868.28 2868.28 2816.75 2832.94 2832.94 2908.38 2951.65 2951.65 2987.77 
2987.77 2960.31 2933.81 2980.84 3002.36 2939.93 2887.52 2836.57 2956.07 
2935.26 2943.63 2949.6 2917.98 2944.95 2947.21 2967.9 3006.01 2975.14 
2975.14 2855.58 2798.72 2798.72 2683.19 2628.28 2612.84 2504.35 2480.83 
2488.89 2576.25 2662.86 2787.91 2870.43 2870.43 2889.62 2910.12 2863.78 
2838.7 2841.49 2933.67 2975.88 2821.33 2807.09 2770.79 2818.23 2882.8 
2545.28 2702.81 2657.56 2661.04 2723.67 2766.8 2766.8 2783.88 2869.19 
2834.62 2883.4 2889.02 2817.36 2951.75 2965 2965 2868.21 2836.19 
2840.67 2906.09 3072.59 3137.58 2986.35 2879.96 2777.86 2692.77 2692.65 
2702.35 2788.31 2831.72 2831.72 2858.16 2853.28 2830.84 2790.89 2807.7 
2666.09 2575.46 2533.23 2694.72 2754.54 2754.54 2792.7 2754.19 2795.63 
2935.77 2928.77 2912.99 2916.12 2863.15 2925.89 2942.42 2942.51 2906.74 
2934.14 2926.95 2929.17 2898.26 2947.72 2841.63 2688.09 2586.74 2547.88 
2599.54 2622.4 2622.4 2668.81 2686.56 2675.32 2658.26 2633.68 2650.65 
2711.2 2698.04 2693.57 2642.79 2642.79 2574.6 2533.12 2487.06 2478.07 
2435.49 2413.11 3394.47 3457.75 3325.95 3165.77 3084.44 3072.98 2573.59 
2620.42 2590.59 2648.98 2558.23 2588.25 2642.14 2627.99 2656.84 2656.84 
2687.21 2732.85 2734.69 2735.23 2735.23 3228.36 3209.32 3151.6 3162.23 
3170.75 3101.43 2987.15 2987.15 2821.25 2497.38 3227.46 3096.21 3027.94 
3069.33 3159.35 3293.05 3355.63 3309.9 2927.3 3021.2 2987.15 3028.1 
3037.65 2934.63 2804.28 3075.47 2952.31 2809.25 2682.91 2706.74 2747.8 
2783.17 2901.49 2895.77 2995.25 3021.27 2883.42 2844.47 2658.53 2611.95 
2655.57 2681.96 2743.46 2739.77 3221.12 2910.26 2923.51 2884.3 2805.9 
2853.53 2765.19 2723.33 2860.16 2760.33 2704.28 2648.1 2594.81 2522.17 
2511.99 2519.12 2533.02 2569.75 2596.74 2641.83 2761.31 2717.78 2668.12 
2670.54 2683.69 2700.17 2664.17 2654.72 2615.47 2573.37 2552.02 2528.11 
2528.11 2505.35 2691.43 2666.21 2667.09 2690.42 2655.62 2612.42 2628.94 
2555.48 2516.28 2499.79 2494.28 2482.62 2439.53 2471.01 2523.59 2523.59 
2590.64 2601.11 2601.11 2592.9 2622.67 2621.59 2465.72 2457.68 2536.02 
2454.53 
rGFP 1 343 double
2569.02 2554.78 2563.41 2512.14 2609.19 2587.7 2576.89 2599.86 2552.77 
2623.23 2629.52 2674.37 2643.41 2849.48 2739.3 2729.36 2760.07 2755.86 
2737.48 2739.67 2735.17 2803.46 2726.38 2784.25 2655.36 2868.47 2804.78 
2946.68 2941.89 2941.02 2789.79 2834.09 2724.83 2732.75 2942.17 2893.79 
2865.3 2885.36 2923.32 3080.01 2966.73 2930.41 2906.98 2864.32 2865.3 
2904.84 2922.12 2922.12 2893.12 2896.78 2902.51 2894.63 2862.72 2822.46 
2815.9 2845.43 2830.49 2828.77 2836.65 2812.44 2771.73 2746.25 2743.19 
2900.78 2936.58 2936.58 2926.74 2897.14 2897.14 2891.21 2852.91 2870.28 
2870.48 2901.68 2882.26 2888.9 2872.81 2870.43 2825.84 2825.84 2826.64 
2829.27 2829.27 2809.89 2867.99 2867.99 2886.58 2911.23 2911.23 2943.56 
2943.56 2951.83 2935.38 2916.94 2943.02 2925.85 2927.79 2967.19 2963.99 
2962.74 2967.48 2963.11 2965.75 2921.3 2923.04 2953.62 2939.41 2899.57 
2899.57 2841.94 2807.99 2807.99 2790.49 2802.81 2778.47 2795.63 2757.9 
2779.93 2787.27 2812.42 2846.93 2860.96 2860.96 2829.7 2831.12 2850.26 
2818.58 2760.41 2737.89 2761.3 2935.85 2929.54 2949.37 2964.06 2937.17 
2728.67 2724.83 2913.98 2789.79 2790.67 2775 2775 2779.15 2775.17 
2785.94 2818.06 2820.81 2858.1 2851.27 2836.63 2836.63 2791.47 2797.14 
2811.49 2855.57 2870.48 2849.36 2956.12 2854.91 2864.67 2846.6 2808.49 
2801.02 2795.43 2779.19 2779.19 2760.14 2766.44 2761.17 2717.31 2703.17 
2665.79 2656.89 2666.83 2680.16 2706.07 2706.07 2713.37 2723.36 2707.62 
2701.86 2708.06 2717.36 2728.14 2728.79 2689.62 2679.58 2677.49 2700.85 
2688.75 2676.19 2697.69 2685.8 2836.19 2838.25 2827.9 2788.19 2786.16 
2790.12 2774.57 2774.57 2754.6 2752.2 2771.12 2756.73 2756.27 2754.26 
2759.58 2769.06 2764.38 2744.94 2744.94 2776.28 2772.67 2802.77 2791.83 
2776.86 2781.4 2797.04 2774.51 2761.19 2787.07 2771.36 2756.86 2723.7 
2729.93 2740.65 2745.1 2745.63 2753.31 2742.6 2755.51 2736.36 2736.36 
2719.35 2713.15 2736.02 2735.1 2735.1 2848.12 2835.79 2898.74 2878.42 
2890.72 2901.04 2891.83 2891.83 2864.59 2755.86 2818.09 2814.32 2800.99 
2779.95 2763.77 2754.68 2760.48 2784.28 2738.83 2756.95 2768.19 2772.37 
2744.09 2747.83 2772.51 2785.81 2736.72 2697.59 2630.02 2643.21 2656.89 
2677.56 2638.35 2636.43 2653.01 2644.19 2621.14 2622.48 2628.63 2603.27 
2578.75 2595.65 2609.78 2605.75 2800.05 2732.64 2685.8 2708.81 2692.95 
2662.79 2657 2631.25 2641.94 2646.46 2629.77 2618.11 2601.86 2584.25 
2572.75 2559.98 2568.89 2585.99 2593.12 2620.23 2664.53 2653.6 2652.59 
2622.95 2612.57 2571.3 2643.22 2637.52 2616.52 2596.37 2577.38 2581.43 
2581.43 2561.17 2626.47 2633.83 2611.78 2582.51 2585.78 2552.93 2580.89 
2568.85 2529.38 2565.11 2587.09 2631.44 2617.95 2622.93 2630.78 2630.78 
2654.37 2646.48 2646.48 2599.47 2579.47 2577.84 2532.28 2545 2582.48 
2596.33 
bkstRFP 1 343 double
97.575 301.435 243.625 235.285 419.665 398.815 251.235 457.665 225.465 
431.315 428.555 516.245 670.655 858.855 877.885 819.705 449.865 248.255 
597.255 433.025 159.515 975.235 260.605 1024.07 213.365 181.755 780.445 
500.645 738.735 680.185 411.915 341.595 453.685 215.575 704.145 422.395 
442.825 762.305 720.505 379.315 415.785 404.945 968.475 726.975 442.825 
848.715 958.355 958.355 900.465 703.295 569.605 625.945 619.275 637.965 
728.835 715.875 837.975 952.105 961.885 883.675 695.075 592.415 560.805 
551.405 752.255 752.255 673.365 573.435 573.435 549.575 490.855 566.605 
528.455 570.825 513.355 549.495 553.975 614.195 588.025 588.025 663.345 
619.155 619.155 567.625 583.815 583.815 659.255 702.525 702.525 738.645 
738.645 711.185 684.685 731.715 753.235 690.805 638.395 587.445 706.945 
686.135 694.505 700.475 668.855 695.825 698.085 718.775 756.885 726.015 
726.015 606.455 549.595 549.595 434.065 379.155 363.715 255.225 231.705 
239.765 327.125 413.735 538.785 621.305 621.305 640.495 660.995 614.655 
589.575 592.365 684.545 726.755 572.205 557.965 521.665 569.105 633.675 
296.155 453.685 408.435 411.915 474.545 517.675 517.675 534.755 620.065 
585.495 634.275 639.895 568.235 702.625 715.875 715.875 619.085 587.065 
591.545 656.965 823.465 888.455 737.225 630.835 528.735 443.645 443.525 
453.225 539.185 582.595 582.595 609.035 604.155 581.715 541.765 558.575 
416.965 326.335 284.105 445.595 505.415 505.415 543.575 505.065 546.505 
686.645 679.645 663.865 666.995 614.025 676.765 693.295 693.385 657.615 
685.015 677.825 680.045 649.135 698.595 592.505 438.965 337.615 298.755 
350.415 373.275 373.275 419.685 437.435 426.195 409.135 384.555 401.525 
462.075 448.915 444.445 393.665 393.665 325.475 283.995 237.935 228.945 
186.365 163.985 1145.34 1208.63 1076.82 916.645 835.315 823.855 324.465 
371.295 341.465 399.855 309.105 339.125 393.015 378.865 407.715 407.715 
438.085 483.725 485.565 486.105 486.105 979.235 960.195 902.475 913.105 
921.625 852.305 738.025 738.025 572.125 248.255 978.335 847.085 778.815 
820.205 910.225 1043.93 1106.51 1060.78 678.175 772.075 738.025 778.975 
788.525 685.505 555.155 826.345 703.185 560.125 433.785 457.615 498.675 
534.045 652.365 646.645 746.125 772.145 634.295 595.345 409.405 362.825 
406.445 432.835 494.335 490.645 971.995 661.135 674.385 635.175 556.775 
604.405 516.065 474.205 611.035 511.205 455.155 398.975 345.685 273.045 
262.865 269.995 283.895 320.625 347.615 392.705 512.185 468.655 418.995 
421.415 434.565 451.045 415.045 405.595 366.345 324.245 302.895 278.985 
278.985 256.225 442.305 417.085 417.965 441.295 406.495 363.295 379.815 
306.355 267.155 250.665 245.155 233.495 190.405 221.885 274.465 274.465 
341.515 351.985 351.985 343.775 373.545 372.465 216.595 208.555 286.895 
205.405 
bkstGFP 1 343 double
56.88 42.64 51.27 0 97.05 75.56 64.75 87.72 40.63 
111.09 117.38 162.23 131.27 337.34 227.16 217.22 247.93 243.72 
225.34 227.53 223.03 291.32 214.24 272.11 143.22 356.33 292.64 
434.54 429.75 428.88 277.65 321.95 212.69 220.61 430.03 381.65 
353.16 373.22 411.18 567.87 454.59 418.27 394.84 352.18 353.16 
392.7 409.98 409.98 380.98 384.64 390.37 382.49 350.58 310.32 
303.76 333.29 318.35 316.63 324.51 300.3 259.59 234.11 231.05 
388.64 424.44 424.44 414.6 385 385 379.07 340.77 358.14 
358.34 389.54 370.12 376.76 360.67 358.29 313.7 313.7 314.5 
317.13 317.13 297.75 355.85 355.85 374.44 399.09 399.09 431.42 
431.42 439.69 423.24 404.8 430.88 413.71 415.65 455.05 451.85 
450.6 455.34 450.97 453.61 409.16 410.9 441.48 427.27 387.43 
387.43 329.8 295.85 295.85 278.35 290.67 266.33 283.49 245.76 
267.79 275.13 300.28 334.79 348.82 348.82 317.56 318.98 338.12 
306.44 248.27 225.75 249.16 423.71 417.4 437.23 451.92 425.03 
216.53 212.69 401.84 277.65 278.53 262.86 262.86 267.01 263.03 
273.8 305.92 308.67 345.96 339.13 324.49 324.49 279.33 285 
299.35 343.43 358.34 337.22 443.98 342.77 352.53 334.46 296.35 
288.88 283.29 267.05 267.05 248 254.3 249.03 205.17 191.03 
153.65 144.75 154.69 168.02 193.93 193.93 201.23 211.22 195.48 
189.72 195.92 205.22 216 216.65 177.48 167.44 165.35 188.71 
176.61 164.05 185.55 173.66 324.05 326.11 315.76 276.05 274.02 
277.98 262.43 262.43 242.46 240.06 258.98 244.59 244.13 242.12 
247.44 256.92 252.24 232.8 232.8 264.14 260.53 290.63 279.69 
264.72 269.26 284.9 262.37 249.05 274.93 259.22 244.72 211.56 
217.79 228.51 232.96 233.49 241.17 230.46 243.37 224.22 224.22 
207.21 201.01 223.88 222.96 222.96 335.98 323.65 386.6 366.28 
378.58 388.9 379.69 379.69 352.45 243.72 305.95 302.18 288.85 
267.81 251.63 242.54 248.34 272.14 226.69 244.81 256.05 260.23 
231.95 235.69 260.37 273.67 224.58 185.45 117.88 131.07 144.75 
165.42 126.21 124.29 140.87 132.05 109 110.34 116.49 91.13 
66.61 83.51 97.64 93.61 287.91 220.5 173.66 196.67 180.81 
150.65 144.86 119.11 129.8 134.32 117.63 105.97 89.72 72.11 
60.61 47.84 56.75 73.85 80.98 108.09 152.39 141.46 140.45 
110.81 100.43 59.16 131.08 125.38 104.38 84.23 65.24 69.29 
69.29 49.03 114.33 121.69 99.64 70.37 73.64 40.79 68.75 
56.71 17.24 52.97 74.95 119.3 105.81 110.79 118.64 118.64 
142.23 134.34 134.34 87.33 67.33 65.7 20.14 32.86 70.34 
84.19 