# vtk DataFile Version 3.0
vtk output
ASCII
DATASET POLYDATA
POINTS 336 float
1.39903 0.739959 1.0697 2.38529 0.587229 0.963496 7.14572 -0.0551071 -0.0757909 
0.63588 1.17689 0.332712 2.99402 1.16828 0.226688 2.97311 0.947554 0.179047 
6.81464 0.370579 -0.230632 0.429092 1.11272 0.128126 0.460468 0.956784 0.159568 
7.41335 -0.299093 -0.629059 1.28815 1.57749 0.031847 5.77294 0.942077 -0.643354 
4.01977 0.570282 -1.00872 5.22696 -0.0144507 -1.43276 -0.200354 -0.741826 -1.88235 
0.117653 -1.1996 -2.14455 2.21695 -1.87645 -3.25165 2.32404 -1.72959 -3.45122 
3.58321 -1.14343 -3.48127 1.95018 -1.39761 -3.55533 2.88072 -1.61518 -3.59582 
3.14624 -1.44845 -3.65419 3.49228 -1.17153 -3.54681 3.41576 -1.20093 -3.5858 
3.35765 -1.23852 -3.595 3.32571 -1.28833 -3.586 3.29483 -1.33653 -3.58687 
3.24863 -1.37684 -3.60008 3.20462 -1.415 -3.62818 3.08267 -1.50176 -3.57011 
3.01647 -1.54649 -3.52958 2.94856 -1.5833 -3.54803 3.18741 -1.53526 -3.57763 
3.2304 -1.6046 -3.52775 3.28083 -1.64075 -3.50145 3.33801 -1.6549 -3.47835 
3.40252 -1.65465 -3.43737 3.46642 -1.65886 -3.38972 3.5331 -1.64344 -3.35313 
3.58926 -1.60696 -3.34912 3.61799 -1.55244 -3.37711 3.63611 -1.49145 -3.41811 
3.66051 -1.43395 -3.45274 3.6892 -1.38165 -3.46854 3.67768 -1.31693 -3.47104 
3.63907 -1.2383 -3.47352 2.80698 -1.61902 -3.63692 2.74203 -1.61503 -3.6541 
2.67956 -1.62228 -3.65876 2.62428 -1.6181 -3.64617 2.57279 -1.60962 -3.61769 
2.51954 -1.61531 -3.56941 2.45792 -1.6476 -3.51883 2.39182 -1.68931 -3.47764 
2.01024 -1.3913 -3.55832 2.05761 -1.42061 -3.56831 2.10607 -1.44684 -3.5777 
2.15656 -1.4674 -3.58598 2.2042 -1.49901 -3.58889 2.24452 -1.56042 -3.57509 
2.28354 -1.6409 -3.52741 3.6503 -1.08928 -3.43354 3.70906 -1.0507 -3.38359 
3.74587 -1.01498 -3.32254 3.78115 -0.980098 -3.26155 3.8305 -0.949422 -3.20507 
3.8762 -0.916113 -3.15535 3.9384 -0.88965 -3.10075 4.0084 -0.865745 -3.04728 
4.07018 -0.837708 -2.99991 4.11664 -0.801784 -2.96487 4.17564 -0.76997 -2.93167 
4.23569 -0.741369 -2.88405 4.28417 -0.71184 -2.82015 4.34581 -0.68806 -2.75088 
4.40735 -0.66425 -2.68161 4.45454 -0.635727 -2.61024 4.50475 -0.6082 -2.5393 
4.5377 -0.576446 -2.45856 4.5527 -0.541671 -2.36061 4.55158 -0.505913 -2.23844 
4.55618 -0.474898 -2.10252 4.55463 -0.443296 -1.95842 4.5575 -0.411716 -1.82225 
4.54647 -0.371271 -1.70592 4.54509 -0.325394 -1.63473 4.58861 -0.28707 -1.60655 
4.644 -0.249774 -1.59469 4.69036 -0.213815 -1.55964 4.75214 -0.185781 -1.51226 
4.8216 -0.160266 -1.46601 4.88176 -0.127512 -1.44029 4.9261 -0.0885863 -1.42726 
4.98087 -0.0619847 -1.42534 5.04001 -0.0525986 -1.42758 5.10523 -0.0315404 -1.42766 
5.16994 -0.0122016 -1.42809 2.26954 -1.80295 -3.34565 2.14675 -1.89583 -3.17855 
2.08116 -1.8928 -3.16167 2.0172 -1.89232 -3.18731 1.96243 -1.86647 -3.21939 
1.91738 -1.8214 -3.22887 1.86899 -1.79188 -3.22637 1.81787 -1.77311 -3.21844 
1.76614 -1.75604 -3.21086 1.71437 -1.73906 -3.20328 1.66261 -1.72209 -3.19572 
1.61085 -1.70511 -3.18815 1.55912 -1.68804 -3.18056 1.50795 -1.66938 -3.17265 
1.45949 -1.64315 -3.16326 1.41277 -1.61204 -3.15292 1.35663 -1.60731 -3.14775 
1.30551 -1.58854 -3.13983 1.26212 -1.54809 -3.12764 1.2149 -1.51838 -3.11757 
1.16771 -1.48857 -3.10747 1.12493 -1.44642 -3.09495 1.0771 -1.41841 -3.08521 
1.02544 -1.39804 -3.08451 0.972624 -1.37785 -3.09135 0.91913 -1.35955 -3.09858 
0.863843 -1.35863 -3.07911 0.802893 -1.38901 -3.02816 0.743527 -1.42421 -2.95558 
0.691407 -1.43293 -2.89284 0.641079 -1.42427 -2.85679 0.590371 -1.41051 -2.83479 
0.540299 -1.39496 -2.81245 0.49462 -1.37327 -2.77385 0.455077 -1.33746 -2.72493 
0.414883 -1.30965 -2.66254 0.376959 -1.27856 -2.59197 0.334557 -1.26312 -2.51695 
0.292649 -1.24937 -2.43474 0.255668 -1.2249 -2.34289 0.213647 -1.21456 -2.25382 
0.166743 -1.20865 -2.1882 0.0796429 -1.11304 -2.21379 0.053535 -1.03767 -2.24834 
0.0442505 -0.97829 -2.24205 0.0179449 -0.9251 -2.22827 -0.0233083 -0.881257 -2.2231 
-0.0615544 -0.822386 -2.21732 -0.0955071 -0.765868 -2.16674 -0.136548 -0.734805 -2.0503 
0.0646534 -1.25399 -1.98541 0.0179249 -1.27537 -1.85741 -0.0247341 -1.26681 -1.76869 
-0.0632249 -1.23423 -1.70535 -0.102742 -1.20452 -1.64259 -0.136617 -1.159 -1.5767 
-0.168109 -1.10094 -1.52343 -0.200474 -1.03157 -1.51574 -0.225288 -0.950313 -1.57445 
-0.223423 -0.855801 -1.7057 -0.232561 -0.713009 -1.67322 -0.266873 -0.698305 -1.50766 
-0.297258 -0.66362 -1.38866 -0.326066 -0.614059 -1.29688 -0.355372 -0.559137 -1.22163 
-0.383354 -0.503101 -1.15385 -0.400645 -0.449136 -1.09491 -0.391921 -0.405137 -1.03249 
-0.372082 -0.364784 -0.971689 -0.352667 -0.322856 -0.918125 -0.344134 -0.27306 -0.884833 
-0.350916 -0.215375 -0.863875 -0.343448 -0.162364 -0.845001 -0.326041 -0.114044 -0.820299 
-0.306394 -0.0678918 -0.788633 -0.28717 -0.0201694 -0.764186 -0.268049 0.027589 -0.739735 
-0.250114 0.0743004 -0.707808 -0.240535 0.120887 -0.660097 -0.245206 0.172145 -0.610291 
-0.236673 0.221942 -0.577 -0.219793 0.271867 -0.559502 -0.201728 0.322838 -0.549469 
-0.183457 0.373741 -0.539467 -0.163472 0.424082 -0.529715 -0.134086 0.47134 -0.521337 
-0.0904399 0.513922 -0.515045 -0.0606193 0.559604 -0.49944 -0.0407647 0.605688 -0.467804 
-0.028729 0.650035 -0.41316 -0.0211237 0.6944 -0.350567 0.0144689 0.731023 -0.299368 
0.0436232 0.774057 -0.269092 0.0641352 0.822791 -0.252125 0.084224 0.873098 -0.242389 
0.11362 0.920353 -0.234013 0.157794 0.961329 -0.220506 0.188867 1.00373 -0.190511 
0.21437 1.04275 -0.132966 0.252397 1.07402 -0.055231 0.325734 1.09443 0.0352499 
3.98564 0.608906 -0.929142 3.94267 0.625864 -0.861353 3.89528 0.633482 -0.802931 
3.84619 0.642527 -0.759289 3.7971 0.65157 -0.715637 3.74755 0.665512 -0.686082 
3.70135 0.688807 -0.654678 3.65969 0.731043 -0.63462 3.61791 0.76367 -0.59386 
3.57894 0.797972 -0.53771 3.53759 0.810204 -0.448269 3.49674 0.820735 -0.351632 
3.46081 0.841997 -0.245365 3.41826 0.853944 -0.1635 3.37083 0.86146 -0.105098 
3.32118 0.872008 -0.0686806 3.27089 0.880769 -0.0326144 3.21835 0.877065 0.0160506 
3.16081 0.859319 0.0619645 3.10725 0.85893 0.0962306 3.05605 0.874399 0.111035 
3.00989 0.900896 0.135528 5.8247 0.925103 -0.650924 5.87703 0.906623 -0.65126 
5.93158 0.885111 -0.62961 5.99267 0.866515 -0.569756 6.06418 0.864763 -0.476468 
6.13569 0.863012 -0.383179 6.19674 0.844314 -0.323345 6.25065 0.821015 -0.302047 
6.29848 0.793001 -0.311788 6.33961 0.752372 -0.33906 6.38188 0.718036 -0.372626 
6.42286 0.673912 -0.393066 6.4666 0.631362 -0.398135 6.50692 0.569953 -0.384332 
6.54777 0.506939 -0.363325 6.59471 0.454843 -0.32511 6.64059 0.399763 -0.287471 
6.69222 0.363898 -0.253595 6.74951 0.353143 -0.23736 1.21889 1.54542 0.0297707 
1.15342 1.52089 0.0367084 1.09405 1.50728 0.0608445 1.03186 1.47652 0.104187 
0.970205 1.44414 0.154754 0.912521 1.42568 0.200509 0.849925 1.39734 0.2216 
0.792743 1.35873 0.229868 0.749922 1.31076 0.242602 0.695672 1.2535 0.27947 
7.3662 -0.269181 -0.618944 7.32405 -0.225247 -0.606072 7.28072 -0.187699 -0.586926 
7.24148 -0.14889 -0.542437 7.20387 -0.125204 -0.448181 7.17403 -0.0948599 -0.287079 
0.436839 1.03169 0.152624 0.533677 1.14866 0.229926 6.87701 0.423436 -0.322333 
6.93758 0.458928 -0.387327 6.99184 0.461309 -0.421202 7.04375 0.44783 -0.435615 
7.09555 0.430958 -0.443165 7.14784 0.412376 -0.44352 7.20116 0.39048 -0.429477 
7.25584 0.360405 -0.386923 7.30688 0.313459 -0.317426 7.34029 0.237113 -0.215144 
7.34404 0.153861 -0.0894076 7.32441 0.0771649 0.0344266 7.27347 0.0221854 0.0969215 
7.20847 -0.0157821 0.0551765 6.86144 0.262501 -0.0679205 6.90562 0.162562 0.0587398 
6.94514 0.0803708 0.113627 6.98296 0.0230803 0.100633 7.02416 -0.00694931 0.040199 
7.0728 -0.0383125 -0.0236038 2.93742 1.02762 0.138629 2.91677 1.09702 0.125167 
2.93642 1.14317 0.156833 2.90797 0.899233 0.241529 2.84342 0.8526 0.304332 
2.78221 0.815319 0.368985 2.72661 0.793764 0.43673 2.66931 0.767422 0.503524 
2.61371 0.745867 0.57127 2.55306 0.707082 0.643147 2.49077 0.657517 0.727965 
2.43337 0.612394 0.836238 0.704618 1.07429 0.444317 0.769566 1.00532 0.576358 
0.833082 0.954527 0.715099 0.897427 0.922208 0.827462 0.963445 0.914331 0.896955 
1.0219 0.903766 0.920757 1.07877 0.898021 0.922926 1.13951 0.906209 0.920305 
1.19571 0.898574 0.922102 1.24905 0.87678 0.936166 1.30008 0.83922 0.969709 
1.34709 0.78423 1.01489 2.34695 0.6696 0.916174 2.31173 0.742229 0.912109 
2.27904 0.803432 0.950958 2.244 0.848774 1.00928 2.20002 0.869038 1.06266 
2.15206 0.87816 1.11386 2.1018 0.887022 1.14994 2.0461 0.892957 1.15534 
1.98328 0.891279 1.12913 1.92494 0.905247 1.09847 1.87092 0.925152 1.08403 
1.81791 0.941742 1.084 1.76154 0.945788 1.08902 1.69622 0.924754 1.08912 
1.62706 0.892647 1.08703 1.55898 0.858192 1.08433 1.50027 0.82055 1.08024 
1.45592 0.778199 1.07406 2.31536 0.553266 0.961048 2.2449 0.520911 0.951386 
2.17395 0.490262 0.934539 2.10254 0.464514 0.903595 2.03444 0.448018 0.874471 
1.97028 0.448767 0.833678 1.90119 0.435686 0.790175 1.82951 0.418442 0.738322 
1.76659 0.413379 0.718977 1.71915 0.442486 0.728933 1.67227 0.463893 0.759955 
1.62284 0.481239 0.782649 1.57674 0.507937 0.807192 1.53948 0.556304 0.843517 
1.50443 0.601639 0.901827 1.46556 0.63313 0.964954 1.43119 0.680364 1.02364 

LINES 22 382
9 18 22 23 24 25 26 27 28 21 
16 21 32 33 34 35 36 37 38 39 40 41 42 43 44 45 18 
9 19 54 55 56 57 58 59 60 17 
38 18 61 62 63 64 65 66 67 68 69 70 71 72 73 74 75 76 77 78 79 80 81 82 83 84 85 86 87 88 89 90 91 92 93 94 95 96 13 
10 15 139 140 141 142 143 144 145 146 14 
12 15 147 148 149 150 151 152 153 154 155 156 14 
43 14 157 158 159 160 161 162 163 164 165 166 167 168 169 170 171 172 173 174 175 176 177 178 179 180 181 182 183 184 185 186 187 188 189 190 191 192 193 194 195 196 197 7 
24 12 198 199 200 201 202 203 204 205 206 207 208 209 210 211 212 213 214 215 216 217 218 219 5 
21 11 220 221 222 223 224 225 226 227 228 229 230 231 232 233 234 235 236 237 238 6 
12 10 239 240 241 242 243 244 245 246 247 248 3 
8 9 249 250 251 252 253 254 2 
3 8 255 7 
3 7 256 3 
16 6 257 258 259 260 261 262 263 264 265 266 267 268 269 270 2 
8 6 271 272 273 274 275 276 2 
5 5 277 278 279 4 
11 5 280 281 282 283 284 285 286 287 288 1 
14 3 289 290 291 292 293 294 295 296 297 298 299 300 0 
20 1 301 302 303 304 305 306 307 308 309 310 311 312 313 314 315 316 317 318 0 
19 1 319 320 321 322 323 324 325 326 327 328 329 330 331 332 333 334 335 0 
14 21 29 30 31 20 46 47 48 49 50 51 52 53 17 
45 17 97 16 98 99 100 101 102 103 104 105 106 107 108 109 110 111 112 113 114 115 116 117 118 119 120 121 122 123 124 125 126 127 128 129 130 131 132 133 134 135 136 137 138 15 

POINT_DATA 336
SCALARS DY_raw double
LOOKUP_TABLE default
38.257 59.2647 53.9375 41.138 46.1743 59.75 64.142 64.5916 30.8947 
27.4447 37.3199 68.65 11.171 20.6774 24.7703 20.1027 21.1601 16.6025 
63.4707 28.9633 45.5793 44.6237 49.6378 41.5528 42.1072 47.6473 65.6658 
64.6681 66.1997 42.8753 48.1959 47.4531 51.0862 48.5373 76.1478 76.1478 
94.1239 104.588 115.379 122.938 109.986 86.7425 48.8868 44.5097 50.9857 
56.3338 36.3993 27.6948 25.0057 16.4352 20.6675 31.1053 39.9763 31.7188 
45.7248 43.2254 43.2254 34.7533 18.1121 20.2157 23.6788 54.1909 50.013 
54.7865 60.4987 56.5863 43.2457 34.3129 38.4615 31.8073 29.3951 26.6557 
32.9646 25.427 30.7022 27.7105 29.0882 55.9948 57.6618 62.229 63.1822 
46.0495 56.8384 53.4504 41.9536 54.5746 53.5683 53.5683 39.4102 40.2786 
32.504 26.6062 12.2184 12.3453 16.1722 7.44537 22.9895 13.4526 21.8197 
14.5223 20.77 30.2426 46.6678 47.4528 47.4528 33.6858 33.6858 38.7375 
42.3181 54.4155 44.6318 23.1494 23.1494 16.1218 15.421 15.421 38.6112 
38.6112 45.0381 51.8879 46.3498 45.0957 47.6988 47.6988 50.3486 31.5478 
39.9666 14.6625 8.5751 14.0295 17.1085 19.2236 23.2715 27.1556 26.5411 
32.8624 27.3617 27.6423 26.4953 16.9835 7.80104 0 6.9715 12.8687 
22.5995 21.15 21.1377 28.8428 31.5355 22.2629 8.57633 7.69922 11.7574 
13.697 18.7442 16.606 28.1773 26.1395 29.3598 33.8523 47.487 44.4674 
42.1463 25.5698 26.9851 20.4677 21.6264 21.6264 22.6198 24.5307 30.5615 
32.9495 32.9495 38.2849 33.4778 36.3817 35.9238 32.0823 32.0823 45.7304 
40.058 40.058 30.6543 30.6543 34.0176 47.8387 56.6923 66.9957 74.3726 
74.3726 70.8473 56.4509 56.4509 48.01 50.7896 46.3428 57.4675 63.2075 
26.051 22.3367 18.969 22.3133 24.193 34.5605 32.6665 36.9617 38.608 
36.3841 32.9113 34.3106 31.0023 30.6827 30.4803 30.8604 29.7203 39.018 
41.7466 56.6046 56.6046 53.6339 48.2473 45.9523 39.539 40.4814 39.4481 
60.1699 71.408 79.2316 71.1428 63.4956 54.6819 51.0273 60.4529 86.8678 
74.7153 65.9853 61.8779 61.4999 58.0834 37.3199 37.4454 44.0348 50.1619 
58.41 52.8122 51.2261 44.5142 44.5352 40.8938 34.4801 41.9517 44.3729 
40.5917 46.0433 55.4489 46.5383 45.3797 64.6596 66.8619 53.6653 42.0219 
42.0219 38.6749 33.0307 34.8656 31.8088 33.4248 36.2048 43.6712 53.5076 
42.9433 47.9736 65.1669 69.3219 60.0473 52.6168 53.9929 50.8808 52.9361 
52.9361 63.2367 60.339 55.4747 56.5542 56.6073 48.5428 45.0545 47.0383 
54.3365 39.4898 38.1549 40.1566 37.3029 38.242 38.242 48.1739 50.3935 
56.0693 54.1742 53.928 41.9913 61.5076 58.9184 67.481 79.847 79.847 
50.9911 39.7724 39.7724 29.1695 30.9159 29.757 26.0539 26.0539 26.8413 
28.5399 35.2769 41.4308 40.1269 56.5265 56.5265 54.2375 42.9241 31.5025 
35.8207 36.7242 35.1774 22.5658 22.8527 22.8527 25.3584 32.7399 34.4613 
37.7969 40.91 41.1985 
FIELD FieldData 7
DY_minmax 1 336 double
0.31119 0.482071 0.438738 0.334625 0.375591 0.486018 0.521744 0.525401 0.251304 
0.223241 0.303568 0.558413 0.0908669 0.168194 0.201486 0.163519 0.172121 0.135048 
0.516284 0.235593 0.370751 0.362978 0.403764 0.337998 0.342509 0.387573 0.534139 
0.526023 0.538481 0.348756 0.392035 0.385993 0.415545 0.394812 0.619402 0.619402 
0.765623 0.850741 0.938516 1 0.894651 0.705581 0.397655 0.36205 0.414728 
0.458231 0.296079 0.225275 0.203401 0.133687 0.168114 0.253017 0.325175 0.258007 
0.371935 0.351604 0.351604 0.28269 0.147327 0.164439 0.192608 0.4408 0.406816 
0.445645 0.492108 0.460284 0.351769 0.279108 0.312854 0.258727 0.239106 0.216823 
0.26814 0.206828 0.249738 0.225403 0.236609 0.455473 0.469033 0.506183 0.513937 
0.374576 0.462335 0.434776 0.341259 0.443921 0.435735 0.435735 0.320571 0.327635 
0.264394 0.216421 0.099387 0.100419 0.131548 0.0605621 0.187001 0.109426 0.177486 
0.118127 0.168947 0.245999 0.379605 0.38599 0.38599 0.274007 0.274007 0.315099 
0.344224 0.442627 0.363044 0.188302 0.188302 0.131138 0.125438 0.125438 0.314071 
0.314071 0.366349 0.422066 0.377018 0.366818 0.387992 0.387992 0.409545 0.256616 
0.325096 0.119268 0.0697516 0.114119 0.139164 0.156369 0.189295 0.220889 0.21589 
0.26731 0.222565 0.224848 0.215518 0.138147 0.0634552 0 0.0567076 0.104676 
0.183829 0.172038 0.171938 0.234613 0.256516 0.181091 0.0697616 0.062627 0.0956372 
0.111414 0.152469 0.135076 0.2292 0.212624 0.238819 0.275361 0.386268 0.361706 
0.342826 0.20799 0.219502 0.166489 0.175913 0.175913 0.183994 0.199537 0.248594 
0.268018 0.268018 0.311417 0.272315 0.295936 0.292211 0.260964 0.260964 0.371981 
0.32584 0.32584 0.249348 0.249348 0.276706 0.389129 0.461146 0.544956 0.604962 
0.604962 0.576286 0.459183 0.459183 0.390523 0.413132 0.376962 0.467452 0.514143 
0.211904 0.181691 0.154297 0.181501 0.196791 0.281122 0.265715 0.300654 0.314045 
0.295956 0.267707 0.279089 0.252179 0.249579 0.247933 0.251025 0.241751 0.31738 
0.339575 0.460433 0.460433 0.436269 0.392453 0.373785 0.321618 0.329284 0.320879 
0.489434 0.580847 0.644486 0.578689 0.516486 0.444794 0.415066 0.491736 0.7066 
0.607749 0.536737 0.503327 0.500252 0.472462 0.303568 0.304589 0.358187 0.408027 
0.475118 0.429585 0.416683 0.362088 0.362258 0.332639 0.280468 0.341243 0.360938 
0.330181 0.374525 0.451032 0.378552 0.369127 0.525954 0.543868 0.436524 0.341814 
0.341814 0.31459 0.268678 0.283603 0.258739 0.271884 0.294497 0.35523 0.435241 
0.349309 0.390227 0.530081 0.563879 0.488437 0.427996 0.439189 0.413875 0.430592 
0.430592 0.51438 0.490809 0.451242 0.460023 0.460455 0.394857 0.366483 0.382619 
0.441984 0.321218 0.31036 0.326642 0.30343 0.311068 0.311068 0.391856 0.409911 
0.456079 0.440664 0.438661 0.341566 0.500315 0.479254 0.548904 0.649492 0.649492 
0.414772 0.323517 0.323517 0.237271 0.251476 0.242049 0.211927 0.211927 0.218333 
0.23215 0.286949 0.337007 0.3264 0.459798 0.459798 0.441179 0.349153 0.256248 
0.291373 0.298722 0.28614 0.183555 0.185888 0.185888 0.20627 0.266312 0.280315 
0.307448 0.33277 0.335117 
WidthEq 1 336 double
1.88881 3.74506 2.24927 4.13292 1.79602 3.58377 3.00131 3.36344 3.47923 
2.5269 2.79449 1 1.35082 1.28498 3.54376 2.86777 2.41492 2.19665 
1.61949 2.2418 2.6139 1.58033 1.72248 1.93248 1.93815 1.86453 1.45936 
1.42249 1.30499 1.75719 1.87277 2.34905 1.51626 1.54664 1.40634 1.40634 
1.31433 1.26181 1.22379 1.17433 1.21106 1.20921 1.41777 1.46238 1.63007 
1.75063 2.7561 2.68462 2.47824 2.1886 1.9117 1.84567 1.95816 2.19113 
2.19815 2.15869 2.15869 2.20957 1.93627 2.14289 2.22139 1.66209 1.61998 
1.5356 1.62417 1.68875 2.1838 2.43203 2.59974 2.66165 2.86204 2.50115 
2.27851 2.44465 2.41612 2.34929 2.38791 2.14216 2.11405 1.98075 1.69795 
1.93162 1.96909 1.9433 1.92808 1.64271 1.55502 1.55502 1.23496 1.2421 
1.10971 1.00653 1.10898 1.28065 1.47228 1.44251 1.40194 2.38988 2.26126 
2.37153 2.31825 2.29974 2.14216 2.09724 2.09724 2.02103 2.02103 2.03627 
2.15511 1.95385 2.05862 2.33915 2.33915 2.37443 2.36755 2.36755 2.25194 
2.25194 2.23633 2.01492 2.22439 2.05984 1.68809 1.68809 1.49101 1.98587 
1.90734 2.89855 3.21862 3.17616 3.34921 3.30635 2.96199 2.9412 2.52929 
2.65166 2.92891 2.89701 3.01713 2.30224 2.21894 1.96221 1.98379 2.20613 
2.4266 2.79432 3.12097 2.7844 2.69854 2.69372 2.61067 2.62884 2.53287 
2.58085 2.84409 3.21029 3.30443 3.67758 3.36276 2.81104 2.31622 2.26121 
2.0436 2.41417 2.45691 2.81223 2.85439 2.85439 2.83248 2.65056 2.55387 
2.05223 2.05223 1.87881 1.83764 1.75995 1.75761 1.74832 1.74832 1.8526 
1.83509 1.83509 1.88848 1.88848 1.87727 1.78893 1.75597 1.75459 1.84342 
1.84342 2.00135 2.34824 2.34824 2.64049 2.72497 2.98579 3.05077 3.2175 
2.27247 2.29264 2.8457 2.99642 2.71856 2.76703 2.65318 2.60946 2.24487 
2.29798 2.11325 2.25091 2.30435 2.68979 2.72373 2.65615 2.7355 2.83587 
2.81532 3.09992 3.09992 3.2953 1.42909 2.04299 2.23577 2.27586 2.36031 
2.20426 2.1387 2.05701 2.07653 2.05432 2.21353 2.21999 2.11719 1.92223 
2.00481 2.22413 2.44676 2.4083 2.70748 2.79449 3.21401 3.27718 3.41674 
3.12909 3.33692 3.46542 3.74083 3.96069 4.10111 2.54204 2.70168 2.64688 
2.55422 2.45769 2.3326 3.71393 4.16442 2.90661 2.46897 2.42913 2.40851 
2.40851 2.42974 2.54612 2.52025 2.41097 2.23038 2.06354 2.02445 2.07653 
2.09928 2.94329 2.5783 2.43905 2.2434 2.09762 2.19696 3.33996 2.7418 
2.7418 3.4918 3.73755 3.88682 4.04638 4.03199 4.32443 4.56491 4.48294 
4.18596 3.84555 3.39668 2.30273 1.86205 1.59458 1.59458 1.62059 1.69724 
1.64118 1.76782 1.98988 2.06447 3.57127 3.70326 3.11673 2.32995 2.32995 
1.96387 1.77233 1.77233 1.46112 1.30516 1.3254 1.42282 1.42282 1.54501 
1.66468 1.67192 1.96375 1.91842 3.16825 3.16825 2.68375 2.19038 2.07634 
1.65212 1.5532 1.55299 1.54393 1.53592 1.53592 1.61445 1.54643 1.6549 
1.7266 1.84307 2.0377 
rRFP 1 336 double
3049.07 3842.11 3203.07 4007.81 3009.43 3773.2 3524.36 3679.07 3728.54 
3321.68 3436 2669.35 2819.23 2791.1 3756.11 3467.31 3273.84 3180.59 
2934.01 3199.88 3358.85 2917.28 2978.01 3067.73 3070.15 3038.7 2865.6 
2849.85 2799.65 2992.84 3042.22 3245.7 2889.91 2902.89 2842.95 2842.95 
2803.64 2781.2 2764.96 2743.83 2759.52 2758.73 2847.83 2866.89 2938.53 
2990.04 3419.6 3389.06 3300.89 3177.15 3058.85 3030.64 3078.7 3178.23 
3181.23 3164.37 3164.37 3186.11 3069.35 3157.62 3191.16 2952.21 2934.22 
2898.17 2936.01 2963.6 3175.1 3281.15 3352.8 3379.25 3464.86 3310.68 
3215.56 3286.54 3274.35 3245.8 3262.3 3157.31 3145.3 3088.35 2967.53 
3067.36 3083.37 3072.35 3065.85 2943.93 2906.47 2906.47 2769.73 2772.78 
2716.22 2672.14 2715.91 2789.25 2871.12 2858.4 2841.07 3263.14 3208.19 
3255.3 3232.54 3224.63 3157.31 3138.12 3138.12 3105.56 3105.56 3112.07 
3162.84 3076.86 3121.62 3241.47 3241.47 3256.54 3253.6 3253.6 3204.21 
3204.21 3197.54 3102.95 3192.44 3122.14 2963.32 2963.32 2879.12 3090.54 
3056.99 3480.46 3617.2 3599.06 3672.99 3654.68 3507.56 3498.68 3322.7 
3374.98 3493.43 3479.8 3531.12 3225.7 3190.11 3080.43 3089.65 3184.64 
3278.83 3435.93 3575.48 3431.69 3395.01 3392.95 3357.47 3365.23 3324.23 
3344.73 3457.19 3613.64 3653.86 3813.28 3678.78 3443.07 3231.67 3208.17 
3115.2 3273.52 3291.78 3443.58 3461.59 3461.59 3452.23 3374.51 3333.2 
3118.89 3118.89 3044.8 3027.21 2994.02 2993.02 2989.05 2989.05 3033.6 
3026.12 3026.12 3048.93 3048.93 3044.14 3006.4 2992.32 2991.73 3029.68 
3029.68 3097.15 3245.35 3245.35 3370.21 3406.3 3517.73 3545.49 3616.72 
3212.98 3221.6 3457.88 3522.27 3403.56 3424.27 3375.63 3356.95 3201.19 
3223.88 3144.96 3203.77 3226.6 3391.27 3405.77 3376.9 3410.8 3453.68 
3444.9 3566.49 3566.49 3649.96 2852.67 3114.94 3197.3 3214.43 3250.51 
3183.84 3155.83 3120.93 3129.27 3119.78 3187.8 3190.56 3146.64 3063.35 
3098.63 3192.33 3287.44 3271.01 3398.83 3436 3615.23 3642.22 3701.84 
3578.95 3667.74 3722.64 3840.3 3934.23 3994.22 3328.15 3396.35 3372.94 
3333.35 3292.11 3238.67 3828.81 4021.27 3483.9 3296.93 3279.91 3271.1 
3271.1 3280.17 3329.89 3318.84 3272.15 3195 3123.72 3107.02 3129.27 
3138.99 3499.57 3343.64 3284.15 3200.56 3138.28 3180.72 3669.04 3413.49 
3413.49 3733.91 3838.9 3902.67 3970.84 3964.69 4089.63 4192.37 4157.35 
4030.47 3885.04 3693.27 3225.91 3037.64 2923.37 2923.37 2934.48 2967.23 
2943.28 2997.38 3092.25 3124.12 3767.86 3824.25 3573.67 3237.54 3237.54 
3081.14 2999.31 2999.31 2866.35 2799.72 2808.37 2849.99 2849.99 2902.19 
2953.32 2956.41 3081.09 3061.72 3595.68 3595.68 3388.69 3177.91 3129.19 
2947.95 2905.69 2905.6 2901.73 2898.31 2898.31 2931.86 2902.8 2949.14 
2979.77 3029.53 3112.68 
rGFP 1 336 double
2573.17 2722.86 2622.23 2670.93 2583.84 2715.04 2693.42 2718.16 2608.4 
2570.26 2605.2 2569.56 2516 2527.48 2588.69 2558.56 2552.01 2537.38 
2603.7 2565.84 2620.05 2571.43 2586.41 2581.21 2582.52 2589.75 2596.74 
2592.9 2587.3 2576.25 2591.17 2612.38 2578.37 2575.98 2608 2608 
2624.62 2632.88 2642.11 2645.28 2634.11 2605.8 2570.22 2566 2584.02 
2599.53 2601.23 2575.26 2562.88 2536.88 2540.42 2558.32 2579.19 2570.41 
2601.42 2594.22 2594.22 2577.7 2535.98 2544.23 2553.51 2590.98 2581.93 
2585.04 2599.17 2596.47 2595.35 2584.36 2600.9 2585.57 2585.04 2567.58 
2576.02 2563.07 2575.09 2566.01 2570.37 2620.86 2622.81 2624.17 2608.19 
2589.86 2612.83 2604.78 2581.8 2590.56 2584.21 2584.21 2549.58 2550.94 
2536.98 2527.69 2514.46 2516.72 2524.72 2511.65 2533.14 2533.06 2550.25 
2535.35 2549.06 2570.46 2600.88 2600.43 2600.43 2568.99 2568.99 2579.79 
2592.11 2607.23 2592.79 2555.06 2555.06 2539.19 2537.42 2537.42 2587.86 
2587.86 2601.63 2605.46 2604.01 2593.8 2581.43 2581.43 2575.98 2563.56 
2577.14 2543.41 2528.51 2545.47 2558.21 2564.47 2569.84 2580.78 2568.04 
2588.05 2581.05 2580.99 2580.85 2540.01 2518.22 2500.91 2514.74 2529.3 
2555.75 2560.01 2566.88 2581.22 2586.01 2560.88 2523.3 2521.15 2530.69 
2536.26 2554.22 2554.22 2594.02 2597.04 2599.64 2596.07 2610.9 2601.46 
2587.04 2562.64 2567.21 2558.47 2562.64 2562.64 2564.98 2565.93 2578.96 
2568.53 2568.53 2572.84 2562.43 2564.94 2564.05 2557 2557 2585.63 
2574.42 2574.42 2558.8 2558.8 2564.77 2586.49 2600.46 2618.46 2638.01 
2638.01 2642.7 2633.47 2633.47 2627.68 2639.31 2639.28 2676.23 2704.28 
2560.11 2552.12 2554.89 2567.77 2566.68 2596.54 2587.58 2597.36 2587.58 
2584.52 2570.46 2578.14 2572.35 2583.44 2583.93 2582.88 2582.21 2611.56 
2618.44 2676.38 2676.38 2677.65 2569.86 2594.79 2589.31 2593.04 2594.02 
2633.54 2653.63 2663.89 2648.64 2631.35 2621.95 2614.19 2628.9 2667.89 
2650.7 2647.67 2652.31 2649.02 2658.17 2605.2 2621.26 2645.22 2672.3 
2683.68 2677.14 2678.43 2667.43 2677.3 2668.62 2588.56 2614.25 2618.36 
2604.59 2614.07 2630.25 2673.75 2689.89 2688.85 2665.99 2631.27 2602.12 
2602.12 2594.88 2585.01 2588.78 2577.6 2575.46 2575.62 2589.32 2612.02 
2591.06 2642.11 2668.93 2669.99 2635.62 2611.28 2619.53 2670.85 2646.05 
2646.05 2721.72 2726.43 2716.53 2729.75 2729.15 2710.83 2706.58 2711.78 
2728.36 2652.77 2630.51 2593.38 2570.37 2561.89 2561.89 2578.98 2586.44 
2592.93 2596.68 2608.22 2587.6 2720.57 2719.1 2711.23 2686.95 2686.95 
2601.05 2571.4 2571.4 2543.53 2541.26 2540.35 2537.98 2537.98 2542.38 
2548.42 2559.89 2582.27 2577.89 2680 2680 2646.47 2594.93 2566.32 
2560.09 2557.95 2555.54 2535.75 2536.01 2536.01 2541.85 2551.54 2557.94 
2566.17 2576.31 2584.86 
bkstRFP 1 336 double
806.945 1599.99 960.945 1765.68 767.305 1531.07 1282.24 1436.95 1486.42 
1079.55 1193.88 427.225 577.105 548.975 1513.99 1225.18 1031.72 938.465 
691.885 957.755 1116.72 675.155 735.885 825.605 828.025 796.575 623.475 
607.725 557.525 750.715 800.095 1003.57 647.785 660.765 600.825 600.825 
561.515 539.075 522.835 501.705 517.395 516.605 605.705 624.765 696.405 
747.915 1177.47 1146.93 1058.76 935.025 816.725 788.515 836.575 936.105 
939.105 922.245 922.245 943.985 827.225 915.495 949.035 710.085 692.095 
656.045 693.885 721.475 932.975 1039.03 1110.68 1137.13 1222.74 1068.55 
973.435 1044.42 1032.22 1003.68 1020.18 915.185 903.175 846.225 725.405 
825.235 841.245 830.225 823.725 701.805 664.345 664.345 527.605 530.655 
474.095 430.015 473.785 547.125 628.995 616.275 598.945 1021.01 966.065 
1013.18 990.415 982.505 915.185 895.995 895.995 863.435 863.435 869.945 
920.715 834.735 879.495 999.345 999.345 1014.42 1011.47 1011.47 962.085 
962.085 955.415 860.825 950.315 880.015 721.195 721.195 636.995 848.415 
814.865 1238.34 1375.07 1356.93 1430.86 1412.55 1265.43 1256.55 1080.57 
1132.86 1251.3 1237.68 1288.99 983.575 947.985 838.305 847.525 942.515 
1036.7 1193.8 1333.36 1189.57 1152.89 1150.82 1115.34 1123.11 1082.11 
1102.61 1215.07 1371.51 1411.74 1571.16 1436.66 1200.95 989.545 966.045 
873.075 1031.4 1049.66 1201.45 1219.47 1219.47 1210.11 1132.39 1091.07 
876.765 876.765 802.675 785.085 751.895 750.895 746.925 746.925 791.475 
783.995 783.995 806.805 806.805 802.015 764.275 750.195 749.605 787.555 
787.555 855.025 1003.22 1003.22 1128.09 1164.18 1275.61 1303.36 1374.59 
970.855 979.475 1215.76 1280.15 1161.43 1182.15 1133.51 1114.82 959.065 
981.755 902.835 961.645 984.475 1149.15 1163.65 1134.78 1168.68 1211.55 
1202.78 1324.36 1324.36 1407.84 610.545 872.815 955.175 972.305 1008.39 
941.715 913.705 878.805 887.145 877.655 945.675 948.435 904.515 821.225 
856.505 950.205 1045.32 1028.89 1156.7 1193.88 1373.11 1400.09 1459.72 
1336.82 1425.61 1480.51 1598.18 1692.11 1752.09 1086.03 1154.22 1130.82 
1091.22 1049.99 996.545 1586.68 1779.15 1241.78 1054.8 1037.78 1028.97 
1028.97 1038.05 1087.76 1076.72 1030.03 952.875 881.595 864.895 887.145 
896.865 1257.45 1101.51 1042.03 958.435 896.155 938.595 1426.92 1171.36 
1171.36 1491.78 1596.78 1660.55 1728.72 1722.57 1847.51 1950.24 1915.23 
1788.34 1642.92 1451.15 983.785 795.515 681.245 681.245 692.355 725.105 
701.155 755.255 850.125 881.995 1525.74 1582.13 1331.55 995.415 995.415 
839.015 757.185 757.185 624.225 557.595 566.245 607.865 607.865 660.065 
711.195 714.285 838.965 819.595 1353.55 1353.55 1146.57 935.785 887.065 
705.825 663.565 663.475 659.605 656.185 656.185 689.735 660.675 707.015 
737.645 787.405 870.555 
bkstGFP 1 336 double
72.26 221.95 121.32 170.02 82.93 214.13 192.51 217.25 107.49 
69.35 104.29 68.65 15.09 26.57 87.78 57.65 51.1 36.47 
102.79 64.93 119.14 70.52 85.5 80.3 81.61 88.84 95.83 
91.99 86.39 75.34 90.26 111.47 77.46 75.07 107.09 107.09 
123.71 131.97 141.2 144.37 133.2 104.89 69.31 65.09 83.11 
98.62 100.32 74.35 61.97 35.97 39.51 57.41 78.28 69.5 
100.51 93.31 93.31 76.79 35.07 43.32 52.6 90.07 81.02 
84.13 98.26 95.56 94.44 83.45 99.99 84.66 84.13 66.67 
75.11 62.16 74.18 65.1 69.46 119.95 121.9 123.26 107.28 
88.95 111.92 103.87 80.89 89.65 83.3 83.3 48.67 50.03 
36.07 26.78 13.55 15.81 23.81 10.74 32.23 32.15 49.34 
34.44 48.15 69.55 99.97 99.52 99.52 68.08 68.08 78.88 
91.2 106.32 91.88 54.15 54.15 38.28 36.51 36.51 86.95 
86.95 100.72 104.55 103.1 92.89 80.52 80.52 75.07 62.65 
76.23 42.5 27.6 44.56 57.3 63.56 68.93 79.87 67.13 
87.14 80.14 80.08 79.94 39.1 17.31 0 13.83 28.39 
54.84 59.1 65.97 80.31 85.1 59.97 22.39 20.24 29.78 
35.35 53.31 53.31 93.11 96.13 98.73 95.16 109.99 100.55 
86.13 61.73 66.3 57.56 61.73 61.73 64.07 65.02 78.05 
67.62 67.62 71.93 61.52 64.03 63.14 56.09 56.09 84.72 
73.51 73.51 57.89 57.89 63.86 85.58 99.55 117.55 137.1 
137.1 141.79 132.56 132.56 126.77 138.4 138.37 175.32 203.37 
59.2 51.21 53.98 66.86 65.77 95.63 86.67 96.45 86.67 
83.61 69.55 77.23 71.44 82.53 83.02 81.97 81.3 110.65 
117.53 175.47 175.47 176.74 68.95 93.88 88.4 92.13 93.11 
132.63 152.72 162.98 147.73 130.44 121.04 113.28 127.99 166.98 
149.79 146.76 151.4 148.11 157.26 104.29 120.35 144.31 171.39 
182.77 176.23 177.52 166.52 176.39 167.71 87.65 113.34 117.45 
103.68 113.16 129.34 172.84 188.98 187.94 165.08 130.36 101.21 
101.21 93.97 84.1 87.87 76.69 74.55 74.71 88.41 111.11 
90.15 141.2 168.02 169.08 134.71 110.37 118.62 169.94 145.14 
145.14 220.81 225.52 215.62 228.84 228.24 209.92 205.67 210.87 
227.45 151.86 129.6 92.47 69.46 60.98 60.98 78.07 85.53 
92.02 95.77 107.31 86.69 219.66 218.19 210.32 186.04 186.04 
100.14 70.49 70.49 42.62 40.35 39.44 37.07 37.07 41.47 
47.51 58.98 81.36 76.98 179.09 179.09 145.56 94.02 65.41 
59.18 57.04 54.63 34.84 35.1 35.1 40.94 50.63 57.03 
65.26 75.4 83.95 
tubeWidth 1 336 double
0.234757 0.176477 0.204907 0.299918 0.20496 0.109693 0.209058 0.201913 0.192888 
0.272428 0.298979 0.192098 0.173119 0.131435 0.198777 0.217699 0.206077 0.200213 
0.138645 0.301069 0.309294 0.135065 0.20176 0.265919 0.217096 0.170137 0.161398 
0.160811 0.145292 0.230172 0.23253 0.25882 0.231995 0.173356 0.17656 0.200332 
0.203847 0.167535 0.169271 0.157968 0.164843 0.153143 0.147559 0.157594 0.155479 
0.108461 0.246024 0.233305 0.246517 0.226744 0.218752 0.229413 0.227796 0.219231 
0.25734 0.213787 0.187076 0.183396 0.156284 0.144593 0.200068 0.221404 0.232057 
0.229026 0.239042 0.216386 0.217758 0.258925 0.270791 0.289885 0.298307 0.285049 