# vtk DataFile Version 3.0
vtk output
ASCII
DATASET POLYDATA
POINTS 342 float
0.0387975 0.959056 0.21786 -0.242623 0.636611 0.371173 -0.531949 -1.02606 0.159826 
-0.278926 0.890407 -0.0554356 -0.611299 0.0262313 0.0118205 -0.349241 0.983316 -0.468502 
-1.10537 -0.203727 -0.387086 -0.75534 0.602695 -0.649364 -0.967841 -0.136996 -0.589161 
5.19788 -0.549563 -0.727449 5.07898 -0.580957 -0.728917 4.85607 -0.538119 -0.607035 
4.44494 -0.393918 -0.769322 4.09271 -0.431185 -0.979769 3.90399 -0.495477 -0.993793 
-0.866094 -0.00864068 -1.1555 6.66195 -0.579793 -1.207 6.49478 -0.627336 -1.07477 
4.14816 -0.310168 -1.18984 6.85876 -0.551446 -1.2694 6.4988 -0.828718 -1.55856 
6.16341 -0.361982 -1.54674 6.38164 -0.689281 -2.17859 6.38361 -0.160281 -2.05965 
1.89296 -1.73583 -2.34724 1.17841 -1.71685 -2.57612 1.21578 -1.7626 -2.40679 
1.25897 -1.79059 -2.27609 1.31303 -1.78284 -2.20783 1.36858 -1.78363 -2.19829 
1.42411 -1.79625 -2.2323 1.4802 -1.81013 -2.28109 1.53808 -1.81358 -2.32331 
1.59867 -1.79834 -2.34482 1.65803 -1.785 -2.35132 1.72025 -1.75621 -2.35169 
1.78209 -1.7292 -2.3519 1.83873 -1.7268 -2.35005 6.42092 -0.57665 -2.30288 
6.46236 -0.506845 -2.35616 6.47316 -0.44672 -2.33152 6.45685 -0.380398 -2.25757 
6.45039 -0.315351 -2.17943 6.4355 -0.245382 -2.11196 6.47566 -0.759953 -2.057 
6.50063 -0.803711 -1.85109 6.31604 -0.209691 -1.98687 6.2788 -0.255486 -1.87734 
6.23877 -0.303093 -1.72432 6.25244 -0.593665 -2.0085 6.18511 -0.490439 -1.79714 
6.33009 -0.0585125 -1.96924 6.27989 0.0231474 -1.85949 6.22669 0.0767593 -1.72742 
6.16485 0.0883965 -1.58436 6.10414 0.0993867 -1.46105 6.04523 0.1043 -1.35945 
5.99153 0.0836902 -1.26275 5.95215 0.061478 -1.1505 5.90285 0.0675119 -1.03376 
5.84648 0.0864127 -0.925909 5.78953 0.105423 -0.840418 5.73289 0.120649 -0.776905 
5.67445 0.122874 -0.727146 5.61275 0.0969723 -0.689804 5.55847 0.0574059 -0.650934 
5.52076 0.0118272 -0.618351 5.47998 -0.0332299 -0.585928 5.45812 -0.083441 -0.567232 
5.4544 -0.138022 -0.554905 5.45777 -0.194691 -0.549574 5.43161 -0.245258 -0.545884 
5.41051 -0.296868 -0.541913 5.39728 -0.350107 -0.537504 5.38384 -0.403301 -0.533107 
5.35915 -0.45468 -0.536735 5.30918 -0.500734 -0.564107 5.25134 -0.53624 -0.629946 
6.35735 -0.795569 -1.87941 6.39545 -0.842042 -1.67277 6.61185 -0.805871 -1.59497 
6.65688 -0.756548 -1.55444 6.66547 -0.680858 -1.41221 6.25606 -0.387153 -1.33882 
6.31317 -0.4297 -1.17278 6.35588 -0.483552 -1.07943 6.40008 -0.534471 -1.04955 
6.44867 -0.574071 -1.05903 6.47198 -0.712285 -1.30971 6.57151 -0.598006 -1.13917 
6.80324 -0.541842 -1.2599 6.74032 -0.545778 -1.23951 -0.869106 0.101196 -1.23057 
-0.878096 0.181329 -1.23189 -0.894329 0.247368 -1.19708 -0.885851 0.308155 -1.12579 
-0.853449 0.365513 -1.03311 -0.834224 0.426215 -0.933779 -0.822514 0.48785 -0.842245 
-0.801025 0.547463 -0.750167 4.20998 -0.265644 -1.12467 4.26758 -0.243064 -1.06509 
4.31636 -0.264202 -1.00926 4.36333 -0.293833 -0.95271 4.40558 -0.339968 -0.872492 
4.12568 -0.363577 -1.08155 4.10286 -0.258936 -1.19621 4.05481 -0.220691 -1.20148 
4.00989 -0.167675 -1.208 3.96662 -0.106799 -1.21518 3.9213 -0.0556741 -1.22153 
3.87079 -0.0290528 -1.22583 3.81991 -0.00421576 -1.22998 3.77216 0.0353936 -1.23536 
3.72371 0.0717558 -1.24048 3.67879 0.124773 -1.247 3.63592 0.18753 -1.25434 
3.59306 0.250288 -1.26167 3.54815 0.303411 -1.2682 3.49984 0.342334 -1.2661 
3.45373 0.395598 -1.25035 3.40679 0.450797 -1.21249 3.35643 0.491796 -1.16599 
3.30705 0.535469 -1.12715 3.25563 0.561662 -1.11655 3.20567 0.586928 -1.13559 
3.16198 0.634095 -1.18619 3.12101 0.69211 -1.24513 3.07987 0.753255 -1.28947 
3.03702 0.81612 -1.29681 2.99075 0.872524 -1.26648 2.94044 0.913727 -1.22 
2.89144 0.959185 -1.18131 2.84178 0.995688 -1.16416 2.79342 1.03634 -1.15477 
2.74093 1.05945 -1.13649 2.68387 1.06677 -1.09459 2.62483 1.06864 -1.03738 
2.57147 1.10131 -0.967893 2.51651 1.1303 -0.883246 2.45933 1.15267 -0.78319 
2.40206 1.17271 -0.690358 2.34585 1.18992 -0.627012 2.29101 1.20385 -0.600526 
2.23736 1.21753 -0.596302 2.18603 1.24027 -0.600271 2.13785 1.27789 -0.605492 
2.08691 1.30242 -0.609612 2.03529 1.32574 -0.606199 1.98344 1.35188 -0.588171 
1.92246 1.34066 -0.544716 1.85915 1.32039 -0.493057 1.80065 1.32284 -0.443322 
1.74483 1.33603 -0.401921 1.68886 1.35246 -0.345931 1.63238 1.37036 -0.275201 
1.57534 1.3895 -0.189735 1.51875 1.40494 -0.126231 1.46181 1.40892 -0.0989066 
1.40503 1.40192 -0.115225 1.35232 1.41226 -0.140443 1.29227 1.39567 -0.133671 
1.22879 1.37262 -0.0892101 1.16715 1.36224 -0.030973 1.10381 1.33595 -0.00110146 
1.04157 1.30705 -0.000724164 0.982995 1.29158 -0.016329 0.922543 1.2731 -0.00939776 
0.862745 1.26357 0.0190632 0.801882 1.249 0.0479482 0.745223 1.24651 0.046103 
0.689643 1.2413 0.0147718 0.631231 1.22075 -0.0226983 0.574034 1.20789 -0.0533854 
0.518188 1.20143 -0.0846108 0.470893 1.23345 -0.126507 0.42306 1.26436 -0.160874 
0.36554 1.24848 -0.16152 0.311679 1.21091 -0.122818 0.272812 1.16816 -0.060763 
0.228434 1.12706 0.0108681 0.188068 1.08315 0.0828927 0.12491 1.03173 0.152302 
-0.893747 -0.0938233 -1.01258 -0.936947 -0.116933 -0.812113 3.84943 -0.55415 -0.988539 
3.7942 -0.596307 -0.98111 3.73603 -0.614258 -0.977861 3.67528 -0.645488 -0.975356 
3.62221 -0.688527 -0.973344 3.58369 -0.736425 -0.970352 3.53224 -0.781761 -0.968069 
3.48256 -0.827464 -0.965687 3.45578 -0.877902 -0.962032 3.43069 -0.928687 -0.958283 
3.39078 -0.97641 -0.955358 3.35439 -1.02548 -0.959626 3.30185 -1.07246 -0.979561 
3.23996 -1.11875 -1.01479 3.17603 -1.16399 -1.04275 3.11091 -1.2065 -1.04123 
3.04472 -1.24631 -1.01022 2.97825 -1.28543 -0.971835 2.91234 -1.3258 -0.948209 
2.84735 -1.36575 -0.93947 2.78469 -1.39664 -0.938926 2.72517 -1.41265 -0.939633 
2.66264 -1.44097 -0.931874 2.59957 -1.46794 -0.909376 2.53844 -1.47988 -0.86586 
2.47391 -1.50592 -0.813716 2.40797 -1.5406 -0.768286 2.34452 -1.56935 -0.745638 
2.28471 -1.58478 -0.738964 2.22205 -1.61567 -0.738419 2.15708 -1.65551 -0.72969 
2.09157 -1.694 -0.706222 2.02758 -1.7214 -0.668826 1.9671 -1.73224 -0.632834 
1.90608 -1.74947 -0.611145 1.84643 -1.76223 -0.597274 1.78364 -1.78978 -0.582149 
1.72057 -1.81674 -0.559651 1.66054 -1.8313 -0.545629 1.59801 -1.85962 -0.53787 
1.53558 -1.88796 -0.530104 1.47714 -1.90232 -0.508595 1.42454 -1.93145 -0.463187 
1.3848 -1.97093 -0.408901 1.33223 -1.99995 -0.363501 1.27419 -2.01243 -0.34215 
1.21425 -2.02905 -0.335372 1.15798 -2.02966 -0.337376 1.10383 -2.02032 -0.340216 
1.05044 -2.00732 -0.343367 0.999249 -1.98201 -0.340121 0.952695 -1.93084 -0.3242 
0.905331 -1.87764 -0.286167 0.852517 -1.84826 -0.238687 0.797267 -1.83041 -0.190247 
0.741889 -1.81512 -0.149023 0.68651 -1.79983 -0.107789 0.632047 -1.78412 -0.0814521 
0.580432 -1.7608 -0.078049 0.532123 -1.72575 -0.0904755 0.478472 -1.71207 -0.0862615 
0.420886 -1.71113 -0.0586814 0.36863 -1.68107 -0.0186907 0.315289 -1.65614 0.0217227 
0.260285 -1.63908 0.0628074 0.205575 -1.62258 0.0964992 0.153441 -1.59781 0.114652 
0.104701 -1.55893 0.124177 0.0528599 -1.53473 0.134947 -0.000913057 -1.51771 0.153742 
-0.0523546 -1.49162 0.164342 -0.0986392 -1.44112 0.172899 -0.145193 -1.38996 0.188821 
-0.197737 -1.36126 0.228916 -0.252965 -1.3433 0.277357 -0.307652 -1.3267 0.31104 
-0.358556 -1.30197 0.306903 -0.402422 -1.25425 0.2637 -0.441436 -1.19701 0.20118 
-0.471706 -1.13955 0.150133 -0.493085 -1.08517 0.133178 3.99071 -0.468049 -0.989421 
4.14851 -0.495517 -0.971813 4.20341 -0.523597 -0.967223 4.25991 -0.523204 -0.957744 
4.32108 -0.491749 -0.928621 4.38335 -0.44513 -0.86364 4.49869 -0.405142 -0.766322 
4.55208 -0.418142 -0.763173 4.60311 -0.440312 -0.751821 4.6501 -0.477684 -0.724337 
4.69765 -0.508504 -0.682542 4.74467 -0.54185 -0.640545 4.79825 -0.548048 -0.615675 
4.90582 -0.570283 -0.609694 4.95978 -0.586418 -0.628573 5.02021 -0.577778 -0.671812 
5.14109 -0.554628 -0.736509 5.13577 -0.575894 -0.719857 -0.925585 -0.177227 -0.487146 
-0.878123 -0.190353 -0.379995 -0.827281 -0.18065 -0.282256 -0.779381 -0.14265 -0.209563 
-0.742508 -0.0907103 -0.153437 -0.686296 -0.0355507 -0.0820171 -1.03647 -0.1707 -0.491806 
-0.73045 0.653523 -0.653125 -0.692437 0.701638 -0.656155 -0.66744 0.752443 -0.659909 
-0.640847 0.803429 -0.656175 -0.590489 0.848893 -0.636182 -0.531441 0.884258 -0.592613 
-0.473902 0.905131 -0.540312 -0.412859 0.940084 -0.496632 -0.760043 0.563859 -0.452437 
-0.749113 0.519926 -0.276797 -0.741727 0.472996 -0.145669 -0.727395 0.420277 -0.0658671 
-0.727941 0.366904 -0.0312068 -0.735666 0.31315 -0.0191032 -0.73322 0.2566 -0.0138163 
-0.704051 0.193213 -0.00692253 -0.660989 0.118935 0.00148092 -0.286994 1.02983 -0.403502 
-0.227205 1.06472 -0.337534 -0.173643 1.07211 -0.261811 -0.125181 1.05959 -0.16708 
-0.0801852 1.03031 -0.0486069 -0.0272704 1.0037 0.0823106 -0.314083 0.936862 -0.261969 
-0.535194 -0.00480699 0.0174597 -0.475786 -0.0339201 0.0223105 -0.426688 -0.0718007 0.0350359 
-0.376533 -0.0945511 0.0612918 -0.328026 -0.116408 0.11718 -0.287418 -0.160452 0.197156 
-0.261713 -0.211581 0.299557 -0.262723 -0.259772 0.393273 -0.276651 -0.30665 0.471503 
-0.300616 -0.355181 0.50486 -0.338531 -0.403316 0.507896 -0.362611 -0.456177 0.489545 
-0.386962 -0.508359 0.478567 -0.424607 -0.557171 0.474229 -0.44733 -0.609069 0.47072 
-0.459745 -0.66434 0.453017 -0.469677 -0.721989 0.413295 -0.481012 -0.779972 0.366096 
-0.501943 -0.836331 0.314688 -0.536946 -0.890357 0.266269 -0.550019 -0.95399 0.208361 
-0.182897 0.671728 0.437127 -0.127535 0.69357 0.496696 -0.0798738 0.730667 0.532242 
-0.0550148 0.779224 0.523726 -0.0378741 0.828862 0.462724 -0.0107685 0.884633 0.354384 

LINES 28 404
14 25 26 27 28 29 30 31 32 33 34 35 36 37 24 
8 22 38 39 40 41 42 43 23 
4 22 44 45 20 
5 23 46 47 48 21 
4 22 49 50 21 
29 23 51 52 53 54 55 56 57 58 59 60 61 62 63 64 65 66 67 68 69 70 71 72 73 74 75 76 77 9 
4 22 78 79 20 
5 20 80 81 82 16 
7 21 83 84 85 86 87 17 
3 20 88 17 
3 16 89 17 
4 19 90 91 16 
7 18 100 101 102 103 104 12 
3 18 105 13 
79 18 106 107 108 109 110 111 112 113 114 115 116 117 118 119 120 121 122 123 124 125 126 127 128 129 130 131 132 133 134 135 136 137 138 139 140 141 142 143 144 145 146 147 148 149 150 151 152 153 154 155 156 157 158 159 160 161 162 163 164 165 166 167 168 169 170 171 172 173 174 175 176 177 178 179 180 181 182 0 
7 13 267 268 269 270 271 12 
3 10 282 9 
3 10 283 9 
8 8 284 285 286 287 288 289 4 
3 8 290 6 
10 7 291 292 293 294 295 296 297 298 5 
11 7 299 300 301 302 303 304 305 306 307 4 
8 5 308 309 310 311 312 313 0 
3 5 314 3 
8 1 336 337 338 339 340 341 0 
13 7 99 98 97 96 95 94 93 92 15 183 184 8 
13 12 272 273 274 275 276 277 278 11 279 280 281 10 
107 4 315 316 317 318 319 320 321 322 323 324 325 326 327 328 329 330 331 332 333 334 335 2 265 264 263 262 261 260 259 258 257 256 255 254 253 252 251 250 249 248 247 246 245 244 243 242 241 240 239 238 237 236 235 234 233 232 231 230 229 228 227 226 225 224 223 222 221 220 219 218 217 216 215 214 213 212 211 210 209 208 207 206 205 204 203 202 201 200 199 198 197 196 195 194 193 192 191 190 189 188 187 186 185 14 266 13 

POINT_DATA 342
SCALARS DY_raw double
LOOKUP_TABLE default
13.6937 9.19114 4.81279 22.5814 5.58905 21.4658 10.596 19.5082 18.1809 
38.221 27.2094 22.0439 50.0656 25.2482 34.0271 11.7908 23.0102 37.895 
18.5231 22.3391 33.3156 18.0411 17.46 19.334 42.4394 0 11.2765 
10.6425 10.4383 12.07 10.3864 13.4026 22.2303 22.2303 28.0812 33.0823 
24.5232 31.9956 12.8761 13.6073 14.7273 20.3927 16.8188 17.2452 18.0807 
26.1618 18.1264 15.7749 16.0728 17.5743 17.8849 20.1285 22.5075 20.7905 
17.342 22.6608 21.0572 20.697 17.5751 17.1433 17.826 20.8817 20.2447 
21.3961 22.1198 27.8164 25.8893 35.8331 62.6597 62.6597 77.3335 77.1413 
77.1413 52.8039 54.9292 54.9292 50.9006 45.0663 31.8592 28.1368 41.7755 
32.7616 27.171 26.5355 22.9472 21.3983 24.7164 30.1268 29.0195 32.0241 
19.5191 17.6934 13.513 12.1596 13.7717 13.659 12.1095 15.0563 14.3048 
16.0263 20.2385 19.105 21.3278 26.4566 39.102 19.4721 16.649 18.0783 
18.0626 24.1225 24.6912 24.6912 28.1133 27.2489 25.5155 29.5606 31.7339 
34.3353 41.0538 33.4919 32.668 27.3401 24.1531 15.8151 13.8336 13.8336 
12.288 13.754 12.4199 19.2949 24.3989 24.3961 18.5287 16.4255 13.3001 
13.7716 13.7716 15.6857 17.745 28.0108 24.4802 29.8077 25.204 18.6102 
18.6102 18.4671 18.5913 18.5913 11.7244 12.582 15.0638 15.0016 13.7189 
16.0963 14.989 21.0079 14.5185 11.7849 12.3836 9.29558 6.80674 8.29908 
8.85028 12.7179 17.24 17.24 15.6635 17.3715 21.1039 23.2588 27.3841 
28.6756 26.6313 28.7391 29.269 29.3694 25.035 21.0001 17.7664 15.6039 
14.2125 12.4882 13.6378 11.9132 15.5651 40.3183 48.7116 58.7129 69.417 
95.5266 97.0955 88.2861 63.4253 57.0554 47.8407 47.8407 43.2083 36.7316 
33.8675 36.7245 33.7345 25.2425 36.346 27.4681 27.4511 32.1012 27.093 
23.2244 28.7818 23.0783 33.1049 32.4562 30.6737 39.7198 29.0015 25.7282 
28.9355 23.6402 20.8956 20.8956 12.5623 14.1118 10.9746 8.52038 8.52038 
10.9638 11.9923 12.9386 12.264 12.9082 14.2811 14.2811 13.9523 13.3524 
13.3524 14.4192 17.0429 15.9487 17.0905 19.8758 20.1088 24.3751 24.3751 
27.7001 18.968 21.6711 21.6711 25.4287 23.5177 23.4883 23.4883 30.7267 
28.4985 28.4985 28.6599 17.1678 14.3248 14.3248 10.2341 8.4141 9.99129 
9.30872 8.38901 8.64396 5.81684 6.149 27.7972 28.0236 30.9827 40.2776 
44.2395 47.3088 56.0386 45.2804 45.2804 33.7363 30.7777 36.9992 21.2799 
22.0439 29.109 26.0529 46.0287 46.0287 15.2768 13.9796 12.8307 12.0832 
8.72697 5.19526 11.3633 15.0224 13.4323 14.6452 14.3057 15.8759 17.5446 
18.119 20.2426 21.0029 17.7218 10.8385 12.0483 9.3942 6.97887 5.46023 
2.88892 1.9944 18.9549 9.80047 8.29554 9.74786 12.8573 13.7233 22.2273 
4.41362 5.79628 5.59139 3.30796 4.63608 9.23409 10.7547 11.1617 13.2906 
22.3615 22.3615 33.4246 15.6626 15.6626 24.9697 24.9697 14.4633 10.691 
8.90327 7.74035 5.34805 8.99665 11.6367 13.3806 14.7747 13.6333 12.6889 

FIELD FieldData 7
DY_minmax 1 342 double
0.141033 0.0946608 0.0495676 0.232569 0.0575624 0.221079 0.10913 0.200918 0.187248 
0.393643 0.280233 0.227033 0.515633 0.260035 0.35045 0.121435 0.236985 0.390285 
0.190772 0.230073 0.343122 0.185807 0.179823 0.199124 0.437089 0 0.116138 
0.109608 0.107505 0.12431 0.106971 0.138035 0.228953 0.228953 0.289212 0.340719 
0.252567 0.329527 0.132612 0.140143 0.151679 0.210027 0.173219 0.17761 0.186216 
0.269444 0.186686 0.162468 0.165536 0.181 0.184199 0.207306 0.231808 0.214124 
0.178607 0.233387 0.216871 0.213161 0.181008 0.176561 0.183593 0.215064 0.208503 
0.220362 0.227815 0.286485 0.266638 0.369049 0.645341 0.645341 0.796468 0.794488 
0.794488 0.543835 0.565724 0.565724 0.524232 0.464144 0.328122 0.289784 0.430251 
0.337416 0.279838 0.273293 0.236337 0.220384 0.254558 0.31028 0.298876 0.32982 
0.20103 0.182226 0.139172 0.125233 0.141837 0.140676 0.124717 0.155067 0.147328 
0.165057 0.208439 0.196765 0.219658 0.27248 0.402716 0.200546 0.17147 0.186191 
0.186029 0.248441 0.254298 0.254298 0.289543 0.28064 0.262787 0.304449 0.326832 
0.353624 0.422818 0.344938 0.336452 0.281579 0.248756 0.162882 0.142475 0.142475 
0.126556 0.141655 0.127914 0.198721 0.251287 0.251258 0.19083 0.169169 0.13698 
0.141836 0.141836 0.16155 0.182758 0.288487 0.252125 0.306994 0.25958 0.191669 
0.191669 0.190195 0.191475 0.191475 0.120751 0.129584 0.155144 0.154503 0.141292 
0.165777 0.154374 0.216364 0.149528 0.121374 0.127541 0.0957364 0.0701035 0.0854734 
0.0911502 0.130983 0.177557 0.177557 0.16132 0.178911 0.217351 0.239546 0.282033 
0.295334 0.274279 0.295988 0.301445 0.302479 0.257839 0.216283 0.182978 0.160707 
0.146377 0.128618 0.140458 0.122696 0.160307 0.415244 0.501687 0.604693 0.714935 
0.983841 1 0.909271 0.653226 0.587622 0.492718 0.492718 0.445009 0.378303 
0.348806 0.378231 0.347436 0.259976 0.374332 0.282897 0.282722 0.330614 0.279034 
0.239191 0.296427 0.237686 0.340952 0.334271 0.315913 0.40908 0.29869 0.264978 
0.298011 0.243473 0.215206 0.215206 0.129381 0.145339 0.113029 0.0877525 0.0877525 
0.112918 0.123511 0.133256 0.126309 0.132943 0.147083 0.147083 0.143696 0.137518 
0.137518 0.148506 0.175527 0.164258 0.176017 0.204704 0.207103 0.251042 0.251042 
0.285288 0.195354 0.223193 0.223193 0.261893 0.242212 0.24191 0.24191 0.316458 
0.29351 0.29351 0.295172 0.176813 0.147533 0.147533 0.105402 0.0866579 0.102902 
0.0958717 0.0863996 0.0890253 0.0599084 0.0633294 0.286287 0.288619 0.319095 0.414824 
0.455628 0.48724 0.577149 0.466348 0.466348 0.347454 0.316984 0.38106 0.219164 
0.227033 0.299797 0.268322 0.474055 0.474055 0.157338 0.143978 0.132145 0.124447 
0.0898802 0.0535067 0.117032 0.154718 0.138341 0.150833 0.147337 0.163508 0.180695 
0.18661 0.208481 0.216312 0.18252 0.111627 0.124087 0.0967521 0.0718763 0.0562356 
0.0297534 0.0205405 0.195219 0.100936 0.0854369 0.100395 0.132419 0.141338 0.228922 
0.0454564 0.0596966 0.0575865 0.0340692 0.0477476 0.0951031 0.110764 0.114956 0.136881 
0.230304 0.230304 0.344244 0.161312 0.161312 0.257166 0.257166 0.148959 0.110108 
0.091696 0.0797189 0.0550803 0.0926577 0.119848 0.137808 0.152166 0.140411 0.130685 

WidthEq 1 342 double
15.9731 13.7578 15.276 9.78458 14.2725 12.3825 12.8586 24.8259 25.0163 
11.7564 15.6946 23.2763 9.48275 19.9571 16.7537 33.8935 44.6346 31.7348 
18.9779 35.4978 36.7761 61.1267 45.8374 47.3906 5.27057 1 8.70661 
9.78908 15.4844 16.9172 17.6673 16.5147 13.7758 13.7758 14.0336 12.2271 
15.5526 10.0945 49.6067 47.0807 43.5476 37.714 50.5751 52.21 44.4756 
34.2339 49.1836 55.2041 64.3794 44.6346 56.3027 43.7524 37.9655 40.8715 
49.401 43.0571 44.3273 43.1542 45.6892 45.5356 42.6152 36.088 38.3868 
36.9917 37.2702 31.9549 30.9201 24.56 14.2178 14.2178 10.117 9.58696 
9.58696 12.6852 12.3295 12.3295 12.2621 13.2296 22.1085 24.9059 33.6482 
37.3834 39.0596 43.8081 43.0832 45.2733 44.0695 39.5959 39.1746 36.1868 
44.9139 49.9984 29.5627 28.3464 26.2291 24.7792 23.6815 23.1065 26.2282 
27.0762 18.7973 16.2057 15.8455 15.0828 12.5244 21.442 20.3676 18.1604 
18.4946 13.5252 14.6121 14.6121 15.1942 14.2663 16.0746 14.0731 12.9152 
12.1831 9.86633 10.9856 10.6955 11.839 12.3636 20.3451 27.3493 27.3493 
34.9121 35.346 36.0503 32.9206 29.6301 29.922 36.309 39.8142 40.7718 
34.6597 34.6597 23.253 21.0808 17.449 16.3054 15.9955 16.5462 19.9256 
19.9256 19.5223 19.0417 19.0417 20.187 18.9572 18.1056 17.0142 18.226 
17.5289 14.534 14.3893 17.5307 19.5411 18.8458 21.1509 22.7921 21.3144 
18.6842 12.8119 10.3173 10.3173 10.5679 14.2429 13.0104 13.1443 14.7567 
12.1741 11.6288 10.2742 11.1258 11.5695 11.0234 12.6861 15.5158 18.9914 
20.3433 20.9174 19.1863 36.8498 34.1926 13.9815 11.1824 9.19439 8.1784 
6.04492 5.4125 6.63241 8.10654 9.80345 12.7212 12.7212 13.6383 15.3209 
14.3022 13.8602 16.2291 21.5731 20.1304 22.5047 23.1047 20.8644 21.1051 
22.6637 20.2885 20.5904 14.7945 15.1376 15.5886 12.1768 15.1475 16.7474 
15.0244 19.3552 21.4438 21.4438 27.1948 23.659 27.7104 32.9152 32.9152 
34.3768 33.1829 32.8954 33.9015 31.6279 29.5636 29.5636 31.0422 31.8848 
31.8848 28.1811 26.769 25.8742 25.3299 23.5638 22.2361 18.6473 18.6473 
17.5963 20.3712 17.007 17.007 14.746 13.4048 15.3927 15.3927 12.3349 
11.8031 11.8031 11.3144 11.9037 12.3304 12.3304 11.8184 14.2249 14.3525 
15.1331 15.0208 13.8189 14.3875 13.7632 19.9642 16.6549 14.4307 10.7961 
11.0144 10.6955 9.4028 12.5101 12.5101 15.647 16.0395 14.1746 23.1515 
23.2763 17.5729 18.429 10.6766 10.6766 25.1394 20.2445 14.7927 11.2677 
11.6306 13.3545 25.673 27.7679 28.4344 26.3288 26.8794 22.7742 18.0562 
14.136 11.8058 23.0868 21.5192 19.2591 18.1685 14.79 11.8759 12.0636 
12.0564 13.9842 13.588 16.5013 18.827 19.4648 20.1637 16.9639 13.7192 
14.2106 12.9583 14.3345 12.7571 14.0614 10.0595 10.3676 10.7125 10.0891 
7.65379 7.65379 7.14175 9.16385 9.16385 8.14068 8.14068 9.92652 15.4682 
17.0196 17.7589 17.784 16.3917 15.7485 13.7767 13.668 13.9321 15.876 

rRFP 1 342 double
2430.4 2405.74 2422.64 2361.51 2411.47 2390.43 2395.73 2528.95 2531.07 
2383.46 2427.3 2511.7 2358.15 2474.75 2439.09 2629.89 2749.46 2605.86 
2463.85 2647.75 2661.98 2933.05 2762.85 2780.14 2311.26 2263.72 2349.51 
2361.56 2424.96 2440.91 2449.26 2436.43 2405.94 2405.94 2408.81 2388.7 
2425.72 2364.96 2804.81 2776.69 2737.36 2672.42 2815.59 2833.79 2747.69 
2633.68 2800.1 2867.12 2969.26 2749.46 2879.35 2739.64 2675.22 2707.57 
2802.52 2731.9 2746.04 2732.98 2761.2 2759.49 2726.98 2654.32 2679.91 
2664.38 2667.48 2608.31 2596.79 2525.99 2410.86 2410.86 2365.21 2359.31 
2359.31 2393.8 2389.84 2389.84 2389.09 2399.86 2498.7 2529.84 2627.16 
2668.74 2687.4 2740.26 2732.19 2756.57 2743.17 2693.37 2688.68 2655.42 
2752.57 2809.17 2581.68 2568.14 2544.57 2528.43 2516.21 2509.81 2544.56 
2554 2461.84 2432.99 2428.98 2420.49 2392.01 2491.28 2479.32 2454.75 
2458.47 2403.15 2415.25 2415.25 2421.73 2411.4 2431.53 2409.25 2396.36 
2388.21 2362.42 2374.88 2371.65 2384.38 2390.22 2479.07 2557.04 2557.04 
2641.23 2646.06 2653.9 2619.06 2582.43 2585.68 2656.78 2695.8 2706.46 
2638.42 2638.42 2511.44 2487.26 2446.83 2434.1 2430.65 2436.78 2474.4 
2474.4 2469.91 2464.56 2464.56 2477.31 2463.62 2454.14 2441.99 2455.48 
2447.72 2414.38 2412.77 2447.74 2470.12 2462.38 2488.04 2506.31 2489.86 
2460.58 2395.21 2367.44 2367.44 2370.23 2411.14 2397.42 2398.91 2416.86 
2388.11 2382.04 2366.96 2376.44 2381.38 2375.3 2393.81 2425.31 2464 
2479.05 2485.44 2466.17 2662.8 2633.22 2408.23 2377.07 2354.94 2343.63 
2319.88 2312.84 2326.42 2342.83 2361.72 2394.2 2394.2 2404.41 2423.14 
2411.8 2406.88 2433.25 2492.74 2476.68 2503.11 2509.79 2484.85 2487.53 
2504.88 2478.44 2481.8 2417.28 2421.1 2426.12 2388.14 2421.21 2439.02 
2419.84 2468.05 2491.3 2491.3 2555.32 2515.96 2561.06 2619 2619 
2635.27 2621.98 2618.78 2629.98 2604.67 2581.69 2581.69 2598.15 2607.53 
2607.53 2566.3 2550.58 2540.62 2534.56 2514.9 2500.12 2460.17 2460.17 
2448.47 2479.36 2441.91 2441.91 2416.74 2401.81 2423.94 2423.94 2389.9 
2383.98 2383.98 2378.54 2385.1 2389.85 2389.85 2384.15 2410.94 2412.36 
2421.05 2419.8 2406.42 2412.75 2405.8 2474.83 2437.99 2413.23 2372.77 
2375.2 2371.65 2357.26 2391.85 2391.85 2426.77 2431.14 2410.38 2510.31 
2511.7 2448.21 2457.74 2371.44 2371.44 2532.44 2477.95 2417.26 2378.02 
2382.06 2401.25 2538.38 2561.7 2569.12 2545.68 2551.81 2506.11 2453.59 
2409.95 2384.01 2509.59 2492.14 2466.98 2454.84 2417.23 2384.79 2386.88 
2386.8 2408.26 2403.85 2436.28 2462.17 2469.27 2477.05 2441.43 2405.31 
2410.78 2396.84 2412.16 2394.6 2409.12 2364.57 2368 2371.84 2364.9 
2337.79 2337.79 2332.09 2354.6 2354.6 2343.21 2343.21 2363.09 2424.78 
2442.05 2450.28 2450.56 2435.06 2427.9 2405.95 2404.74 2407.68 2429.32 

rGFP 1 342 double
2891.95 2799.67 2746.74 2894.17 2752.99 2939.02 2809.47 3157.53 3128.04 
3122.56 3100.26 3186.32 3147.98 3177.1 3243.3 3072.85 3700.27 3875.81 
3024.75 3466.21 3898.44 3776.01 3473.54 3589.47 2896.9 2673.22 2771.4 
2777.4 2834.85 2877.41 2856.72 2894.56 2979.46 2979.46 3067.3 3077.72 
3054.62 2996.2 3311.96 3313.86 3314.56 3442.31 3523.83 3573.59 3477.37 
3568.84 3564.74 3544.06 3707.98 3457.64 3680.19 3553.89 3527.73 3522.96 
3529.93 3648.93 3606.63 3566.38 3476.21 3453.85 3432.88 3426.8 3450.35 
3464.7 3497.63 3562.09 3473.72 3553.28 3564.1 3564.1 3455.6 3412.77 
3412.77 3343.05 3350.47 3350.47 3297.37 3269.43 3377.58 3373.99 4078.89 
3897.96 3734.51 3835.69 3661.86 3641.99 3762.46 3866.12 3810.05 3832.07 
3549.9 3557.86 3072.7 3017.9 3034.44 3011.68 2959.99 3021.12 3048.41 
3107.15 3053.65 2982.83 3011.17 3072.26 3162.95 3090.74 3012.32 3001.53 
3007.28 2999.48 3034.01 3034.01 3100.38 3061.96 3083.37 3089.23 3083.07 
3091.53 3078.27 3041.15 3022.62 2996.9 2971.84 2994.98 3051.56 3051.56 
3102.22 3159.37 3120.96 3308.42 3396.16 3403.2 3345.98 3327.19 3215.49 
3150.54 3150.54 3037.96 3047.3 3161.98 3072.38 3150.01 3090.25 3044.04 
3044.04 3033.74 3027.23 3027.23 2909.9 2911.74 2945.96 2928.46 2923.26 
2955.37 2891.07 2975.51 2927.74 2903.51 2906.6 2869.83 2828.36 2850.11 
2838.58 2836.16 2851.09 2851.09 2838.75 2920.64 2947.79 2978.94 3077.32 
3022.32 2982.91 2968.49 2998.86 3013.01 2949.19 2939.63 2948.88 2969.56 
2962.35 2934.44 2934.88 3112.22 3205.43 3236.93 3217.93 3213.05 3240.94 
3250.67 3198.75 3258.77 3187.38 3232.56 3281.81 3281.81 3262.51 3235.98 
3157.6 3182.23 3220.7 3217.78 3404.88 3291.38 3307.47 3342.99 3245.02 
3199.57 3257.16 3148.41 3162.99 3164.53 3151.38 3156.88 3112.52 3104.1 
3107.96 3130.78 3121.3 3121.3 3014.85 3007.09 2977.33 2953.67 2953.67 
3050.12 3071.16 3098.84 3088.99 3081.48 3095.42 3095.42 3106.33 3098.96 
3098.96 3079.57 3129.44 3085.88 3106.12 3141.57 3120.36 3127.75 3127.75 
3160.64 3059.62 3041.78 3041.78 3048.19 2988.47 3034.77 3034.77 3052.23 
3009.59 3009.59 2997.49 2877.58 2849.85 2849.85 2794.17 2792.91 2816.62 
2814.09 2799.23 2792.67 2756.91 2757.85 3228.17 3139.95 3120.32 3108.06 
3160.49 3179.21 3200.14 3239.68 3239.68 3201.09 3166.88 3197.67 3165.88 
3186.32 3184.75 3153.35 3164.65 3164.65 3057.27 2956.23 2863.02 2809.37 
2774.72 2742.6 2964.95 3090.36 3055.16 3058.81 3057.75 3034.78 2990.01 
2929.35 2912.2 3158.11 3054.58 2881.96 2892.12 2812.16 2756.1 2739.09 
2708.05 2701.11 2930.78 2834.94 2829.4 2862.96 2932.47 2906.02 2978.16 
2735.94 2748.33 2753.37 2715.42 2738.41 2766.11 2784.72 2792.79 2807.31 
2844.37 2844.37 2911.93 2816.75 2816.75 2876.49 2876.49 2816.79 2838.59 
2824.75 2810.68 2768.33 2820.69 2856.48 2857.56 2875.16 2863.16 2874.67 

bkstRFP 1 342 double
177.812 153.152 170.052 108.922 158.882 137.842 143.142 276.362 278.482 
130.872 174.712 259.112 105.562 222.162 186.502 377.302 496.872 353.272 
211.262 395.162 409.392 680.462 510.262 527.552 58.672 11.132 96.922 
108.972 172.372 188.322 196.672 183.842 153.352 153.352 156.222 136.112 
173.132 112.372 552.222 524.102 484.772 419.832 563.002 581.202 495.102 
381.092 547.512 614.532 716.672 496.872 626.762 487.052 422.632 454.982 
549.932 479.312 493.452 480.392 508.612 506.902 474.392 401.732 427.322 
411.792 414.892 355.722 344.202 273.402 158.272 158.272 112.622 106.722 
106.722 141.212 137.252 137.252 136.502 147.272 246.112 277.252 374.572 
416.152 434.812 487.672 479.602 503.982 490.582 440.782 436.092 402.832 
499.982 556.582 329.092 315.552 291.982 275.842 263.622 257.222 291.972 
301.412 209.252 180.402 176.392 167.902 139.422 238.692 226.732 202.162 
205.882 150.562 162.662 162.662 169.142 158.812 178.942 156.662 143.772 
135.622 109.832 122.292 119.062 131.792 137.632 226.482 304.452 304.452 
388.642 393.472 401.312 366.472 329.842 333.092 404.192 443.212 453.872 
385.832 385.832 258.852 234.672 194.242 181.512 178.062 184.192 221.812 
221.812 217.322 211.972 211.972 224.722 211.032 201.552 189.402 202.892 
195.132 161.792 160.182 195.152 217.532 209.792 235.452 253.722 237.272 
207.992 142.622 114.852 114.852 117.642 158.552 144.832 146.322 164.272 
135.522 129.452 114.372 123.852 128.792 122.712 141.222 172.722 211.412 
226.462 232.852 213.582 410.212 380.632 155.642 124.482 102.352 91.042 
67.292 60.252 73.832 90.242 109.132 141.612 141.612 151.822 170.552 
159.212 154.292 180.662 240.152 224.092 250.522 257.202 232.262 234.942 
252.292 225.852 229.212 164.692 168.512 173.532 135.552 168.622 186.432 
167.252 215.462 238.712 238.712 302.732 263.372 308.472 366.412 366.412 
382.682 369.392 366.192 377.392 352.082 329.102 329.102 345.562 354.942 
354.942 313.712 297.992 288.032 281.972 262.312 247.532 207.582 207.582 
195.882 226.772 189.322 189.322 164.152 149.222 171.352 171.352 137.312 
131.392 131.392 125.952 132.512 137.262 137.262 131.562 158.352 159.772 
168.462 167.212 153.832 160.162 153.212 222.242 185.402 160.642 120.182 
122.612 119.062 104.672 139.262 139.262 174.182 178.552 157.792 257.722 
259.112 195.622 205.152 118.852 118.852 279.852 225.362 164.672 125.432 
129.472 148.662 285.792 309.112 316.532 293.092 299.222 253.522 201.002 
157.362 131.422 257.002 239.552 214.392 202.252 164.642 132.202 134.292 
134.212 155.672 151.262 183.692 209.582 216.682 224.462 188.842 152.722 
158.192 144.252 159.572 142.012 156.532 111.982 115.412 119.252 112.312 
85.202 85.202 79.502 102.012 102.012 90.622 90.622 110.502 172.192 
189.462 197.692 197.972 182.472 175.312 153.362 152.152 155.092 176.732 

bkstGFP 1 342 double
218.73 126.45 73.52 220.95 79.77 265.8 136.25 484.31 454.82 
449.34 427.04 513.1 474.76 503.88 570.08 399.63 1027.05 1202.59 
351.53 792.99 1225.22 1102.79 800.32 916.25 223.68 0 98.18 
104.18 161.63 204.19 183.5 221.34 306.24 306.24 394.08 404.5 
381.4 322.98 638.74 640.64 641.34 769.09 850.61 900.37 804.15 
895.62 891.52 870.84 1034.76 784.42 1006.97 880.67 854.51 849.74 
856.71 975.71 933.41 893.16 802.99 780.63 759.66 753.58 777.13 
791.48 824.41 888.87 800.5 880.06 890.88 890.88 782.38 739.55 
739.55 669.83 677.25 677.25 624.15 596.21 704.36 700.77 1405.67 
1224.74 1061.29 1162.47 988.64 968.77 1089.24 1192.9 1136.83 1158.85 
876.68 884.64 399.48 344.68 361.22 338.46 286.77 347.9 375.19 
433.93 380.43 309.61 337.95 399.04 489.73 417.52 339.1 328.31 
334.06 326.26 360.79 360.79 427.16 388.74 410.15 416.01 409.85 
418.31 405.05 367.93 349.4 323.68 298.62 321.76 378.34 378.34 
429 486.15 447.74 635.2 722.94 729.98 672.76 653.97 542.27 
477.32 477.32 364.74 374.08 488.76 399.16 476.79 417.03 370.82 
370.82 360.52 354.01 354.01 236.68 238.52 272.74 255.24 250.04 
282.15 217.85 302.29 254.52 230.29 233.38 196.61 155.14 176.89 
165.36 162.94 177.87 177.87 165.53 247.42 274.57 305.72 404.1 
349.1 309.69 295.27 325.64 339.79 275.97 266.41 275.66 296.34 
289.13 261.22 261.66 439 532.21 563.71 544.71 539.83 567.72 
577.45 525.53 585.55 514.16 559.34 608.59 608.59 589.29 562.76 
484.38 509.01 547.48 544.56 731.66 618.16 634.25 669.77 571.8 
526.35 583.94 475.19 489.77 491.31 478.16 483.66 439.3 430.88 
434.74 457.56 448.08 448.08 341.63 333.87 304.11 280.45 280.45 
376.9 397.94 425.62 415.77 408.26 422.2 422.2 433.11 425.74 
425.74 406.35 456.22 412.66 432.9 468.35 447.14 454.53 454.53 
487.42 386.4 368.56 368.56 374.97 315.25 361.55 361.55 379.01 
336.37 336.37 324.27 204.36 176.63 176.63 120.95 119.69 143.4 
140.87 126.01 119.45 83.69 84.63 554.95 466.73 447.1 434.84 
487.27 505.99 526.92 566.46 566.46 527.87 493.66 524.45 492.66 
513.1 511.53 480.13 491.43 491.43 384.05 283.01 189.8 136.15 