# vtk DataFile Version 3.0
vtk output
ASCII
DATASET POLYDATA
POINTS 239 float
0.0909513 -0.222288 0.605977 1.25382 -0.392175 1.11693 -0.74934 -0.355897 0.350723 
6.31564 1.23877 1.54576 6.22987 1.27546 1.48747 6.02992 0.890038 1.43529 
6.12789 1.17638 1.26379 4.9174 -0.582116 1.83427 6.15657 1.20376 0.996648 
4.95412 -0.378993 1.7005 4.79096 -0.944271 1.79236 6.50582 1.38579 0.735735 
4.39274 -0.719218 1.48204 5.71997 0.780055 0.369068 4.05624 -1.44105 1.10767 
2.99252 -1.62109 0.587482 3.02529 -1.61369 0.336342 2.98593 -1.39704 -0.265124 
1.21393 -0.0515161 -1.72366 -0.27229 -1.41852 -1.53898 0.291644 -1.75963 -1.8569 
3.2246 -1.14388 -1.56403 2.77348 -0.83512 -2.47035 2.74434 -1.28252 -2.32853 
2.63013 -1.4493 -2.50762 2.68101 -1.36546 -2.41592 2.78739 -0.949888 -2.46475 
2.78027 -1.0303 -2.46636 2.76604 -1.08903 -2.45449 2.75938 -1.14448 -2.4231 
2.74731 -1.20322 -2.38495 2.77855 -1.34887 -2.26777 2.81835 -1.38427 -2.22739 
2.86078 -1.40513 -2.19659 2.90364 -1.4236 -2.16736 2.94653 -1.44195 -2.13821 
2.98947 -1.46021 -2.10911 3.03137 -1.47284 -2.07492 3.07348 -1.46403 -2.02754 
3.11769 -1.41252 -1.95625 3.15162 -1.33447 -1.8507 3.17727 -1.2481 -1.71285 
2.71728 -0.725796 -2.47171 2.65731 -0.654358 -2.45973 2.59056 -0.607795 -2.43856 
2.51488 -0.575151 -2.41059 2.44518 -0.529788 -2.38328 2.37331 -0.480338 -2.35019 
2.29087 -0.438188 -2.30615 2.21137 -0.392044 -2.26392 2.13318 -0.358225 -2.23137 
2.06767 -0.321275 -2.21552 2.00216 -0.284324 -2.19966 1.92611 -0.254786 -2.17276 
1.85122 -0.219168 -2.1403 1.77461 -0.199802 -2.09668 1.7042 -0.19314 -2.04157 
1.62095 -0.182793 -1.99386 1.52773 -0.165033 -1.94567 1.42884 -0.138331 -1.88695 
1.32351 -0.0990918 -1.81105 2.81103 -0.777757 -2.36119 2.85618 -0.736004 -2.28884 
2.89855 -0.725443 -2.23946 2.94533 -0.722099 -2.20232 3.00368 -0.698281 -2.16939 
3.06298 -0.673162 -2.13706 3.11179 -0.655261 -2.09381 3.15923 -0.625116 -2.04085 
3.20054 -0.596245 -1.97967 3.24782 -0.573364 -1.93105 3.28751 -0.589 -1.8955 
3.3149 -0.649395 -1.87022 3.33525 -0.723708 -1.84701 3.34738 -0.799791 -1.8351 
3.33764 -0.86337 -1.83079 3.32648 -0.926339 -1.82745 3.32069 -0.981828 -1.79889 
3.30514 -1.02452 -1.75775 3.28753 -1.05784 -1.69551 3.25773 -1.09269 -1.63348 
3.2317 -1.1984 -1.48047 3.24306 -1.23767 -1.40959 3.25983 -1.25918 -1.3464 
3.25389 -1.27561 -1.26664 3.22277 -1.27924 -1.17044 3.19397 -1.27263 -1.04261 
3.17069 -1.26523 -0.903757 3.15156 -1.26613 -0.776449 3.13392 -1.28396 -0.68408 
3.10721 -1.3142 -0.633807 3.0826 -1.35085 -0.594028 3.06322 -1.38124 -0.528213 
3.02569 -1.38997 -0.421126 0.203833 -1.68247 -1.78293 0.10735 -1.6312 -1.71249 
0.0172324 -1.59244 -1.65928 -0.0556615 -1.54437 -1.62556 -0.125422 -1.49909 -1.59821 
-0.202591 -1.46389 -1.5663 2.85713 -1.34873 -0.169457 2.75235 -1.30781 -0.0754777 
2.67827 -1.28045 0.0269458 2.6279 -1.2691 0.130647 2.60161 -1.2702 0.245884 
2.59112 -1.28771 0.350232 2.58951 -1.317 0.437739 2.60211 -1.35535 0.498858 
2.63064 -1.3932 0.536848 2.66694 -1.44869 0.5523 2.72999 -1.50307 0.529084 
2.82224 -1.546 0.470125 2.92425 -1.5827 0.400714 3.01456 -1.40989 -0.162469 
3.02649 -1.44084 -0.0782927 3.03599 -1.48765 -0.0153695 3.05136 -1.53157 0.0380878 
3.07082 -1.5579 0.0930252 3.0677 -1.57986 0.165096 3.04287 -1.59595 0.244004 
3.00996 -1.61947 0.459043 4.09177 -1.44118 1.1591 4.1265 -1.42126 1.22433 
4.16437 -1.37591 1.30094 4.19621 -1.32467 1.39014 4.23961 -1.26475 1.46778 
4.28975 -1.20274 1.53683 4.33746 -1.15107 1.60294 4.37892 -1.11495 1.66846 
4.43305 -1.07571 1.7173 4.49906 -1.04149 1.74551 4.5693 -1.01561 1.76223 
4.63609 -1.00132 1.77654 4.69293 -0.997865 1.79503 4.74899 -0.978996 1.80205 
5.75152 0.809775 0.445131 5.7937 0.846872 0.510212 5.83609 0.877197 0.570726 
5.88909 0.914899 0.620258 5.9379 0.961012 0.68125 5.97513 1.00539 0.758328 
6.01798 1.0697 0.842114 6.07684 1.13775 0.919569 4.40586 -0.640786 1.51596 
4.43101 -0.574023 1.54368 4.47584 -0.525456 1.56322 4.52659 -0.492566 1.55811 
4.58964 -0.46675 1.56267 4.65287 -0.4477 1.58176 4.70486 -0.432379 1.6185 
4.76742 -0.409885 1.64439 4.8366 -0.385456 1.66178 4.90233 -0.372761 1.67685 
6.44752 1.39839 0.829232 6.3963 1.39493 0.898776 6.3479 1.37396 0.934308 
6.29397 1.34551 0.944582 6.25276 1.30708 0.957234 6.21189 1.26067 0.975801 
5.00878 -0.33789 1.71953 5.04181 -0.284274 1.73104 5.06704 -0.227322 1.73726 
5.09643 -0.16889 1.75349 5.13968 -0.119646 1.77195 5.17111 -0.0653457 1.78238 
5.19899 -0.0160504 1.77602 5.2297 0.0255214 1.75721 5.26465 0.058762 1.72691 
5.30314 0.0872269 1.69184 5.34518 0.120691 1.67354 5.39471 0.157472 1.67471 
5.42676 0.208248 1.67837 5.44535 0.261519 1.66569 5.45282 0.316291 1.63828 
5.47627 0.357707 1.60735 5.51175 0.38746 1.57022 5.55502 0.404106 1.51683 
5.6005 0.416542 1.45774 5.64385 0.433151 1.4044 5.67872 0.466423 1.37404 
5.70518 0.516331 1.36673 5.72458 0.582294 1.38335 5.74964 0.6491 1.41102 
5.78872 0.706641 1.44102 5.82379 0.756126 1.44673 5.86317 0.797247 1.441 
5.91658 0.829109 1.43762 5.9673 0.862119 1.43241 4.94561 -0.400725 1.79908 
4.94062 -0.443523 1.85693 4.92937 -0.506455 1.86022 6.14203 1.18794 1.13646 
6.17338 1.22503 1.33127 6.20489 1.25467 1.40735 6.09515 1.13894 1.2884 
6.06037 1.10562 1.31882 6.02497 1.07583 1.356 6.00311 1.03374 1.38801 
6.00873 0.97011 1.41714 6.1233 0.848646 1.37564 6.19856 0.818048 1.34922 
6.26605 0.828775 1.35682 6.31841 0.875459 1.39005 6.35059 0.942364 1.42982 
6.37179 1.0206 1.47642 6.35434 1.12188 1.51113 6.26196 1.23539 1.51883 
6.28567 1.27466 1.50866 -0.698678 -0.363673 0.375076 -0.641709 -0.355827 0.399982 
-0.589733 -0.347722 0.432397 -0.535988 -0.330161 0.468161 -0.481831 -0.326135 0.494799 
-0.419536 -0.325158 0.507546 -0.355817 -0.33634 0.510542 -0.284766 -0.330508 0.51346 
-0.211377 -0.310287 0.522316 -0.137391 -0.28214 0.541168 -0.0457456 -0.251711 0.570858 
0.23258 -0.182658 0.63313 0.321658 -0.157527 0.658545 0.366091 -0.144225 0.71067 
0.396849 -0.134304 0.775732 0.428138 -0.126106 0.838644 0.471354 -0.122851 0.880895 
0.528267 -0.11508 0.905835 0.584486 -0.115306 0.926764 0.64678 -0.11433 0.93951 
0.710439 -0.125595 0.942544 0.788903 -0.137891 0.923144 0.869432 -0.154444 0.898028 
0.938381 -0.179669 0.88449 0.998275 -0.196048 0.889844 1.04149 -0.220997 0.914347 
1.09275 -0.227963 0.938332 1.13354 -0.249153 0.968768 1.15573 -0.295617 1.01066 
1.17696 -0.343374 1.05315 1.21213 -0.372204 1.08705 
LINES 23 284
3 24 25 23 
7 22 26 27 28 29 30 23 
13 23 31 32 33 34 35 36 37 38 39 40 41 21 
21 22 42 43 44 45 46 47 48 49 50 51 52 53 54 55 56 57 58 59 60 18 
22 22 61 62 63 64 65 66 67 68 69 70 71 72 73 74 75 76 77 78 79 80 21 
15 21 81 82 83 84 85 86 87 88 89 90 91 92 93 17 
8 20 94 95 96 97 98 99 19 
15 17 100 101 102 103 104 105 106 107 108 109 110 111 112 16 
9 17 113 114 115 116 117 118 119 16 
3 16 120 15 
16 14 121 122 123 124 125 126 127 128 129 130 131 132 133 134 10 
10 13 135 136 137 138 139 140 141 142 8 
12 12 143 144 145 146 147 148 149 150 151 152 9 
8 11 153 154 155 156 157 158 8 
31 9 159 160 161 162 163 164 165 166 167 168 169 170 171 172 173 174 175 176 177 178 179 180 181 182 183 184 185 186 187 5 
5 9 188 189 190 7 
3 8 191 6 
4 6 192 193 4 
7 6 194 195 196 197 198 5 
9 5 199 200 201 202 203 204 205 3 
3 4 206 3 
3 4 207 3 
34 2 208 209 210 211 212 213 214 215 216 217 218 0 219 220 221 222 223 224 225 226 227 228 229 230 231 232 233 234 235 236 237 238 1 

POINT_DATA 239
SCALARS DY_raw double
LOOKUP_TABLE default
33.26 23.2314 0 46.2413 43.9247 33.9783 29.2155 67.9859 21.3989 
46.5809 93.79 16.9468 52.024 27.4948 43.611 33.3133 25.8488 22.393 
8.25009 22.5881 18.6078 19.574 26.5712 18.719 18.6391 21.7686 35.3361 
32.6696 27.2485 14.1447 14.8424 26.0148 28.8489 29.2357 31.3093 24.9701 
24.9701 22.6699 35.7397 34.0387 28.3485 21.011 18.887 23.057 21.907 
11.0318 17.0204 18.8007 12.4203 14.2256 15.7857 12.0998 11.414 11.5962 
17.9892 23.9044 26.2825 24.2933 21.1267 11.9774 7.16278 26.6323 33.2563 
33.4648 41.1652 38.8878 36.4527 34.0756 35.4993 31.715 31.715 24.907 
21.9679 18.467 17.0083 16.7236 31.8774 31.8774 26.8605 23.3055 20.9832 
25.1645 27.6059 30.8688 32.5862 31.1329 23.6678 21.4682 33.0037 36.81 
40.0851 31.8417 28.7439 25.1523 21.037 21.8739 27.3881 30.6244 26.7608 
28.8141 25.6016 27.3859 25.8496 24.4358 21.8579 26.4326 28.532 21.5714 
19.52 26.1083 26.6056 29.2507 31.5766 26.8927 31.2314 32.7582 28.5231 
23.0124 22.761 24.9418 32.7838 47.1903 58.5755 72.5424 60.5046 38.8002 
67.4268 76.5858 83.2448 71.4221 83.9176 84.0745 95.2074 106.043 98.5938 
27.2173 31.7573 32.9906 33.614 36.2042 34.1261 31.0026 26.6924 71.6184 
77.6353 64.9734 79.1088 76.4742 76.8065 66.1958 50.0242 51.231 43.6116 
21.4183 20.8653 20.8653 25.1934 26.9585 22.1575 46.5809 41.1538 40.1314 
45.5089 33.0755 34.5931 36.2816 43.2141 43.2141 42.9248 47.1674 47.1674 
44.4812 45.2457 45.2457 44.6997 48.0405 47.9607 38.8273 35.3311 29.7543 
30.5806 34.7892 36.2542 33.9496 33.9496 37.7313 33.4835 33.2349 52.8202 
61.2639 61.2639 19.7736 36.6411 42.7188 34.9049 39.899 39.899 38.7048 
35.5916 33.3566 36.1828 39.6818 38.5742 42.4671 38.2202 40.1343 39.7961 
41.697 20.4901 25.8574 22.4414 22.1186 17.1741 17.2713 17.2275 20.4032 
30.2743 26.2575 24.5296 29.2679 18.8513 21.4045 24.0564 24.0344 24.0344 
17.1106 20.7694 16.179 27.3113 16.032 11.8894 10.6279 12.7966 14.1818 
14.1818 21.9128 12.4212 17.4278 23.2314 
FIELD FieldData 7
DY_minmax 1 239 double
0.313646 0.219075 0 0.436061 0.414215 0.320419 0.275506 0.641115 0.201794 
0.439264 0.884451 0.15981 0.490592 0.25928 0.411257 0.314148 0.243757 0.211169 
0.0777994 0.213009 0.175474 0.184585 0.250569 0.176522 0.175769 0.20528 0.333223 
0.308078 0.256956 0.133386 0.139965 0.245323 0.272048 0.275696 0.29525 0.235471 
0.235471 0.21378 0.337029 0.320989 0.26733 0.198136 0.178106 0.21743 0.206586 
0.104031 0.160505 0.177293 0.117125 0.134149 0.148861 0.114103 0.107636 0.109354 
0.16964 0.225421 0.247847 0.229088 0.199228 0.112948 0.0675459 0.251145 0.313611 
0.315577 0.388193 0.366717 0.343753 0.321337 0.334763 0.299076 0.299076 0.234876 
0.20716 0.174146 0.16039 0.157705 0.300608 0.300608 0.253298 0.219774 0.197874 
0.237305 0.260327 0.291097 0.307291 0.293587 0.22319 0.202448 0.311229 0.347122 
0.378007 0.300271 0.271058 0.23719 0.198381 0.206273 0.258273 0.288792 0.252358 
0.27172 0.241426 0.258253 0.243765 0.230433 0.206123 0.249262 0.26906 0.203421 
0.184076 0.246204 0.250894 0.275838 0.297771 0.253602 0.294516 0.308914 0.268976 
0.21701 0.214639 0.235204 0.309155 0.44501 0.552373 0.684083 0.570565 0.365891 
0.635842 0.722213 0.785008 0.673519 0.791353 0.792832 0.897817 1 0.929751 
0.256662 0.299475 0.311105 0.316984 0.34141 0.321814 0.292358 0.251712 0.67537 
0.73211 0.612706 0.746005 0.721161 0.724295 0.624235 0.471734 0.483115 0.411263 
0.201977 0.196762 0.196762 0.237577 0.254221 0.208948 0.439264 0.388085 0.378444 
0.429154 0.311906 0.326217 0.34214 0.407514 0.407514 0.404786 0.444794 0.444794 
0.419463 0.426672 0.426672 0.421523 0.453028 0.452275 0.366146 0.333176 0.280587 
0.288379 0.328066 0.341882 0.320148 0.320148 0.35581 0.315753 0.313409 0.4981 
0.577726 0.577726 0.186468 0.34553 0.402843 0.329157 0.376252 0.376252 0.364991 
0.335633 0.314557 0.341208 0.374204 0.363759 0.40047 0.360421 0.378471 0.375282 
0.393207 0.193224 0.243838 0.211626 0.208581 0.161954 0.162871 0.162457 0.192404 
0.28549 0.247612 0.231317 0.276 0.17777 0.201847 0.226855 0.226648 0.226648 
0.161355 0.195858 0.15257 0.257549 0.151184 0.112119 0.100223 0.120674 0.133736 
0.133736 0.20664 0.117133 0.164347 0.219075 
WidthEq 1 239 double
2.09471 1.43254 1.45793 2.98089 2.7661 3.6279 4.21043 1.59989 4.55912 
3.69658 1 2.15085 1.52372 4.72089 4.22003 1.76266 3.84428 5.1074 
1.74301 2.80413 2.82301 5.12926 3.76386 4.34692 2.51889 3.84224 3.14976 
3.03065 3.03723 3.2818 3.91717 4.32216 4.36066 4.28996 4.10357 3.61832 
3.61832 3.40981 2.90573 3.4264 3.98857 5.38432 4.48086 4.34488 4.04664 
3.47542 2.8883 2.69723 2.71329 2.53136 2.47438 2.72815 2.89644 2.75608 
2.66438 2.47109 2.30724 2.4266 2.3785 2.02465 1.9727 3.82318 3.21112 
2.75035 2.1987 2.27655 2.40174 2.58631 2.74146 3.18241 3.18241 3.32477 
3.02988 2.64093 2.35415 2.32128 2.47009 2.47009 3.6656 4.34532 4.94777 
5.57292 5.43942 5.31701 4.94167 4.84536 4.68612 4.42096 3.96379 3.65825 
3.4776 3.63894 4.0012 4.65682 3.92071 4.93786 4.64034 4.6734 4.0279 
3.28347 5.07157 4.625 4.45229 4.36285 3.98437 3.74236 3.73406 3.92139 
3.5871 3.76202 3.88264 4.29699 4.03115 4.75779 4.1676 3.94221 3.77554 
3.77883 3.86934 3.81729 3.45323 4.08558 3.87534 2.85516 2.92573 2.23323 
1.54241 1.86275 1.7129 1.64291 1.64018 1.34607 1.45199 1.30164 1.24308 
4.76608 5.15189 5.39882 5.23354 4.64145 4.36938 4.29093 4.50204 1.55574 
1.53976 1.6162 1.69058 1.85762 2.12742 2.45136 2.83683 2.78972 3.43418 
3.00305 3.22641 3.22641 3.84268 4.20054 4.41476 3.69658 3.64948 3.43372 
3.27826 3.13102 2.95117 2.87997 2.65955 2.65955 2.78976 2.70293 2.70293 
2.52062 2.56334 2.56334 2.63626 2.65193 2.75142 3.0561 3.05991 3.55545 
3.81647 3.81412 4.00615 4.42333 4.42333 4.45254 4.55061 4.15798 3.40646 
2.50213 2.50213 4.4883 3.96685 3.04526 4.13953 3.88105 3.88105 3.92484 
3.9234 3.53693 3.07743 2.9928 3.18736 2.98984 3.64467 3.49576 2.82113 
2.74864 2.59247 2.68511 2.95302 3.00199 2.5783 2.11623 2.36773 2.12369 
1.92044 1.92669 1.9878 2.64351 2.89582 2.74568 2.49289 2.23929 2.23929 
1.97304 1.92013 1.75907 2.06215 2.13136 2.11028 2.23844 2.37328 2.38051 
2.38051 1.98742 1.76553 1.61408 1.43254 
rRFP 1 239 double
3593.16 3170.93 3187.12 4158.23 4021.27 4570.8 4942.25 3277.64 5164.59 
4614.59 2895.12 3628.96 3229.07 5267.74 4948.37 3381.43 4708.77 5514.2 
3368.9 4045.52 4057.56 5528.14 4657.49 5029.28 3863.64 4707.47 4265.91 
4189.96 4194.16 4350.11 4755.25 5013.49 5038.04 4992.96 4874.11 4564.69 
4564.69 4431.73 4110.31 4442.31 4800.78 5690.78 5114.69 5027.98 4837.81 
4473.57 4099.19 3977.36 3987.6 3871.59 3835.26 3997.07 4104.38 4014.88 
3956.41 3833.16 3728.68 3804.79 3774.12 3548.49 3515.36 4695.32 4305.04 
4011.23 3659.47 3709.11 3788.94 3906.63 4005.56 4286.73 4286.73 4377.51 
4189.47 3941.46 3758.59 3737.63 3832.52 3832.52 4594.84 5028.26 5412.41 
5811.04 5725.91 5647.86 5408.52 5347.11 5245.57 5076.49 4784.98 4590.15 
4474.96 4577.84 4808.83 5226.89 4757.51 5406.09 5216.38 5237.46 4825.86 
4351.17 5491.35 5206.6 5096.47 5039.44 4798.1 4643.78 4638.49 4757.94 
4544.78 4656.32 4733.23 4997.44 4827.93 5291.27 4914.94 4771.22 4664.94 
4667.04 4724.75 4691.56 4459.42 4862.64 4728.58 4078.06 4123.06 3681.49 
3240.99 3445.25 3349.7 3305.07 3303.33 3115.79 3183.33 3087.46 3050.12 
5296.56 5542.57 5700.02 5594.63 5217.09 5043.6 4993.58 5128.19 3249.49 
3239.3 3288.04 3335.47 3441.98 3614.02 3820.58 4066.37 4036.33 4447.27 
4172.36 4314.79 4314.79 4707.75 4935.94 5072.54 4614.59 4584.56 4446.98 
4347.85 4253.96 4139.28 4093.88 3953.33 3953.33 4036.36 3980.99 3980.99 
3864.74 3891.98 3891.98 3938.48 3948.47 4011.91 4206.19 4208.62 4524.6 
4691.04 4689.54 4811.99 5078 5078 5096.63 5159.16 4908.8 4429.6 
3852.95 3852.95 5119.43 4786.93 4199.28 4897.04 4732.22 4732.22 4760.14 
4759.22 4512.79 4219.79 4165.83 4289.89 4163.94 4581.49 4486.54 4056.36 
4010.14 3910.56 3969.63 4140.46 4171.69 3901.52 3606.88 3767.25 3611.64 
3482.04 3486.02 3524.99 3943.1 4103.99 4008.25 3847.06 3685.35 3685.35 
3515.58 3481.84 3379.14 3572.4 3616.53 3603.09 3684.81 3770.79 3775.4 
3775.4 3524.75 3383.26 3286.69 3170.93 
rGFP 1 239 double
2469.23 2432.84 2399.56 2537.4 2521.06 2522.83 2522.57 2508.33 2497.12 
2571.75 2493.35 2436.01 2478.83 2529.36 2583.6 2458.28 2498.93 2513.93 
2413.94 2462.9 2452.09 2499.96 2499.57 2480.93 2446.51 2483.2 2510.86 
2498.57 2482.32 2445.98 2457.7 2512 2525.36 2524.98 2528.04 2489.91 
2489.91 2476.86 2503.41 2516.19 2512.63 2512.69 2484.19 2499.74 2488.21 
2437.9 2448.72 2450.27 2433.26 2435.57 2438.62 2432.57 2432.62 2431.52 
2447.49 2458.63 2460.2 2458.51 2449.81 2423.81 2413.69 2501.38 2506.35 
2491.6 2490.07 2488.09 2487.11 2487.69 2496.88 2500.49 2500.49 2482.37 
2466.12 2448.33 2439.6 2438.38 2478.3 2478.3 2498.02 2500.83 2503.38 
2539.8 2549.72 2563.69 2560.59 2550.41 2510.47 2494.47 2530.38 2534.22 
2538.96 2515.43 2514.57 2516.69 2482.04 2507.57 2526.65 2542.68 2507.35 
2494.17 2529.4 2526.22 2514.65 2506.17 2486.65 2498.48 2506.1 2484.15 
2469.58 2497.78 2502.86 2525.25 2526.85 2527.51 2529.72 2528.7 2507.25 
2486.52 2487.63 2494.77 2512.77 2592.36 2626.56 2606.68 2576.58 2486.21 
2503.56 2542.22 2542.15 2516.9 2537.2 2512.73 2537.8 2537.59 2522.12 
2529.28 2563.17 2577.67 2575.48 2567.6 2548.67 2532.59 2519.73 2510.98 
2519.1 2504.57 2533.3 2541.62 2562.96 2561.83 2541.47 2542.48 2549.33 
2463.88 2466.88 2466.88 2496.37 2512.8 2497.38 2571.75 2549.75 2537.36 
2548.75 2503.12 2501.65 2504.05 2514.49 2514.49 2519.31 2527.05 2527.05 
2511.68 2515.54 2515.54 2517.4 2526.96 2531.52 2518.22 2507.67 2505.35 
2516.27 2532.25 2544.8 2549.73 2549.73 2567.56 2551.93 2537.75 2579.49 
2552.85 2552.85 2488.31 2544.91 2529.65 2544.05 2554.41 2554.41 2551.47 
2539.2 2517.54 2510.91 2518.32 2522.51 2526.53 2538.86 2539.86 2511.83 
2514.17 2452.68 2468.99 2465.83 2465.96 2443.84 2436.11 2440.35 2442.89 
2457.7 2450.15 2448.32 2476.93 2454.15 2458.33 2459.53 2453.38 2453.38 
2433.32 2439.44 2428.02 2455.88 2433.73 2424.65 2423.35 2429.93 2433.32 
2433.32 2443.11 2421.49 2427.69 2432.84 
bkstRFP 1 239 double
1335.69 913.459 929.649 1900.76 1763.8 2313.33 2684.78 1020.17 2907.12 
2357.12 637.649 1371.49 971.599 3010.27 2690.9 1123.96 2451.3 3256.73 
1111.43 1788.05 1800.09 3270.67 2400.02 2771.81 1606.17 2450 2008.44 
1932.49 1936.69 2092.64 2497.78 2756.02 2780.57 2735.49 2616.64 2307.22 
2307.22 2174.26 1852.84 2184.84 2543.31 3433.31 2857.22 2770.51 2580.34 
2216.1 1841.72 1719.89 1730.13 1614.12 1577.79 1739.6 1846.91 1757.41 
1698.94 1575.69 1471.21 1547.32 1516.65 1291.02 1257.89 2437.85 2047.57 
1753.76 1402 1451.64 1531.47 1649.16 1748.09 2029.26 2029.26 2120.04 
1932 1683.99 1501.12 1480.16 1575.05 1575.05 2337.37 2770.79 3154.94 
3553.57 3468.44 3390.39 3151.05 3089.64 2988.1 2819.02 2527.51 2332.68 
2217.49 2320.37 2551.36 2969.42 2500.04 3148.62 2958.91 2979.99 2568.39 
2093.7 3233.88 2949.13 2839 2781.97 2540.63 2386.31 2381.02 2500.47 
2287.31 2398.85 2475.76 2739.97 2570.46 3033.8 2657.47 2513.75 2407.47 
2409.57 2467.28 2434.09 2201.95 2605.17 2471.11 1820.59 1865.59 1424.02 
983.519 1187.78 1092.23 1047.6 1045.86 858.319 925.859 829.989 792.649 
3039.09 3285.1 3442.55 3337.16 2959.62 2786.13 2736.11 2870.72 992.019 
981.829 1030.57 1078 1184.51 1356.55 1563.11 1808.9 1778.86 2189.8 
1914.89 2057.32 2057.32 2450.28 2678.47 2815.07 2357.12 2327.09 2189.51 
2090.38 1996.49 1881.81 1836.41 1695.86 1695.86 1778.89 1723.52 1723.52 
1607.27 1634.51 1634.51 1681.01 1691 1754.44 1948.72 1951.15 2267.13 
2433.57 2432.07 2554.52 2820.53 2820.53 2839.16 2901.69 2651.33 2172.13 
1595.48 1595.48 2861.96 2529.46 1941.81 2639.57 2474.75 2474.75 2502.67 
2501.75 2255.32 1962.32 1908.36 2032.42 1906.47 2324.02 2229.07 1798.89 
1752.67 1653.09 1712.16 1882.99 1914.22 1644.05 1349.41 1509.78 1354.17 
1224.57 1228.55 1267.52 1685.63 1846.52 1750.78 1589.59 1427.88 1427.88 
1258.11 1224.37 1121.67 1314.93 1359.06 1345.62 1427.34 1513.32 1517.93 
1517.93 1267.28 1125.79 1029.22 913.459 
bkstGFP 1 239 double
69.67 33.28 0 137.84 121.5 123.27 123.01 108.77 97.56 
172.19 93.79 36.45 79.27 129.8 184.04 58.72 99.37 114.37 
14.38 63.34 52.53 100.4 100.01 81.37 46.95 83.64 111.3 
99.01 82.76 46.42 58.14 112.44 125.8 125.42 128.48 90.35 
90.35 77.3 103.85 116.63 113.07 113.13 84.63 100.18 88.65 
38.34 49.16 50.71 33.7 36.01 39.06 33.01 33.06 31.96 
47.93 59.07 60.64 58.95 50.25 24.25 14.13 101.82 106.79 
92.04 90.51 88.53 87.55 88.13 97.32 100.93 100.93 82.81 
66.56 48.77 40.04 38.82 78.74 78.74 98.46 101.27 103.82 
140.24 150.16 164.13 161.03 150.85 110.91 94.91 130.82 134.66 
139.4 115.87 115.01 117.13 82.48 108.01 127.09 143.12 107.79 
94.61 129.84 126.66 115.09 106.61 87.09 98.92 106.54 84.59 
70.02 98.22 103.3 125.69 127.29 127.95 130.16 129.14 107.69 
86.96 88.07 95.21 113.21 192.8 227 207.12 177.02 86.65 
104 142.66 142.59 117.34 137.64 113.17 138.24 138.03 122.56 
129.72 163.61 178.11 175.92 168.04 149.11 133.03 120.17 111.42 
119.54 105.01 133.74 142.06 163.4 162.27 141.91 142.92 149.77 
64.32 67.32 67.32 96.81 113.24 97.82 172.19 150.19 137.8 
149.19 103.56 102.09 104.49 114.93 114.93 119.75 127.49 127.49 
112.12 115.98 115.98 117.84 127.4 131.96 118.66 108.11 105.79 
116.71 132.69 145.24 150.17 150.17 168 152.37 138.19 179.93 
153.29 153.29 88.75 145.35 130.09 144.49 154.85 154.85 151.91 
139.64 117.98 111.35 118.76 122.95 126.97 139.3 140.3 112.27 
114.61 53.12 69.43 66.27 66.4 44.28 36.55 40.79 43.33 
58.14 50.59 48.76 77.37 54.59 58.77 59.97 53.82 53.82 
33.76 39.88 28.46 56.32 34.17 25.09 23.79 30.37 33.76 
33.76 43.55 21.93 28.13 33.28 
tubeWidth 1 239 double
0.125171 0.0945344 0.133861 0.0564302 0.0684652 0.199734 0.199434 0.192542 0.247299 
0.198613 0.11004 0.22851 0.0992721 0.279855 0.276327 0.143333 0.261891 0.296562 
0.191194 0.162468 0.222892 0.296917 0.267271 0.239627 0.0531513 0.211302 0.195467 
0.16045 0.152608 0.170873 0.176434 0.298127 0.278864 0.27113 0.280718 0.244441 
0.210375 0.203964 0.175476 0.178937 0.164338 0.198352 0.278328 0.279024 0.268582 
0.222725 0.227414 0.230455 0.212419 0.212679 0.182183 0.225373 0.275548 0.291994 
0.263151 0.29341 0.262322 0.218793 0.264075 0.237781 0.253847 0.169614 0.223774 
0.161819 0.127418 0.121545 0.188132 0.226631 0.263393 0.258074 0.26895 0.289441 
0.268832 0.255062 0.200354 0.153467 0.0947692 0.116295 0.141389 0.207532 0.271748 
0.245651 0.237061 0.255193 0.283325 0.263247 0.284936 0.287233 0.263201 0.193573 
0.127965 0.0861925 0.142734 0.217232 0.318843 0.301252 0.309942 0.307708 0.301677 
0.29449 0.22393 0.286354 0.301795 0.275284 0.246003 0.204997 0.21776 0.236944 
0.246694 0.266326 0.290136 0.22776 0.269688 0.250068 0.195665 0.143886 0.152565 
0.208987 0.243573 0.239119 0.266247 0.331411 0.325045 0.252681 0.197312 0.182077 
0.131798 0.194639 0.231147 0.171137 0.133663 0.134181 0.129925 0.102834 0.0424828 
0.285127 0.319842 0.289941 0.27456 0.251955 0.17646 0.152269 0.203777 0.155062 
0.208586 0.160374 0.163944 0.179016 0.194371 0.17818 0.157765 0.161467 0.168118 
0.259489 0.218377 0.208499 0.225771 0.215243 0.232522 0.289925 0.287641 0.279167 
0.27041 0.228205 0.21583 0.211322 0.218741 0.225919 0.232575 0.199705 0.208035 
0.211915 0.21653 0.223122 0.177941 0.173115 0.234888 0.253974 0.234445 0.268083 
0.285325 0.287082 0.250521 0.257089 0.264815 0.257598 0.24159 0.215234 0.203502 
0.238924 0.216804 0.200595 0.190275 0.135555 0.173655 0.163062 0.173299 0.17659 
0.23086 0.207721 0.148099 0.145517 0.214028 0.253898 0.24868 0.157522 0.0836294 
0.0493206 0.215843 0.245517 0.275829 0.265818 0.22775 0.209588 0.167076 0.133751 
0.121938 0.127161 0.112873 0.181503 0.259979 0.268699 0.250363 0.204884 0.163491 
0.181724 0.165734 0.184354 0.18318 0.250393 0.222648 0.212981 0.236997 0.276496 
0.3084 0.248933 0.173791 0.16685 0.173011 
