# vtk DataFile Version 3.0
vtk output
ASCII
DATASET POLYDATA
POINTS 315 float
0.494465 0.467914 1.43374 0.695913 0.704689 1.10714 0.184391 0.660567 1.09145 
0.499184 0.23132 1.01152 0.433575 0.285457 0.94177 2.91951 1.38244 -0.28497 
0.236786 2.19749 -1.55263 -0.346834 0.462333 -0.268644 1.5423 2.06557 -1.84217 
0.248461 1.79539 -1.70223 -0.176493 0.307971 -0.375209 1.53334 1.79566 -1.84086 
3.48191 -0.240608 0.210399 -0.354597 0.193292 -0.672562 3.08764 -0.953626 0.866349 
0.37554 -1.22271 0.519669 4.57019 -0.441113 -0.130438 -0.099594 -0.966074 -0.135321 
2.24547 0.733621 -2.06286 2.80369 -1.92992 0.722629 3.2575 -0.448784 -1.09905 
2.5577 -2.04479 0.517885 2.16308 -2.08403 0.511666 2.11757 -2.06417 0.483328 
2.05245 -2.05091 0.471178 1.98323 -2.04231 0.47502 1.92088 -2.03651 0.494139 
1.85012 -2.02877 0.498762 1.77486 -2.01531 0.496314 1.70648 -1.99649 0.488678 
1.64951 -1.9653 0.479735 1.58106 -1.94642 0.47203 1.50464 -1.93201 0.468359 
1.42677 -1.91841 0.465423 1.34828 -1.89928 0.467371 1.27186 -1.88486 0.4637 
1.20413 -1.87147 0.451066 1.15058 -1.85602 0.426688 1.09228 -1.83735 0.409284 
1.03693 -1.80525 0.399521 0.967609 -1.76332 0.410526 0.89703 -1.71033 0.431305 
0.838005 -1.64499 0.450806 0.776321 -1.58113 0.471653 0.728271 -1.50965 0.485597 
0.688194 -1.43369 0.495512 0.648117 -1.35773 0.505427 0.600693 -1.29178 0.51449 
0.540957 -1.24458 0.520748 0.486823 -1.21349 0.512277 0.427361 -1.20691 0.508432 
2.60889 -2.02347 0.511532 2.66585 -2.00791 0.534918 2.71434 -1.9892 0.58735 
2.76538 -1.95889 0.649431 3.21654 -0.353809 -1.11454 3.20721 -0.270653 -1.14253 
3.21265 -0.20535 -1.18585 3.21359 -0.1554 -1.23482 3.20137 -0.116807 -1.28011 
3.19026 -0.0775891 -1.32596 3.15753 -0.050476 -1.36087 3.10475 -0.0345957 -1.38564 
3.06406 -0.0119433 -1.41652 3.03923 0.0195906 -1.45543 3.02795 0.0587147 -1.50119 
3.00466 0.0911116 -1.54088 2.9734 0.119043 -1.57653 2.94077 0.14621 -1.6115 
2.90942 0.174092 -1.64711 2.88459 0.205626 -1.68601 2.8645 0.233934 -1.73189 
2.82141 0.237586 -1.77526 2.7823 0.231705 -1.82978 2.74249 0.231314 -1.87938 
2.69597 0.250698 -1.90731 2.66322 0.301338 -1.92395 2.61365 0.348438 -1.9275 
2.57082 0.387547 -1.9436 2.53439 0.418468 -1.97207 2.49198 0.440159 -2.00208 
2.43757 0.455123 -2.02602 2.39533 0.476912 -2.05612 2.36182 0.509465 -2.08607 
2.33431 0.563038 -2.10535 2.30649 0.645859 -2.10164 -0.121336 -0.93281 -0.175791 
-0.132445 -0.893592 -0.221642 -0.155648 -0.861146 -0.261374 -0.185284 -0.832303 -0.297851 
-0.206938 -0.79899 -0.338366 -0.208621 -0.754492 -0.388986 -0.210217 -0.709946 -0.439651 
-0.230418 -0.67582 -0.480901 -0.252072 -0.642506 -0.521417 -0.262475 -0.608779 -0.572194 
-0.282963 -0.586577 -0.622431 -0.302744 -0.569866 -0.677595 -0.311678 -0.535316 -0.729116 
-0.326081 -0.492056 -0.768731 -0.337531 -0.435377 -0.800708 -0.360979 -0.385418 -0.826615 
-0.384549 -0.319887 -0.840211 -0.390562 -0.204408 -0.829518 -0.382633 -0.0268216 -0.771304 
4.49897 -0.382688 -0.104662 4.44009 -0.324738 -0.0879981 4.37632 -0.289652 -0.0685397 
4.31658 -0.283985 -0.0489333 4.25355 -0.28765 -0.0416362 4.19422 -0.299498 -0.0358335 
4.12584 -0.303885 -0.0396429 4.05746 -0.308272 -0.0434524 3.99812 -0.32012 -0.0376495 
3.93571 -0.329423 -0.0351247 3.87746 -0.342167 -0.0281677 3.8151 -0.351524 -0.0255733 
3.75629 -0.358787 -0.0136601 3.6929 -0.350649 0.00642367 3.63533 -0.328676 0.0565158 
3.57049 -0.29103 0.129108 3.47859 -0.334792 0.267983 3.47006 -0.408702 0.316913 
3.45295 -0.462838 0.361056 3.42587 -0.503016 0.399346 3.40651 -0.547849 0.447644 
3.38709 -0.592632 0.495879 3.35857 -0.629905 0.534437 3.33209 -0.668865 0.575171 
3.29659 -0.70038 0.606311 3.2621 -0.732736 0.638535 3.24159 -0.776619 0.685609 
3.2221 -0.821347 0.733774 3.19358 -0.85862 0.772332 3.16704 -0.897532 0.813002 
3.13032 -0.928037 0.842843 -0.416094 0.327772 -0.638079 -0.489465 0.41037 -0.606264 
-0.557003 0.450489 -0.60048 -0.601089 0.473259 -0.628188 -0.63364 0.482818 -0.67689 
-0.662055 0.471156 -0.745955 -0.687047 0.443751 -0.83046 -0.702812 0.409757 -0.928758 
-0.707651 0.393639 -1.02346 -0.724849 0.388167 -1.0981 -0.741931 0.404795 -1.15282 
-0.734161 0.438852 -1.20164 -0.708483 0.476217 -1.24067 -0.689208 0.521 -1.28892 
-0.669847 0.565832 -1.33722 -0.64248 0.60406 -1.37701 -0.623745 0.654427 -1.42042 
-0.605578 0.710273 -1.45889 -0.578935 0.764144 -1.48279 -0.553026 0.80859 -1.51857 
-0.51574 0.833615 -1.55337 -0.472261 0.843502 -1.59268 -0.434909 0.868472 -1.62741 
-0.408475 0.917504 -1.65708 -0.376605 0.982106 -1.65878 -0.345362 1.05225 -1.65558 
-0.321496 1.12346 -1.66579 -0.288306 1.17694 -1.67718 -0.25409 1.22958 -1.68748 
-0.224205 1.29582 -1.69128 -0.18271 1.35751 -1.67719 -0.151674 1.4228 -1.67977 
-0.109715 1.46403 -1.68739 -0.0584983 1.48759 -1.69627 -0.0243278 1.52522 -1.72328 
0.0117325 1.57132 -1.73717 0.0507841 1.63 -1.73123 0.0902936 1.69332 -1.71924 
0.131648 1.7501 -1.71086 0.181933 1.78446 -1.70963 -0.354689 0.323375 -0.464214 
3.39216 -0.177809 0.236319 3.32661 -0.112309 0.254809 3.26265 -0.0511282 0.274651 
3.20586 0.00765743 0.28689 3.14605 0.054905 0.293083 3.09957 0.0977631 0.2835 
3.05272 0.138907 0.275811 2.99043 0.174916 0.294416 2.92655 0.2092 0.337243 
2.85255 0.254713 0.377291 2.77847 0.300176 0.417383 2.71295 0.333554 0.461028 
2.63904 0.368842 0.490192 2.56088 0.402622 0.509284 2.48696 0.437916 0.538443 
2.42201 0.46581 0.577151 2.34866 0.495623 0.601353 2.27122 0.513754 0.604569 
2.19402 0.521665 0.596934 2.11784 0.528734 0.590383 2.04637 0.541949 0.599933 
1.98211 0.564251 0.633811 1.90872 0.604125 0.669086 1.83579 0.648638 0.710402 
1.77676 0.68168 0.766497 1.7183 0.70924 0.817637 1.64616 0.738044 0.843139 
1.56995 0.755172 0.847648 1.49979 0.75727 0.847501 1.4393 0.746376 0.852074 
1.37093 0.741985 0.84827 1.30371 0.736643 0.845691 1.25154 0.71888 0.859116 
1.20636 0.695353 0.879965 1.16124 0.671772 0.900884 1.11023 0.653053 0.915538 
1.05012 0.641845 0.920517 0.997888 0.624136 0.933871 0.944009 0.612803 0.951028 
0.875992 0.623163 0.964256 0.810967 0.646101 0.997316 0.761729 0.666047 1.05826 
1.53829 1.93701 -1.84309 1.42885 1.78743 -1.85619 1.3423 1.79999 -1.85906 
1.27118 1.82961 -1.85682 1.21472 1.86531 -1.85957 1.15329 1.88843 -1.84871 
1.09762 1.90579 -1.80813 1.03924 1.93339 -1.75703 0.96585 1.97327 -1.72176 
0.888378 2.00147 -1.70748 0.818915 1.99798 -1.71244 0.762022 1.96405 -1.72625 
0.702739 1.92708 -1.74815 0.646435 1.89768 -1.75577 0.58586 1.88184 -1.75684 
0.534719 1.86323 -1.74233 0.488517 1.84054 -1.72256 0.437377 1.82193 -1.70805 
0.376114 1.81168 -1.70429 0.316838 1.79978 -1.69842 1.62478 1.77994 -1.81133 
1.68736 1.76192 -1.78287 1.74484 1.74754 -1.75921 1.78895 1.72675 -1.72999 
1.83436 1.70674 -1.70149 1.89846 1.6972 -1.68246 1.96393 1.68842 -1.66411 
2.01731 1.67288 -1.63965 2.07273 1.66436 -1.61165 2.11334 1.65931 -1.56702 
2.14546 1.66716 -1.5044 2.18348 1.68421 -1.44019 2.23414 1.70244 -1.38695 
2.27457 1.6973 -1.34224 2.30829 1.67663 -1.30326 2.34118 1.64961 -1.26843 
2.37327 1.62803 -1.22862 2.40265 1.61669 -1.17832 2.42218 1.61749 -1.10932 
2.42898 1.61706 -1.02932 2.44788 1.62339 -0.955436 2.47601 1.62312 -0.895364 
2.50622 1.61814 -0.840908 2.53786 1.60219 -0.796305 2.57095 1.58704 -0.752445 
2.61138 1.58191 -0.707726 2.66258 1.59456 -0.659326 2.70022 1.59962 -0.604062 
2.72317 1.58468 -0.550501 2.73382 1.5511 -0.499849 2.75711 1.5187 -0.460161 
2.78838 1.49077 -0.424508 2.82109 1.46365 -0.38959 2.8539 1.43658 -0.354717 
2.8867 1.40951 -0.319843 -0.261977 0.387916 -0.319486 0.242623 1.99644 -1.62743 
-0.358154 0.516469 -0.129232 -0.358764 0.576612 0.00476581 -0.36937 0.625262 0.139246 
-0.377181 0.663712 0.263181 -0.362964 0.696847 0.362269 -0.33806 0.724203 0.446818 
-0.31036 0.741351 0.520814 -0.281318 0.747478 0.584993 -0.250395 0.737007 0.634519 
-0.218845 0.721009 0.679166 -0.187835 0.710587 0.728647 -0.157252 0.717577 0.792047 
-0.119324 0.734575 0.856305 -0.0692944 0.758341 0.914433 -0.0307379 0.769796 0.973798 
5.20589e-006 0.776826 1.03719 0.0339904 0.766947 1.08644 0.0889373 0.726993 1.10505 
0.46638 0.258389 0.976644 0.26063 0.732357 1.12102 0.336166 0.756098 1.13752 
0.407916 0.744161 1.12656 0.471624 0.727398 1.09756 0.543095 0.714188 1.088 
0.619275 0.707119 1.09455 0.183364 0.603812 1.15561 0.202 0.570887 1.20653 
0.221644 0.553537 1.2624 0.229071 0.547526 1.33756 0.250226 0.549244 1.40573 
0.290428 0.546868 1.45289 0.356839 0.526276 1.46229 0.431362 0.495251 1.45645 
0.683601 0.65404 1.16294 0.665331 0.608307 1.21239 0.636873 0.57098 1.25102 
0.610078 0.534731 1.29425 0.573626 0.508001 1.33109 0.534202 0.486746 1.37819 

LINES 18 347
30 22 23 24 25 26 27 28 29 30 31 32 33 34 35 36 37 38 39 40 41 42 43 44 45 46 47 48 49 50 15 
6 21 51 52 53 54 19 
33 20 55 56 57 58 59 60 61 62 63 64 65 66 67 68 69 70 71 72 73 74 75 76 77 78 79 80 81 82 83 84 85 18 
21 17 86 87 88 89 90 91 92 93 94 95 96 97 98 99 100 101 102 103 104 13 
18 16 105 106 107 108 109 110 111 112 113 114 115 116 117 118 119 120 12 
17 12 121 122 123 124 125 126 127 128 129 130 131 132 133 134 135 14 
42 13 136 137 138 139 140 141 142 143 144 145 146 147 148 149 150 151 152 153 154 155 156 157 158 159 160 161 162 163 164 165 166 167 168 169 170 171 172 173 174 175 9 
3 13 176 7 
44 12 177 178 179 180 181 182 183 184 185 186 187 188 189 190 191 192 193 194 195 196 197 198 199 200 201 202 203 204 205 206 207 208 209 210 211 212 213 214 215 216 217 218 1 
3 11 219 8 
21 11 220 221 222 223 224 225 226 227 228 229 230 231 232 233 234 235 236 237 238 9 
37 11 239 240 241 242 243 244 245 246 247 248 249 250 251 252 253 254 255 256 257 258 259 260 261 262 263 264 265 266 267 268 269 270 271 272 273 5 
3 10 274 7 
3 9 275 6 
20 7 276 277 278 279 280 281 282 283 284 285 286 287 288 289 290 291 292 293 2 
3 4 294 3 
8 2 295 296 297 298 299 300 1 
17 2 301 302 303 304 305 306 307 308 0 314 313 312 311 310 309 1 

POINT_DATA 315
SCALARS DY_raw double
LOOKUP_TABLE default
43.677 59.108 46.4941 71.706 57.1532 56.2514 167.819 36.7335 105.785 
53.8578 40.5245 70.7892 54.6192 40.8578 71.5978 68.08 131.955 42.0319 
267.78 197.631 66.4619 71.2012 175.023 120.188 125.28 125.428 106.394 
87.8528 88.0494 81.5217 75.1408 95.0067 76.9416 94.5619 84.1615 53.3932 
58.9773 42.5785 40.5019 44.665 36.9194 33.0928 44.9331 36.9489 41.7112 
40.5466 43.3371 46.7892 43.0613 55.3866 68.08 78.6471 76.4274 104.899 
121.553 63.6296 77.1935 83.0265 95.1706 85.7492 64.5948 54.4518 54.4518 
50.4046 50.5784 50.5784 55.4804 55.4804 54.596 62.1753 62.1753 71.3255 
81.1202 77.3768 97.8187 101.087 113.418 116.406 116.406 121.762 88.2841 
88.2841 84.9889 84.4956 96.8271 140.204 38.2837 38.2837 34.7494 32.2826 
34.5867 41.6395 37.4198 41.7249 54.1377 54.1377 58.0236 48.7958 44.806 
40.3304 40.3324 35.7427 36.2708 37.4525 43.8657 82.7604 63.2403 54.0164 
55.4773 65.8284 60.6304 85.4063 85.4063 83.738 103.106 80.6539 86.044 
67.3995 67.9997 59.0511 52.3148 48.6786 46.4901 54.8104 60.5585 58.75 
57.2139 59.2458 57.9328 60.7554 60.7554 54.7151 49.2622 53.5991 56.2408 
56.2408 39.7049 47.9189 46.2001 45.5694 43.093 43.3889 46.9594 45.8932 
50.2451 55.7602 55.5168 57.6234 64.9658 63.9793 63.9793 55.5523 54.5545 
48.6735 48.4927 53.9491 45.8966 48.0315 48.0315 50.7254 60.2899 67.6103 
62.6547 56.2812 54.5946 50.0415 56.0374 50.5942 47.3705 47.3705 44.6453 
36.9485 40.675 40.2338 40.2254 40.2254 37.3293 54.5072 63.0422 63.5417 
80.9812 65.4901 70.8357 60.3705 57.3246 54.2749 52.6329 55.2101 54.3413 
55.5288 59.6216 54.1472 50.7272 44.0164 41.7457 41.7457 38.3596 39.6347 
41.1792 47.2643 51.2391 42.1146 43.702 45.149 45.149 50.7761 50.5877 
50.5877 52.6643 52.6643 50.388 50.8625 50.8625 49.8533 49.9912 49.9912 
53.9246 53.0085 52.1649 70.8279 77.7312 73.5216 69.7703 63.7021 67.6053 
75.0392 81.78 71.1338 73.9939 85.9278 79.4246 78.8417 69.2788 69.2788 
61.1381 57.3892 57.3892 64.5513 56.0132 66.3384 63.8603 66.8413 72.3919 
80.9778 68.2588 69.5397 56.7598 56.7598 63.6226 58.554 67.2659 61.0835 
61.0835 63.6594 54.5264 56.4639 47.7406 50.2335 52.5915 53.9873 52.0986 
52.0416 45.0654 45.0654 42.8989 43.1688 43.1688 45.8135 44.5948 44.5948 
46.1615 47.1783 47.1783 56.2514 40.1837 79.9512 42.6179 45.1925 47.325 
53.875 55.2343 60.3626 66.5027 68.2488 66.3193 69.3132 71.199 77.7304 
79.6584 83.0957 80.5372 65.2381 62.3793 56.8348 57.1532 49.7166 47.7481 
53.7529 54.263 59.1497 59.108 48.2545 54.4683 64.702 63.5107 65.9743 
54.063 45.7349 45.9313 63.9225 68.433 59.0735 49.6529 48.2328 42.9868 

FIELD FieldData 7
DY_minmax 1 315 double
0.0483843 0.11391 0.0603469 0.167405 0.105609 0.10178 0.575534 0.0189002 0.312116 
0.0916155 0.0349982 0.163512 0.0948488 0.0364134 0.166945 0.152008 0.423244 0.041399 
1 0.702126 0.145137 0.165261 0.606122 0.373275 0.394896 0.395528 0.314703 
0.23597 0.236805 0.209086 0.18199 0.266348 0.189637 0.264459 0.220295 0.0896429 
0.113355 0.0437201 0.034902 0.0525798 0.0196895 0.00344059 0.0537182 0.0198148 0.0400371 
0.035092 0.0469413 0.0615998 0.04577 0.0981075 0.152008 0.196879 0.187454 0.308353 
0.379074 0.13311 0.190707 0.215476 0.267043 0.227037 0.137208 0.0941378 0.0941378 
0.0769524 0.07769 0.07769 0.0985056 0.0985056 0.09475 0.126934 0.126934 0.165789 
0.207381 0.191485 0.278288 0.292168 0.344529 0.357216 0.357216 0.37996 0.237801 
0.237801 0.223809 0.221714 0.274077 0.458269 0.025483 0.025483 0.0104751 0 
0.00978412 0.0397328 0.0218145 0.0400954 0.0928041 0.0928041 0.109305 0.0701207 0.0531788 
0.0341737 0.0341823 0.0146928 0.0169353 0.0219534 0.0491856 0.214346 0.131457 0.0922889 
0.0984923 0.142447 0.120374 0.225581 0.225581 0.218497 0.300741 0.205401 0.228289 
0.149118 0.151667 0.113668 0.0850634 0.0696228 0.0603297 0.0956607 0.120069 0.112389 
0.105867 0.114495 0.108919 0.120905 0.120905 0.0952558 0.0721013 0.0905172 0.101735 
0.101735 0.0315178 0.0663973 0.0590983 0.0564205 0.0459048 0.0471611 0.0623226 0.0577953 
0.0762749 0.0996936 0.0986601 0.107606 0.138784 0.134595 0.134595 0.0988108 0.0945739 
0.0696013 0.0688335 0.0920032 0.0578099 0.0668752 0.0668752 0.0783143 0.118929 0.150013 
0.12897 0.101906 0.0947441 0.0754103 0.100871 0.0777571 0.0640683 0.0640683 0.0524963 
0.019813 0.035637 0.0337636 0.033728 0.033728 0.02143 0.0943731 0.130616 0.132737 
0.20679 0.14101 0.163709 0.119271 0.106337 0.0933866 0.0864142 0.0973578 0.0936689 
0.0987112 0.116091 0.0928444 0.078322 0.0498258 0.0401834 0.0401834 0.0258053 0.0312195 
0.0377782 0.0636172 0.0804956 0.0417499 0.0484906 0.0546353 0.0546353 0.0785298 0.0777295 
0.0777295 0.0865476 0.0865476 0.0768818 0.0788965 0.0788965 0.0746111 0.0751967 0.0751967 
0.0918994 0.0880093 0.0844271 0.163676 0.19299 0.175115 0.159185 0.133418 0.149992 
0.181559 0.210182 0.164975 0.17712 0.227796 0.200181 0.197706 0.157098 0.157098 
0.12253 0.106611 0.106611 0.137024 0.100768 0.144612 0.13409 0.146748 0.170317 
0.206776 0.152767 0.158206 0.103939 0.103939 0.13308 0.111557 0.148551 0.122298 
0.122298 0.133236 0.0944548 0.102682 0.0656399 0.0762254 0.0862383 0.0921656 0.0841453 
0.0839035 0.0542803 0.0542803 0.0450806 0.0462265 0.0462265 0.0574567 0.052282 0.052282 
0.0589345 0.0632523 0.0632523 0.10178 0.0335508 0.202417 0.0438874 0.0548201 0.063875 
0.0916885 0.0974606 0.119237 0.14531 0.152725 0.144531 0.157244 0.165252 0.192986 
0.201174 0.215769 0.204905 0.13994 0.127801 0.104257 0.105609 0.0740305 0.0656717 
0.0911701 0.093336 0.114087 0.11391 0.067822 0.0942079 0.137664 0.132605 0.143066 
0.092487 0.057123 0.0579572 0.134354 0.153507 0.113763 0.07376 0.0677299 0.0454535 

WidthEq 1 315 double
8.56607 8.22224 7.52762 3.048 4.17964 7.05707 1.45645 15.1497 2.80937 
7.32113 9.6887 5.8297 10.0027 14.7235 6.61403 7.35605 3.27808 11.1984 
1 2.13372 7.33292 7.2298 2.91528 4.29919 3.96529 4.22728 4.86755 
5.83317 5.8993 6.45656 6.76849 5.57118 6.63646 5.72218 6.12822 8.84101 
8.61856 11.8886 12.5194 11.6948 13.4011 14.3632 11.8044 12.9113 11.4578 
11.4974 11.2416 10.6469 11.5064 9.47088 7.35605 6.29979 6.4117 4.58984 
3.85962 6.5479 4.96467 5.01924 5.247 5.73883 7.50958 8.4315 8.4315 
8.86367 8.62226 8.62226 8.36097 8.36097 8.92356 8.19796 8.19796 7.0247 
6.40222 6.78214 5.55477 5.57488 5.05069 4.66453 4.66453 4.43561 5.56725 
5.56725 5.49742 4.59077 3.96067 2.24217 12.7793 12.7793 13.7294 14.9015 
13.5419 10.6795 11.2622 9.61655 7.90152 7.90152 7.84163 9.25838 9.69378 
11.2826 11.2458 12.6457 12.4662 13.3847 12.9523 5.39267 7.58219 9.05466 
8.21021 6.98862 7.25593 5.51985 5.51985 5.59292 4.88651 5.75571 5.89814 
7.2002 7.62474 8.82066 10.1528 10.5482 9.71089 8.25993 7.75168 8.0754 
7.96187 7.69202 7.80232 7.46288 7.46288 8.11934 8.59035 8.14547 8.25414 
8.25414 15.38 13.3227 12.7065 12.1222 11.6058 10.1697 8.77418 8.77973 
7.79538 6.92735 6.44454 5.59269 4.97646 5.30781 5.30781 6.22441 6.09978 
6.65311 7.11118 6.66721 7.38703 6.96897 6.96897 6.06856 4.99403 4.52209 
4.91264 5.63616 5.58737 6.80595 6.18533 7.16644 7.76602 7.76602 8.11194 
8.58249 8.25692 8.81025 8.82551 8.82551 16.1712 9.51342 8.03794 7.71052 
6.16452 7.4312 6.74491 8.14454 8.182 8.31103 8.55359 8.45878 9.10761 
8.96148 8.44861 8.52399 8.65926 9.42671 9.88917 9.88917 10.8028 9.77402 
9.36613 8.8202 7.91447 8.3952 8.5344 9.08657 9.08657 9.11964 8.81025 
8.81025 7.6437 7.6437 7.23326 7.70705 7.70705 7.83238 8.09483 8.09483 
7.76417 7.85666 8.33299 5.46875 5.34689 5.29232 5.73998 6.16244 6.23782 
5.45048 5.22781 5.5002 5.4195 4.91727 4.91611 5.30874 5.15381 5.15381 
5.81143 6.45888 6.45888 6.31389 6.83393 6.0526 6.49449 6.28892 6.19227 
5.7638 6.62698 6.4924 6.9218 6.9218 6.37933 6.9944 6.47876 7.20899 
7.20899 7.52253 8.0317 7.53225 7.16644 7.03834 7.11256 7.01868 6.86353 
7.21384 7.44761 7.44761 7.92071 7.50427 7.50427 7.52901 8.43797 8.43797 
9.3955 9.303 9.303 7.05707 12.5247 3.54191 12.4739 11.2169 10.2608 
8.48168 8.49509 8.15472 7.33339 7.0832 6.41864 5.81953 5.83941 5.10109 
4.86778 4.78593 4.18242 5.52101 5.65813 6.15134 4.17964 7.29153 7.21893 
6.53472 6.73959 7.40206 8.22224 6.76248 6.47992 5.31544 6.06763 5.92473 
7.31813 8.4019 7.92487 7.92788 7.13106 6.73635 7.59976 7.96326 8.67244 

rRFP 1 315 double
2606.59 2591.72 2561.68 2367.95 2416.89 2541.33 2299.12 2891.31 2357.63 
2552.75 2655.14 2488.25 2668.72 2872.88 2522.17 2554.26 2377.9 2720.43 
2279.38 2328.41 2553.26 2548.8 2362.21 2422.06 2407.62 2418.95 2446.64 
2488.4 2491.26 2515.36 2528.85 2477.07 2523.14 2483.6 2501.16 2618.48 
2608.86 2750.28 2777.56 2741.9 2815.69 2857.3 2746.64 2794.51 2731.65 
2733.36 2722.3 2696.58 2733.75 2645.72 2554.26 2508.58 2513.42 2434.63 
2403.05 2519.31 2450.84 2453.2 2463.05 2484.32 2560.9 2600.77 2600.77 
2619.46 2609.02 2609.02 2597.72 2597.72 2622.05 2590.67 2590.67 2539.93 
2513.01 2529.44 2476.36 2477.23 2454.56 2437.86 2437.86 2427.96 2476.9 
2476.9 2473.88 2434.67 2407.42 2333.1 2788.8 2788.8 2829.89 2880.58 
2821.78 2697.99 2723.19 2652.02 2577.85 2577.85 2575.26 2636.53 2655.36 
2724.07 2722.48 2783.02 2775.26 2814.98 2796.28 2469.35 2564.04 2627.72 
2591.2 2538.37 2549.93 2474.85 2474.85 2478.01 2447.46 2485.05 2491.21 
2547.52 2565.88 2617.6 2675.21 2692.31 2656.1 2593.35 2571.37 2585.37 
2580.46 2568.79 2573.56 2558.88 2558.88 2587.27 2607.64 2588.4 2593.1 
2593.1 2901.27 2812.3 2785.65 2760.38 2738.05 2675.94 2615.59 2615.83 
2573.26 2535.72 2514.84 2478 2451.35 2465.68 2465.68 2505.32 2499.93 
2523.86 2543.67 2524.47 2555.6 2537.52 2537.52 2498.58 2452.11 2431.7 
2448.59 2479.88 2477.77 2530.47 2503.63 2546.06 2571.99 2571.99 2586.95 
2607.3 2593.22 2617.15 2617.81 2617.81 2935.49 2647.56 2583.75 2569.59 
2502.73 2557.51 2527.83 2588.36 2589.98 2595.56 2606.05 2601.95 2630.01 
2623.69 2601.51 2604.77 2610.62 2643.81 2663.81 2663.81 2703.32 2658.83 
2641.19 2617.58 2578.41 2599.2 2605.22 2629.1 2629.1 2630.53 2617.15 
2617.15 2566.7 2566.7 2548.95 2569.44 2569.44 2574.86 2586.21 2586.21 
2571.91 2575.91 2596.51 2472.64 2467.37 2465.01 2484.37 2502.64 2505.9 
2471.85 2462.22 2474 2470.51 2448.79 2448.74 2465.72 2459.02 2459.02 
2487.46 2515.46 2515.46 2509.19 2531.68 2497.89 2517 2508.11 2503.93 
2485.4 2522.73 2516.91 2535.48 2535.48 2512.02 2538.62 2516.32 2547.9 
2547.9 2561.46 2583.48 2561.88 2546.06 2540.52 2543.73 2539.67 2532.96 
2548.11 2558.22 2558.22 2578.68 2560.67 2560.67 2561.74 2601.05 2601.05 
2642.46 2638.46 2638.46 2541.33 2777.79 2389.31 2775.59 2721.23 2679.88 
2602.94 2603.52 2588.8 2553.28 2542.46 2513.72 2487.81 2488.67 2456.74 
2446.65 2443.11 2417.01 2474.9 2480.83 2502.16 2416.89 2551.47 2548.33 
2518.74 2527.6 2556.25 2591.72 2528.59 2516.37 2466.01 2498.54 2492.36 
2552.62 2599.49 2578.86 2578.99 2544.53 2527.46 2564.8 2580.52 2611.19 

rGFP 1 315 double
2712.15 2824.01 2688 2556.57 2576.89 2734.98 2582.43 2894.51 2635.2 
2732.31 2730.64 2750.69 2884.35 2939.58 2811.56 2838.81 2770.57 2808.7 
2605.79 2759.7 2825.37 2852.78 2848.25 2854.72 2834.78 2868.23 2855.89 
2850.47 2857.44 2864.36 2846.6 2867.31 2848.63 2879.11 2853.77 2810.06 
2846.31 2844.21 2845.07 2860.36 2832.77 2813.33 2868.42 2815.07 2815.93 
2804.19 2825.19 2836.17 2833.49 2862.57 2838.81 2833.47 2828.04 2819.48 
2807.16 2754.65 2721.25 2754.74 2837.37 2830.11 2823.09 2797.12 2797.12 
2784.78 2774.11 2774.11 2801.88 2801.88 2825.2 2847.72 2847.72 2839.05 
2857.36 2862.79 2881.37 2901.56 2910.85 2880.99 2880.99 2878.1 2829.51 
2829.51 2805.23 2725.91 2721.51 2652.37 2827.25 2827.25 2815.1 2819.07 
2806.38 2782.7 2759.44 2739.26 2765.78 2765.78 2793.01 2789.78 2772.35 
2793.04 2791.58 2790 2790.17 2839.3 2906.17 2784.31 2817.51 2827.11 
2793.49 2798.06 2777.94 2809.44 2809.44 2806.35 2841.84 2802.23 2845.51 
2823.3 2856.49 2858.88 2869.15 2851.48 2789.47 2790.74 2807.44 2812.44 
2793.54 2793.73 2790.02 2791.42 2791.42 2782.26 2761.19 2774.6 2802.23 
2802.23 2948.67 2976.42 2925.05 2890.41 2838.14 2779.26 2750.04 2740.94 
2729.69 2724.28 2695.79 2660.28 2661.31 2677.6 2677.6 2683.79 2670.78 
2661.84 2682.85 2697.7 2677.05 2672.74 2672.74 2645.84 2639.1 2643.75 
2645.81 2655.22 2643.05 2678.59 2684.62 2700.59 2705.89 2705.89 2700.17 
2655.12 2673.86 2692.48 2693.02 2693.02 2941.67 2856.56 2844.74 2827.95 
2837.22 2824.68 2815.79 2829.7 2807.04 2789.09 2788.21 2805.02 2832.93 
2835.63 2841.73 2799.56 2777.27 2752.94 2750.84 2750.84 2752.4 2725.4 
2723.7 2754.89 2743.54 2691.57 2710.98 2748.26 2748.26 2801.07 2783.7 
2783.7 2740.56 2740.56 2702.48 2730.01 2730.01 2728.48 2742.68 2742.68 
2756.69 2754.48 2772.7 2725.35 2753.63 2727.11 2738.49 2730.57 2759.72 
2747.01 2765.54 2729.26 2739.02 2760.54 2728.47 2756.56 2695.06 2695.06 
2693.31 2708.68 2708.68 2745.58 2720.8 2739.53 2752.75 2758.37 2786.28 
2804.75 2790.36 2789.49 2730.89 2730.89 2743.88 2747.56 2773.81 2778.36 
2778.36 2816.89 2775.95 2763.31 2680.14 2691.57 2712.07 2716.93 2695.59 
2713.43 2673.64 2673.64 2677.8 2661.96 2661.96 2682.94 2714.3 2714.3 
2771.72 2776.91 2776.91 2734.98 2841.3 2621.19 2869.62 2844.93 2823.6 
2794.96 2807.23 2830.25 2825.7 2821.43 2763.69 2741.38 2753.77 2734.52 
2725.77 2735.7 2674.85 2698.19 2690.96 2687.62 2576.89 2700.52 2682.7 
2689.27 2703.72 2775.84 2824.01 2664.33 2690.96 2681.93 2723.37 2728.89 
2733.65 2722.27 2702.01 2844.78 2826.01 2735.95 2715.36 2722.1 2710.81 

bkstRFP 1 315 double
370.457 355.587 325.547 131.817 180.757 305.197 62.987 655.177 121.497 
316.617 419.007 252.117 432.587 636.747 286.037 318.127 141.767 484.297 
43.247 92.277 317.127 312.667 126.077 185.927 171.487 182.817 210.507 
252.267 255.127 279.227 292.717 240.937 287.007 247.467 265.027 382.347 
372.727 514.147 541.427 505.767 579.557 621.167 510.507 558.377 495.517 
497.227 486.167 460.447 497.617 409.587 318.127 272.447 277.287 198.497 
166.917 283.177 214.707 217.067 226.917 248.187 324.767 364.637 364.637 
383.327 372.887 372.887 361.587 361.587 385.917 354.537 354.537 303.797 
276.877 293.307 240.227 241.097 218.427 201.727 201.727 191.827 240.767 
240.767 237.747 198.537 171.287 96.967 552.667 552.667 593.757 644.447 
585.647 461.857 487.057 415.887 341.717 341.717 339.127 400.397 419.227 
487.937 486.347 546.887 539.127 578.847 560.147 233.217 327.907 391.587 
355.067 302.237 313.797 238.717 238.717 241.877 211.327 248.917 255.077 
311.387 329.747 381.467 439.077 456.177 419.967 357.217 335.237 349.237 
344.327 332.657 337.427 322.747 322.747 351.137 371.507 352.267 356.967 
356.967 665.137 576.167 549.517 524.247 501.917 439.807 379.457 379.697 
337.127 299.587 278.707 241.867 215.217 229.547 229.547 269.187 263.797 
287.727 307.537 288.337 319.467 301.387 301.387 262.447 215.977 195.567 
212.457 243.747 241.637 294.337 267.497 309.927 335.857 335.857 350.817 
371.167 357.087 381.017 381.677 381.677 699.357 411.427 347.617 333.457 
266.597 321.377 291.697 352.227 353.847 359.427 369.917 365.817 393.877 
387.557 365.377 368.637 374.487 407.677 427.677 427.677 467.187 422.697 
405.057 381.447 342.277 363.067 369.087 392.967 392.967 394.397 381.017 
381.017 330.567 330.567 312.817 333.307 333.307 338.727 350.077 350.077 
335.777 339.777 360.377 236.507 231.237 228.877 248.237 266.507 269.767 
235.717 226.087 237.867 234.377 212.657 212.607 229.587 222.887 222.887 
251.327 279.327 279.327 273.057 295.547 261.757 280.867 271.977 267.797 
249.267 286.597 280.777 299.347 299.347 275.887 302.487 280.187 311.767 
311.767 325.327 347.347 325.747 309.927 304.387 307.597 303.537 296.827 
311.977 322.087 322.087 342.547 324.537 324.537 325.607 364.917 364.917 
406.327 402.327 402.327 305.197 541.657 153.177 539.457 485.097 443.747 
366.807 367.387 352.667 317.147 306.327 277.587 251.677 252.537 220.607 
210.517 206.977 180.877 238.767 244.697 266.027 180.757 315.337 312.197 
282.607 291.467 320.117 355.587 292.457 280.237 229.877 262.407 256.227 
316.487 363.357 342.727 342.857 308.397 291.327 328.667 344.387 375.057 

bkstGFP 1 315 double
374.14 486 349.99 218.56 238.88 396.97 244.42 556.5 297.19 
394.3 392.63 412.68 546.34 601.57 473.55 500.8 432.56 470.69 
267.78 421.69 487.36 514.77 510.24 516.71 496.77 530.22 517.88 
512.46 519.43 526.35 508.59 529.3 510.62 541.1 515.76 472.05 
508.3 506.2 507.06 522.35 494.76 475.32 530.41 477.06 477.92 
466.18 487.18 498.16 495.48 524.56 500.8 495.46 490.03 481.47 
469.15 416.64 383.24 416.73 499.36 492.1 485.08 459.11 459.11 
446.77 436.1 436.1 463.87 463.87 487.19 509.71 509.71 501.04 
519.35 524.78 543.36 563.55 572.84 542.98 542.98 540.09 491.5 
491.5 467.22 387.9 383.5 314.36 489.24 489.24 477.09 481.06 
468.37 444.69 421.43 401.25 427.77 427.77 455 451.77 434.34 
455.03 453.57 451.99 452.16 501.29 568.16 446.3 479.5 489.1 
455.48 460.05 439.93 471.43 471.43 468.34 503.83 464.22 507.5 
485.29 518.48 520.87 531.14 513.47 451.46 452.73 469.43 474.43 
455.53 455.72 452.01 453.41 453.41 444.25 423.18 436.59 464.22 
464.22 610.66 638.41 587.04 552.4 500.13 441.25 412.03 402.93 
391.68 386.27 357.78 322.27 323.3 339.59 339.59 345.78 332.77 
323.83 344.84 359.69 339.04 334.73 334.73 307.83 301.09 305.74 
307.8 317.21 305.04 340.58 346.61 362.58 367.88 367.88 362.16 
317.11 335.85 354.47 355.01 355.01 603.66 518.55 506.73 489.94 
499.21 486.67 477.78 491.69 469.03 451.08 450.2 467.01 494.92 
497.62 503.72 461.55 439.26 414.93 412.83 412.83 414.39 387.39 
385.69 416.88 405.53 353.56 372.97 410.25 410.25 463.06 445.69 
445.69 402.55 402.55 364.47 392 392 390.47 404.67 404.67 
418.68 416.47 434.69 387.34 415.62 389.1 400.48 392.56 421.71 
409 427.53 391.25 401.01 422.53 390.46 418.55 357.05 357.05 
355.3 370.67 370.67 407.57 382.79 401.52 414.74 420.36 448.27 
466.74 452.35 451.48 392.88 392.88 405.87 409.55 435.8 440.35 
440.35 478.88 437.94 425.3 342.13 353.56 374.06 378.92 357.58 
375.42 335.63 335.63 339.79 323.95 323.95 344.93 376.29 376.29 
433.71 438.9 438.9 396.97 503.29 283.18 531.61 506.92 485.59 
456.95 469.22 492.24 487.69 483.42 425.68 403.37 415.76 396.51 
387.76 397.69 336.84 360.18 352.95 349.61 238.88 362.51 344.69 
351.26 365.71 437.83 486 326.32 352.95 343.92 385.36 390.88 
395.64 384.26 364 506.77 488 397.94 377.35 384.09 372.8 

tubeWidth 1 315 double
0.279619 0.218182 0.243417 0.058898 0.101903 0.235144 0.0851083 0.288517 0.0929886 
0.236482 0.118777 0.249251 0.196312 0.150523 0.221303 0.224379 0.177102 0.285173 
0.0594288 0.0250568 0.197183 0.123403 0.00804031 0.110761 0.125734 0.0840011 0.0815834 
0.137641 0.173389 0.140039 0.128892 0.12931 0.1287 0.130851 0.136434 0.160158 
0.223111 0.259989 0.259096 0.245884 0.260065 0.262155 0.215886 0.229775 0.246161 
0.27291 0.259896 0.271995 0.285934 0.298883 0.286831 0.146877 0.147428 0.168134 
0.125714 0.20238 0.136601 0.127676 0.162977 0.205668 0.251025 0.26423 0.257501 
0.219304 0.224313 0.220983 0.215987 0.223455 0.207988 0.201086 0.225108 0.261411 
0.234166 0.187069 0.186658 0.174223 0.157755 0.13831 0.127636 0.161434 0.179053 
0.167908 0.212719 0.215589 0.182927 0.205463 0.335115 0.335264 0.300568 0.276708 
0.219358 0.177527 0.186415 0.21038 0.219134 0.226786 0.224323 0.225302 0.22434 
0.247688 0.232302 0.215503 0.2043 0.231892 0.220977 0.250428 0.283085 0.224101 
0.210581 0.19398 0.208976 0.202628 0.20054 0.174857 0.194122 0.207571 0.212063 
0.225703 0.227555 0.272141 0.209211 0.206845 0.227378 0.216434 0.226789 0.239588 
0.221674 0.220034 0.213405 0.195967 0.190472 0.223595 0.277595 0.294201 0.286186 
0.24349 0.148161 0.140993 0.153351 0.200495 0.217321 0.250145 0.231689 0.185676 
0.26492 0.269721 0.223653 0.200104 0.137175 0.156319 0.217602 0.217789 0.202723 
0.171262 0.203858 0.202023 0.223294 0.21317 0.191299 0.184053 0.158893 0.184181 
0.14807 0.160185 0.215565 0.24969 0.269856 0.225312 0.224277 0.252907 0.220892 
0.20914 0.22723 0.231738 0.21602 0.222908 0.216145 0.249033 0.21164 0.252403 
0.201228 0.193696 0.216788 0.230957 0.235305 0.224385 0.21761 0.252685 0.274052 
0.235716 0.222655 0.249087 0.203401 0.165797 0.217399 0.241382 0.222522 0.187619 
0.248516 0.241405 0.214006 0.229758 0.220835 0.225591 0.247694 0.247501 0.22735 
0.242889 0.22924 0.207291 0.20985 0.209471 0.211074 0.21673 0.217546 0.226598 
0.228252 0.245671 0.236604 0.191411 0.14715 0.212953 0.267353 0.260985 0.231973 
0.219559 0.205219 0.242938 0.267863 0.23901 0.195129 0.17231 0.183117 0.147587 