# vtk DataFile Version 3.0
vtk output
ASCII
DATASET POLYDATA
POINTS 293 float
7.26046 -0.615449 0.0989189 7.1436 -0.792948 0.0819311 4.33468 -0.471738 0.333032 
7.64536 -0.0242895 -0.0528371 2.83139 -1.09493 -0.357084 3.73616 -0.264054 0.0514473 
7.18619 0.972044 0.440873 3.36723 -0.654514 -0.381019 7.43188 -0.156453 -0.579888 
3.12192 -0.753806 -0.650246 4.31135 1.0769 0.0517737 5.55336 1.17566 0.0295263 
7.2465 -0.0170252 -1.10205 2.19288 1.6426 0.191347 2.90872 1.10271 -0.444059 
0.722787 2.02665 -0.362423 0.66559 -0.784459 -2.05636 -0.350288 1.47509 -1.13426 
0.78723 -0.751321 -2.48347 0.603782 -1.2719 -2.57935 1.72612 -0.957462 -2.50568 
-0.0478535 1.89602 -1.30001 -0.143088 1.49793 -1.53085 0.334497 -0.177399 -2.65215 
0.321775 -0.403438 -2.72885 1.02865 -0.643427 -2.94733 1.08516 -0.278779 -3.20198 
1.06217 -0.398243 -3.15017 1.04366 -0.516935 -3.06359 1.17014 -0.268278 -3.20445 
1.23116 -0.277845 -3.21657 1.28595 -0.291673 -3.22192 1.34673 -0.294279 -3.19505 
1.4033 -0.302165 -3.12747 1.4715 -0.341678 -3.03677 1.53998 -0.410827 -2.93796 
1.60611 -0.492759 -2.82925 1.6464 -0.599962 -2.72445 1.67048 -0.706721 -2.61769 
1.69652 -0.827096 -2.54544 1.00306 -0.264406 -3.18477 0.943029 -0.245874 -3.16733 
0.88856 -0.232143 -3.15338 0.82878 -0.227941 -3.14463 0.782471 -0.204923 -3.12591 
0.749535 -0.163113 -3.09721 0.709516 -0.131257 -3.07379 0.664234 -0.106796 -3.0543 
0.617924 -0.0837781 -3.03557 0.570646 -0.0621215 -3.01757 0.519999 -0.0533144 -2.99178 
0.467139 -0.0694047 -2.93519 0.418383 -0.102259 -2.81312 0.9908 -0.670127 -2.84657 
0.949922 -0.686683 -2.76544 0.900998 -0.702159 -2.70019 0.839513 -0.733498 -2.61717 
1.08419 -0.719811 -2.87762 1.14005 -0.791021 -2.8135 1.20128 -0.854678 -2.74537 
1.2722 -0.909451 -2.66419 1.33971 -0.964276 -2.59137 1.40742 -0.999876 -2.54171 
1.46374 -1.0276 -2.52956 1.51761 -1.0417 -2.53498 1.57707 -1.02823 -2.53301 
1.63749 -0.995293 -2.51936 0.337603 -0.349632 -2.70882 0.336289 -0.274924 -2.68307 
0.415328 -0.268319 -2.46131 0.47146 -0.35839 -2.29349 0.536171 -0.435973 -2.16461 
0.590492 -0.521645 -2.08083 0.623102 -0.61586 -2.0456 0.645872 -0.705123 -2.04111 
0.283427 -0.114022 -2.58028 0.236198 -0.080762 -2.53571 0.191215 -0.0573523 -2.50819 
0.150734 -0.022412 -2.48939 0.11758 0.0285641 -2.4725 0.0766811 0.0733988 -2.46721 
0.0364897 0.114494 -2.45558 0.00436761 0.166921 -2.43792 -0.0312212 0.219224 -2.42867 
-0.0653087 0.283103 -2.42995 -0.107465 0.335651 -2.43726 -0.148364 0.380486 -2.43197 
-0.180811 0.427723 -2.40873 -0.219686 0.461187 -2.38446 -0.257441 0.496049 -2.35946 
-0.280231 0.549023 -2.32507 -0.288227 0.606609 -2.28941 -0.280898 0.658532 -2.25878 
-0.277772 0.712656 -2.22637 -0.26876 0.763853 -2.19635 -0.26554 0.817931 -2.16398 
-0.256528 0.869129 -2.13396 -0.253402 0.923252 -2.10155 -0.245922 0.975211 -2.07091 
-0.250459 1.02965 -2.02883 -0.252145 1.07569 -1.97474 -0.230613 1.09971 -1.91031 
-0.198566 1.11501 -1.84354 -0.167082 1.13409 -1.78314 -0.145975 1.1688 -1.73827 
-0.140475 1.21825 -1.70025 -0.131371 1.2694 -1.67026 -0.128244 1.32352 -1.63785 
-0.120857 1.37553 -1.60717 -0.127767 1.43464 -1.57071 -0.186777 1.50568 -1.48687 
-0.228429 1.50107 -1.42233 -0.269279 1.48491 -1.33661 -0.313443 1.46636 -1.23243 
-0.0869703 1.55715 -1.57908 -0.0529054 1.62383 -1.61182 -0.0352294 1.68818 -1.61818 
-0.0286675 1.7406 -1.58717 -0.00625122 1.76768 -1.52968 0.0242061 1.78366 -1.46233 
0.0444746 1.80624 -1.39864 0.0337263 1.84265 -1.34944 -0.00278111 1.87144 -1.31955 
-0.331423 1.51108 -1.05579 -0.298765 1.55268 -1.01447 -0.268376 1.59335 -0.988692 
-0.23921 1.63552 -0.968392 -0.209847 1.6766 -0.946597 -0.178296 1.7131 -0.919105 
-0.136932 1.73774 -0.882428 -0.0792196 1.74378 -0.832627 -0.0236556 1.74739 -0.775368 
0.0440091 1.74849 -0.729591 0.108822 1.75798 -0.695814 0.152477 1.77799 -0.653482 
0.189675 1.79073 -0.588806 0.234973 1.79246 -0.514242 0.292286 1.79172 -0.451118 
0.332248 1.82404 -0.427035 0.359784 1.88349 -0.437389 0.38302 1.95206 -0.459165 
0.402567 2.00501 -0.446563 0.42114 2.04098 -0.40067 0.468749 2.05193 -0.346843 
0.521039 2.0586 -0.296098 0.5829 2.04844 -0.256511 0.636979 2.02522 -0.250098 
0.682316 2.01522 -0.286915 1.80933 -0.97502 -2.51624 1.88333 -0.988134 -2.50578 
1.94777 -1.01628 -2.47736 2.01424 -1.04426 -2.44033 2.07253 -1.08344 -2.40924 
2.12961 -1.11666 -2.38311 2.19236 -1.13065 -2.33725 2.24856 -1.12942 -2.2815 
2.31634 -1.1285 -2.23584 2.38213 -1.116 -2.20904 2.43442 -1.09329 -2.18335 
2.49026 -1.07585 -2.15252 2.53587 -1.06728 -2.09125 2.58271 -1.06632 -2.01731 
2.64075 -1.07092 -1.94791 2.68269 -1.05006 -1.90488 2.71424 -1.01355 -1.87739 
2.7436 -0.972471 -1.85559 2.77549 -0.946614 -1.80851 2.8087 -0.928396 -1.74879 
2.8419 -0.910173 -1.68907 2.87379 -0.884316 -1.64199 2.90568 -0.858459 -1.5949 
2.93954 -0.844055 -1.52887 2.97527 -0.841063 -1.44386 3.01078 -0.844937 -1.34561 
3.03713 -0.840775 -1.25022 3.04852 -0.825683 -1.15538 3.06362 -0.80894 -1.0686 
3.07426 -0.789941 -0.980011 3.09803 -0.780313 -0.889744 3.12043 -0.773004 -0.783363 
0.593874 -1.30215 -2.40543 0.575135 -1.32405 -2.26898 0.56834 -1.31198 -2.17408 
0.57578 -1.27592 -2.11828 0.571008 -1.22148 -2.07617 0.565639 -1.16313 -2.04033 
0.57157 -1.1104 -2.00906 0.566293 -1.0521 -1.97326 0.56207 -0.990835 -1.94447 
0.578776 -0.929491 -1.94387 0.612094 -0.858947 -1.98287 0.771119 -0.756813 -2.32 
0.746303 -0.776323 -2.19018 0.708512 -0.788542 -2.10674 2.89277 1.10678 -0.326961 
2.86607 1.11471 -0.241184 2.83859 1.14049 -0.179289 2.80233 1.15868 -0.129767 
2.76733 1.16915 -0.0676616 2.73942 1.18959 -0.000260069 2.70147 1.21015 0.0421798 
2.65525 1.2475 0.0434972 2.61207 1.29861 0.0354258 2.57826 1.3534 0.0460008 
2.54069 1.37923 0.0828943 2.50535 1.39871 0.133099 2.48079 1.43806 0.185527 
2.45025 1.47377 0.227664 2.39925 1.48071 0.254543 2.35528 1.49754 0.286658 
2.32001 1.54554 0.301968 2.26737 1.59758 0.269373 7.32274 -0.0722944 -0.95799 
7.38044 -0.119755 -0.784102 5.50622 1.21174 0.030165 5.4686 1.23749 0.067015 
5.449 1.25538 0.158088 5.43233 1.26319 0.268826 5.40826 1.25586 0.379858 
5.38394 1.26238 0.473238 5.34753 1.26614 0.540123 5.29679 1.26871 0.573012 
5.23 1.25348 0.588121 5.15748 1.22544 0.604762 5.08589 1.18451 0.639576 
5.01489 1.13967 0.680671 4.94268 1.10242 0.709089 4.86882 1.08346 0.705286 
4.80172 1.07859 0.665863 4.75601 1.07008 0.604616 4.71938 1.05357 0.546294 
4.67572 1.03356 0.503962 4.61091 1.02406 0.470185 4.54236 1.02747 0.416793 
4.48165 1.04069 0.328539 4.40326 1.06582 0.205871 3.17073 -0.668127 -0.673025 
3.20628 -0.606797 -0.67439 3.24118 -0.581061 -0.627688 3.29137 -0.599146 -0.52217 
3.04952 -0.806547 -0.526881 2.98262 -0.872003 -0.429164 2.92559 -0.936371 -0.366576 
2.88912 -0.998296 -0.339406 2.8601 -1.05002 -0.341605 7.49711 -0.103756 -0.595338 
7.51889 -0.0402593 -0.593964 7.5396 0.0116398 -0.579218 7.56902 0.0353107 -0.524502 
7.59625 0.03391 -0.418104 7.61496 0.0116228 -0.251018 7.36426 -0.287157 -0.350638 
7.30838 -0.440782 -0.124874 7.23141 0.947501 0.421339 7.27197 0.911668 0.404154 
7.30481 0.855504 0.392853 7.3423 0.791672 0.4025 7.37673 0.718787 0.415697 
7.41488 0.651135 0.43166 7.45034 0.579699 0.445614 7.49674 0.509426 0.485204 
7.54946 0.433805 0.546986 7.59685 0.350706 0.604798 7.62831 0.264173 0.627414 
7.65643 0.196645 0.618424 7.69493 0.157918 0.599703 7.73207 0.126748 0.568307 
7.75386 0.0882376 0.507996 7.766 0.0600212 0.411467 7.77295 0.0463995 0.289528 
7.77096 0.0382062 0.168902 7.7537 0.025814 0.0734014 7.72397 5.97463e-006 4.94701e-005 
3.80502 -0.260127 0.0553696 3.86805 -0.273868 0.0665878 3.94018 -0.289027 0.102073 
4.01292 -0.308085 0.143843 4.07688 -0.33473 0.173231 4.14136 -0.351176 0.191357 
4.19844 -0.382756 0.209793 4.25905 -0.428324 0.254154 7.60105 -0.163004 0.13149 
7.5584 -0.265448 0.299929 7.50148 -0.345479 0.416764 7.43534 -0.402444 0.478979 
7.37257 -0.44078 0.497074 7.32225 -0.474938 0.490334 7.27018 -0.504738 0.477718 
7.24168 -0.541629 0.446777 7.24205 -0.579555 0.377463 7.25084 -0.602374 0.258464 
7.20941 -0.790648 0.131528 7.24552 -0.73309 0.136517 
LINES 23 337
4 26 27 28 25 
13 26 29 30 31 32 33 34 35 36 37 38 39 20 
15 26 40 41 42 43 44 45 46 47 48 49 50 51 52 23 
12 25 57 58 59 60 61 62 63 64 65 66 20 
4 24 67 68 23 
8 23 69 70 71 72 73 74 16 
37 23 75 76 77 78 79 80 81 82 83 84 85 86 87 88 89 90 91 92 93 94 95 96 97 98 99 100 101 102 103 104 105 106 107 108 109 22 
11 22 114 115 116 117 118 119 120 121 122 21 
34 20 148 149 150 151 152 153 154 155 156 157 158 159 160 161 162 163 164 165 166 167 168 169 170 171 172 173 174 175 176 177 178 179 9 
13 19 180 181 182 183 184 185 186 187 188 189 190 16 
20 14 194 195 196 197 198 199 200 201 202 203 204 205 206 207 208 209 210 211 13 
4 12 212 213 8 
24 11 214 215 216 217 218 219 220 221 222 223 224 225 226 227 228 229 230 231 232 233 234 235 10 
6 9 236 237 238 239 7 
7 9 240 241 242 243 244 4 
8 8 245 246 247 248 249 250 3 
4 8 251 252 0 
22 6 253 254 255 256 257 258 259 260 261 262 263 264 265 266 267 268 269 270 271 272 3 
10 5 273 274 275 276 277 278 279 280 2 
12 3 281 282 283 284 285 286 287 288 289 290 0 
4 1 291 292 0 
10 25 53 54 55 56 18 191 192 193 16 
32 22 110 111 112 113 17 123 124 125 126 127 128 129 130 131 132 133 134 135 136 137 138 139 140 141 142 143 144 145 146 147 15 

POINT_DATA 293
SCALARS DY_raw double
LOOKUP_TABLE default
13.2259 2.66315 32.8713 28.6912 23.0592 54.23 29.221 22.7273 34.9829 
37.694 62.1648 36.339 2.22707 47.2447 13.0717 48.3978 55.5085 28.707 
61.9104 0 31.3739 43.541 45.2131 39.3682 44.2618 47.245 50.5547 
48.4075 51.3936 57.9794 57.8598 59.6833 61.6339 52.8862 50.7702 47.174 
53.37 50.3836 44.3677 33.7903 56.3899 49.0772 55.4917 59.4595 59.4595 
63.9346 63.9346 64.3957 51.6938 51.6938 40.0042 36.3605 37.9717 42.7033 
55.2866 59.7515 66.3295 44.0697 32.1268 30.4898 34.7614 40.4992 40.8159 
49.2937 39.7717 39.7318 35.5849 49.4764 42.657 48.2865 55.8838 53.1488 
58.0288 58.6729 55.269 41.6497 41.7886 46.5529 46.0317 46.0317 43.654 
37.9816 37.9816 45.6482 44.628 41.9553 42.9915 39.8642 43.9522 43.3423 
48.5965 46.4587 44.4597 42.3846 44.1598 43.8857 53.2924 49.7936 47.4704 
41.9856 38.2944 40.4621 42.6207 49.9923 49.9923 52.6608 55.9413 52.7766 
53.3207 49.2459 45.8667 36.6082 33.0872 29.9146 39.6561 37.818 36.4248 
39.3374 41.8778 40.6675 41.8135 43.5955 43.541 31.1904 34.4576 36.6668 
39.7861 42.9577 44.7411 44.7411 51.4429 46.6004 45.8318 42.2515 42.1799 
38.1649 40.8249 40.6244 47.3916 49.6088 49.6088 65.2806 67.6081 74.1252 
76.0283 79.377 63.6978 63.6978 31.1922 28.5041 28.6341 23.3327 25.0571 
34.8218 42.7065 37.7603 25.9803 25.9803 31.4471 40.9446 46.5382 39.7027 
43.171 41.1023 41.1023 36.4701 33.8155 33.8155 35.2037 38.8931 33.2013 
24.0042 25.1428 21.6779 17.7595 18.3594 17.7317 17.5906 21.5734 25.3035 
5.60497 24.2247 45.8332 48.7304 50.7502 52.7511 53.6975 57.6957 53.2617 
57.3041 59.8977 70.2175 57.5559 46.7636 10.7878 14.3682 14.3682 20.1024 
21.3085 20.7787 21.6541 22.468 23.5229 21.306 22.853 21.6653 23.5401 
25.9656 29.929 39.9615 37.7868 51.845 26.9059 31.5711 30.2045 45.3634 
38.2065 32.8086 40.6822 45.9908 55.2449 67.1017 64.7105 73.4741 83.4796 
116.691 131.209 164.511 104.985 101.767 76.3211 54.1636 77.9809 66.7339 
70.9577 56.0986 40.7188 43.0185 31.5522 30.4333 29.2827 29.3188 33.7549 
38.0916 34.1983 29.3595 30.8685 30.2341 25.3768 21.5133 22.119 20.7559 
13.6277 18.7023 14.9505 14.6628 14.9446 17.2736 12.1784 10.8462 12.4916 
13.792 24.1427 23.3623 21.1058 19.5257 17.6942 20.0087 20.4468 22.0354 
26.463 25.1338 26.5337 50.9294 45.1984 46.193 51.1563 38.7196 38.7196 
21.2487 21.3106 22.2139 27.4097 29.1667 24.342 22.0349 20.7003 20.7003 
18.8778 22.764 18.1212 8.81031 13.4305 
FIELD FieldData 7
DY_minmax 1 293 double
0.0803949 0.0161882 0.199812 0.174403 0.140168 0.329643 0.177623 0.13815 0.212647 
0.229127 0.377875 0.22089 0.0135375 0.287182 0.0794577 0.294191 0.337414 0.174499 
0.376328 0 0.19071 0.264668 0.274832 0.239304 0.26905 0.287183 0.307302 
0.29425 0.312401 0.352434 0.351707 0.362791 0.374648 0.321474 0.308612 0.286752 
0.324415 0.306262 0.269694 0.205398 0.342772 0.298321 0.337312 0.361431 0.361431 
0.388633 0.388633 0.391436 0.314226 0.314226 0.243169 0.221021 0.230815 0.259577 
0.336065 0.363206 0.403191 0.267882 0.195286 0.185335 0.211301 0.246179 0.248103 
0.299637 0.241756 0.241514 0.216306 0.300748 0.259295 0.293514 0.339695 0.32307 
0.352734 0.356649 0.335958 0.253172 0.254016 0.282977 0.279808 0.279808 0.265355 
0.230875 0.230875 0.277477 0.271276 0.25503 0.261328 0.242318 0.267168 0.263461 
0.295399 0.282404 0.270253 0.257639 0.26843 0.266764 0.323943 0.302675 0.288554 
0.255214 0.232777 0.245953 0.259074 0.303883 0.303883 0.320104 0.340045 0.320808 
0.324115 0.299346 0.278806 0.222527 0.201124 0.181839 0.241054 0.229881 0.221412 
0.239116 0.254558 0.247201 0.254168 0.264999 0.264668 0.189594 0.209454 0.222883 
0.241844 0.261123 0.271963 0.271963 0.312701 0.283265 0.278593 0.25683 0.256395 
0.231989 0.248158 0.24694 0.288075 0.301552 0.301552 0.396815 0.410963 0.450578 
0.462146 0.482501 0.387194 0.387194 0.189605 0.173265 0.174056 0.14183 0.152312 
0.211668 0.259596 0.22953 0.157924 0.157924 0.191154 0.248886 0.282887 0.241337 
0.262419 0.249844 0.249844 0.221687 0.205551 0.205551 0.213989 0.236416 0.201818 
0.145912 0.152833 0.131771 0.107953 0.111599 0.107784 0.106926 0.131136 0.15381 
0.0340704 0.147252 0.278602 0.296213 0.30849 0.320653 0.326406 0.350709 0.323757 
0.348329 0.364094 0.426824 0.349859 0.284257 0.0655746 0.0873383 0.0873383 0.122194 
0.129526 0.126305 0.131627 0.136574 0.142987 0.129511 0.138914 0.131695 0.143091 
0.157835 0.181927 0.24291 0.229691 0.315145 0.16355 0.191908 0.183601 0.275746 
0.232242 0.199431 0.247291 0.27956 0.335812 0.407884 0.39335 0.44662 0.50744 
0.709321 0.797569 1 0.638164 0.6186 0.463926 0.329239 0.474015 0.405649 
0.431323 0.341001 0.247514 0.261492 0.191793 0.184992 0.177998 0.178217 0.205183 
0.231544 0.207878 0.178465 0.187637 0.183781 0.154256 0.130771 0.134452 0.126167 
0.0828372 0.113684 0.0908784 0.0891295 0.0908422 0.104999 0.0740277 0.0659297 0.0759312 
0.0838359 0.146754 0.14201 0.128294 0.118689 0.107556 0.121625 0.124288 0.133944 
0.160858 0.152778 0.161288 0.30958 0.274743 0.280789 0.310959 0.235361 0.235361 
0.129163 0.129539 0.135029 0.166613 0.177293 0.147965 0.133941 0.125829 0.125829 
0.114751 0.138373 0.110151 0.0535544 0.0816387 
WidthEq 1 293 double
5.04012 3.95396 1.70787 7.81214 3.72519 1 5.16409 1.39392 7.303 
4.99364 3.14438 2.63188 4.06813 4.9233 5.41628 9.35663 5.09543 10.711 
5.25599 2.37607 7.75294 6.19095 7.24547 12.1303 4.95732 5.6986 6.14977 
5.54873 5.20376 5.35345 5.53009 5.12221 5.13581 5.94787 6.82999 7.40302 
6.77609 6.47194 6.57798 7.68622 5.58788 5.86321 5.16347 4.36246 4.36246 
4.73765 4.73765 5.2665 6.89193 6.89193 8.81108 9.72705 10.8423 6.47725 
6.07652 5.56287 5.2999 6.28912 6.96739 7.3956 6.84121 6.08456 5.37855 
5.51206 6.02262 6.5839 7.44614 8.00583 10.5216 10.235 7.92913 6.66581 
5.68649 5.62525 5.37245 12.0416 11.1966 9.49156 7.43271 7.43271 6.46585 
6.71194 6.71194 5.46549 5.34373 5.63957 5.58761 5.94318 5.41725 5.8421 
5.27693 4.76186 4.59495 4.32067 4.19069 4.0266 4.09402 4.22444 4.40064 
4.40293 4.49439 4.45577 4.39692 4.22585 4.22585 4.12565 4.48166 4.86427 
6.06406 6.76584 7.24185 8.27684 9.08297 9.9871 7.00018 6.97128 5.74499 
5.34682 5.66219 6.25537 6.19943 6.26235 6.19095 10.5221 9.71803 9.27543 
8.87497 7.74366 7.3333 7.3333 6.54493 7.7244 8.31519 9.61456 9.81391 
10.7203 10.413 10.5156 8.53822 7.75709 7.75709 6.91155 6.86737 6.71998 
7.63886 8.17743 9.21649 9.21649 7.32394 6.72396 5.37855 4.58885 3.59698 
3.20288 2.95061 3.15463 3.56808 3.56808 3.60034 3.61147 3.64991 3.72669 
3.38676 3.13608 3.13608 3.04277 3.1663 3.1663 4.1382 4.17734 4.78475 
5.32615 5.82752 6.29628 6.34647 6.18485 5.9605 5.69223 5.68569 5.29769 
2.34435 3.24256 3.51754 3.74304 3.57851 3.47557 3.79571 3.77706 3.83352 
3.90059 4.42237 4.42838 4.36202 4.92648 8.80905 10.1279 10.1279 11.1534 
11.8098 11.7919 12.1136 11.3975 11.8659 13.3418 11.9831 12.5182 12.2659 
10.8482 9.85332 8.64982 8.92427 5.80171 6.36441 7.0137 2.63206 3.03923 
3.34629 3.74658 3.13749 3.18194 3.06689 2.45896 2.68905 2.25086 1.58098 
1.50508 1.49563 1.31687 1.51869 1.47239 1.3037 1.68914 1.6849 2.31651 
2.4237 2.85782 4.20076 3.51012 2.80392 1.87196 5.30962 5.079 4.45772 
4.31775 4.18998 7.37784 6.98091 6.60016 6.86887 7.62552 8.22099 6.16162 
4.99205 5.76133 6.3068 6.11478 6.21295 5.90324 6.58461 6.6014 5.91199 
5.40894 5.06406 4.84112 5.00716 5.17832 5.16948 5.15075 5.35486 5.86374 
7.20288 7.73818 8.06521 1.36326 2.3576 2.35469 2.7244 3.202 3.202 
2.42555 1.78784 6.21728 5.4032 5.79358 5.9157 5.78537 4.85694 4.85694 
4.65203 4.96969 5.03941 4.56738 4.95812 
rRFP 1 293 double
2817.64 2694.72 2440.53 3131.35 2668.83 2360.42 2831.67 2405 3073.73 
2812.38 2603.1 2545.1 2707.64 2804.42 2860.21 3306.14 2823.9 3459.41 
2842.07 2516.15 3124.65 2947.88 3067.22 3620.04 2808.27 2892.16 2943.22 
2875.2 2836.16 2853.1 2873.09 2826.93 2828.47 2920.37 3020.2 3085.05 
3014.1 2979.68 2991.68 3117.1 2879.63 2910.79 2831.6 2740.95 2740.95 
2783.41 2783.41 2843.26 3027.21 3027.21 3244.4 3348.06 3474.27 2980.28 
2934.93 2876.8 2847.04 2958.99 3035.75 3084.21 3021.47 2935.84 2855.94 
2871.05 2928.83 2992.35 3089.93 3153.27 3437.98 3405.54 3144.59 3001.62 
2890.79 2883.86 2855.25 3610 3514.37 3321.41 3088.41 3088.41 2978.99 
3006.84 3006.84 2865.78 2852 2885.48 2879.6 2919.84 2860.32 2908.4 
2844.44 2786.15 2767.26 2736.22 2721.51 2702.94 2710.57 2725.33 2745.27 
2745.53 2755.88 2751.51 2744.85 2725.49 2725.49 2714.15 2754.44 2797.74 
2933.52 3012.94 3066.81 3183.94 3275.17 3377.49 3039.46 3036.19 2897.41 
2852.35 2888.04 2955.17 2948.84 2955.96 2947.88 3438.04 3347.04 3296.95 
3251.63 3123.6 3077.16 3077.16 2987.94 3121.42 3188.28 3335.33 3357.89 
3460.47 3425.69 3437.3 3213.52 3125.12 3125.12 3029.43 3024.43 3007.75 
3111.74 3172.69 3290.28 3290.28 3076.1 3008.2 2855.94 2766.57 2654.32 
2609.72 2581.17 2604.26 2651.05 2651.05 2654.7 2655.96 2660.31 2669 
2630.53 2602.16 2602.16 2591.6 2605.58 2605.58 2715.57 2720 2788.74 
2850.01 2906.75 2959.8 2965.48 2947.19 2921.8 2891.44 2890.7 2846.79 
2512.56 2614.21 2645.33 2670.85 2652.23 2640.58 2676.81 2674.7 2681.09 
2688.68 2747.73 2748.41 2740.9 2804.78 3244.17 3393.43 3393.43 3509.48 
3583.77 3581.74 3618.15 3537.11 3590.11 3757.14 3603.38 3663.93 3635.38 
3474.94 3362.35 3226.15 3257.21 2903.83 2967.51 3040.99 2545.12 2591.2 
2625.95 2671.25 2602.32 2607.35 2594.33 2525.53 2551.57 2501.98 2426.17 
2417.58 2416.51 2396.28 2419.12 2413.88 2394.79 2438.41 2437.93 2509.41 
2521.54 2570.67 2722.65 2644.49 2564.57 2459.1 2848.14 2822.04 2751.73 
2735.89 2721.43 3082.2 3037.28 2994.19 3024.6 3110.23 3177.62 2944.56 
2812.2 2899.26 2960.99 2939.26 2950.37 2915.32 2992.43 2994.33 2916.31 
2859.38 2820.35 2795.12 2813.91 2833.28 2832.28 2830.16 2853.26 2910.85 
3062.4 3122.98 3159.99 2401.53 2514.06 2513.73 2555.57 2609.62 2609.62 
2521.75 2449.58 2950.86 2858.73 2902.91 2916.73 2901.98 2796.91 2796.91 
2773.72 2809.67 2817.56 2764.14 2808.36 
rGFP 1 293 double
2645.54 2589.41 2635.02 2803.02 2664.78 2633.11 2729.78 2610.56 2834.36 
2767.11 2774.35 2674.52 2587.94 2811.48 2649.68 3031.72 2861.72 2886.36 
2904.28 2578.88 2822.12 2848.44 2906.47 3056.43 2798.3 2848.11 2889.78 
2847.48 2846.32 2889.27 2898.85 2884.59 2895.42 2893.44 2925.64 2928.11 
2940.52 2904.96 2870.73 2838.6 2893.98 2866.63 2865.41 2838.27 2838.27 
2881.78 2881.78 2918.02 2935.15 2935.15 2931.36 2932.56 2990.58 2855.48 
2914.83 2911.27 2930.42 2856.04 2802.72 2804.37 2816.69 2825.3 2798.41 
2850.59 2818.41 2840.47 2843.85 2974.98 3027.7 3073.09 3021.99 2933.16 
2908.86 2908.93 2875.81 3080.41 3046.77 3020.74 2921.02 2921.02 2861.14 
2833.81 2833.81 2828.37 2817.36 2815.49 2819.1 2815.8 2816.98 2832.09 
2835.32 2800.11 2783.17 2762.01 2763.94 2755.59 2797.06 2789.23 2787.78 
2763.74 2750.99 2759.17 2766.28 2790.14 2790.14 2796.14 2829.59 2835.6 
2902.22 2912.07 2911.04 2881.88 2879.41 2877.64 2856.48 2842.52 2788.14 
2789.21 2816 2833.27 2838.1 2851.89 2848.44 2907.07 2913.74 2918.98 
2931.98 2911.53 2906.98 2906.98 2915.57 2938.84 2959.98 2985.11 2992.83 
2988.02 3003.99 3006.07 2983.52 2963.7 2963.7 3030.07 3043.17 3077 
3159.65 3227.98 3165.95 3165.95 2807.33 2770.54 2732.89 2685.95 2669.01 
2690.41 2704.89 2698 2671.58 2671.58 2692.1 2726.75 2748.74 2726.84 
2725.09 2707.78 2707.78 2689.85 2685.95 2685.95 2724.56 2741.35 2737.74 
2706.73 2725.4 2715.37 2691.59 2692.43 2684.57 2679.01 2701.54 2712.93 
2592.02 2657.43 2740.1 2761.28 2760.49 2762.22 2782.7 2796.8 2783.06 
2802.4 2843.77 2889.83 2829.94 2809.26 2673.91 2724.4 2724.4 2803.09 
2830.53 2823.9 2841.19 2834.96 2858 2863.14 2852.73 2850.09 2867.62 
2860.56 2873.78 2924.54 2916.1 2879.67 2750.12 2800.31 2658.38 2716.75 
2706.73 2701.8 2706.52 2725.22 2748.31 2743.88 2752.89 2744.26 2710.86 
2754.51 2775.12 2795.52 2738.32 2728.72 2678.38 2670.37 2710.27 2733.47 
2750.86 2739.2 2749.93 2729.88 2667.35 2635.85 2734.36 2727.79 2729.35 
2743.35 2722.17 2795.49 2794.37 2778.43 2753.19 2742.93 2760.72 2706.77 
2646.91 2686.63 2673.17 2668.54 2671.73 2680.85 2659.07 2650.48 2652.73 
2653.48 2701.14 2691.98 2684.56 2679.99 2670.35 2681.94 2688.37 2708.09 
2769.49 2773.37 2792.88 2648.31 2685.44 2687.65 2718.25 2702.86 2702.86 
2630.42 2616.98 2716.99 2726.98 2747.86 2722.88 2706.36 2679.42 2679.42 
2666.7 2692.01 2670.2 2619.12 2645.47 
bkstRFP 1 293 double
570.39 447.47 193.28 884.1 421.58 113.17 584.42 157.75 826.48 
565.13 355.85 297.85 460.39 557.17 612.96 1058.89 576.65 1212.16 
594.82 268.9 877.4 700.63 819.97 1372.79 561.02 644.91 695.97 
627.95 588.91 605.85 625.84 579.68 581.22 673.12 772.95 837.8 
766.85 732.43 744.43 869.85 632.38 663.54 584.35 493.7 493.7 
536.16 536.16 596.01 779.96 779.96 997.15 1100.81 1227.02 733.03 
687.68 629.55 599.79 711.74 788.5 836.96 774.22 688.59 608.69 
623.8 681.58 745.1 842.68 906.02 1190.73 1158.29 897.34 754.37 
643.54 636.61 608 1362.75 1267.12 1074.16 841.16 841.16 731.74 
759.59 759.59 618.53 604.75 638.23 632.35 672.59 613.07 661.15 
597.19 538.9 520.01 488.97 474.26 455.69 463.32 478.08 498.02 
498.28 508.63 504.26 497.6 478.24 478.24 466.9 507.19 550.49 
686.27 765.69 819.56 936.69 1027.92 1130.24 792.21 788.94 650.16 
605.1 640.79 707.92 701.59 708.71 700.63 1190.79 1099.79 1049.7 
1004.38 876.35 829.91 829.91 740.69 874.17 941.03 1088.08 1110.64 
1213.22 1178.44 1190.05 966.27 877.87 877.87 782.18 777.18 760.5 
864.49 925.44 1043.03 1043.03 828.85 760.95 608.69 519.32 407.07 
362.47 333.92 357.01 403.8 403.8 407.45 408.71 413.06 421.75 
383.28 354.91 354.91 344.35 358.33 358.33 468.32 472.75 541.49 
602.76 659.5 712.55 718.23 699.94 674.55 644.19 643.45 599.54 
265.31 366.96 398.08 423.6 404.98 393.33 429.56 427.45 433.84 
441.43 500.48 501.16 493.65 557.53 996.92 1146.18 1146.18 1262.23 
1336.52 1334.49 1370.9 1289.86 1342.86 1509.89 1356.13 1416.68 1388.13 
1227.69 1115.1 978.9 1009.96 656.58 720.26 793.74 297.87 343.95 
378.7 424 355.07 360.1 347.08 278.28 304.32 254.73 178.92 
170.33 169.26 149.03 171.87 166.63 147.54 191.16 190.68 262.16 
274.29 323.42 475.4 397.24 317.32 211.85 600.89 574.79 504.48 
488.64 474.18 834.95 790.03 746.94 777.35 862.98 930.37 697.31 
564.95 652.01 713.74 692.01 703.12 668.07 745.18 747.08 669.06 
612.13 573.1 547.87 566.66 586.03 585.03 582.91 606.01 663.6 
815.15 875.73 912.74 154.28 266.81 266.48 308.32 362.37 362.37 
274.5 202.33 703.61 611.48 655.66 669.48 654.73 549.66 549.66 
526.47 562.42 570.31 516.89 561.11 
bkstGFP 1 293 double
66.66 10.53 56.14 224.14 85.9 54.23 150.9 31.68 255.48 
188.23 195.47 95.64 9.06 232.6 70.8 452.84 282.84 307.48 
325.4 0 243.24 269.56 327.59 477.55 219.42 269.23 310.9 
268.6 267.44 310.39 319.97 305.71 316.54 314.56 346.76 349.23 
361.64 326.08 291.85 259.72 315.1 287.75 286.53 259.39 259.39 
302.9 302.9 339.14 356.27 356.27 352.48 353.68 411.7 276.6 
335.95 332.39 351.54 277.16 223.84 225.49 237.81 246.42 219.53 
271.71 239.53 261.59 264.97 396.1 448.82 494.21 443.11 354.28 
329.98 330.05 296.93 501.53 467.89 441.86 342.14 342.14 282.26 
254.93 254.93 249.49 238.48 236.61 240.22 236.92 238.1 253.21 
256.44 221.23 204.29 183.13 185.06 176.71 218.18 210.35 208.9 
184.86 172.11 180.29 187.4 211.26 211.26 217.26 250.71 256.72 
323.34 333.19 332.16 303 300.53 298.76 277.6 263.64 209.26 
210.33 237.12 254.39 259.22 273.01 269.56 328.19 334.86 340.1 
353.1 332.65 328.1 328.1 336.69 359.96 381.1 406.23 413.95 
409.14 425.11 427.19 404.64 384.82 384.82 451.19 464.29 498.12 
580.77 649.1 587.07 587.07 228.45 191.66 154.01 107.07 90.13 
111.53 126.01 119.12 92.7 92.7 113.22 147.87 169.86 147.96 
146.21 128.9 128.9 110.97 107.07 107.07 145.68 162.47 158.86 
127.85 146.52 136.49 112.71 113.55 105.69 100.13 122.66 134.05 
13.14 78.55 161.22 182.4 181.61 183.34 203.82 217.92 204.18 
223.52 264.89 310.95 251.06 230.38 95.03 145.52 145.52 224.21 
251.65 245.02 262.31 256.08 279.12 284.26 273.85 271.21 288.74 
281.68 294.9 345.66 337.22 300.79 171.24 221.43 79.5 137.87 
127.85 122.92 127.64 146.34 169.43 165 174.01 165.38 131.98 
175.63 196.24 216.64 159.44 149.84 99.5 91.49 131.39 154.59 
171.98 160.32 171.05 151 88.47 56.97 155.48 148.91 150.47 
164.47 143.29 216.61 215.49 199.55 174.31 164.05 181.84 127.89 
68.03 107.75 94.29 89.66 92.85 101.97 80.19 71.6 73.85 
74.6 122.26 113.1 105.68 101.11 91.47 103.06 109.49 129.21 
190.61 194.49 214 69.43 106.56 108.77 139.37 123.98 123.98 
51.54 38.1 138.11 148.1 168.98 144 127.48 100.54 100.54 
87.82 113.13 91.32 40.24 66.59 
tubeWidth 1 293 double
0.193455 0.122074 0.0418587 0.221272 0.12058 0.0687911 0.287021 0.0363722 0.226425 
0.144708 0.253015 0.155924 0.199276 0.1365 0.198704 0.27097 0.212521 0.262625 
0.199765 0.00908597 0.258128 0.0155751 0.231904 0.231271 0.130358 0.113662 0.216364 
0.147493 0.114893 0.175772 0.188311 0.156418 0.170028 0.174747 0.205329 0.268425 
0.231336 0.111002 0.153249 0.226321 0.165186 0.113479 0.0832442 0.0902159 0.0706725 
0.106507 0.115215 0.153116 0.164071 0.192321 0.236743 0.203008 0.170757 0.19514 
0.157327 0.152766 0.222594 0.202173 0.206507 0.248204 0.196188 0.229927 0.217777 
0.232623 0.227353 0.219182 0.172319 0.137095 0.143099 0.218617 0.165335 0.208111 
0.203476 0.244112 0.231269 0.390312 0.303194 0.239829 0.187167 0.168717 0.214937 
0.243256 0.25806 0.250671 0.186693 0.19727 0.195092 0.189999 0.232034 0.254774 
0.225251 0.215446 0.219475 0.218526 0.224409 0.220423 0.183598 0.200121 0.198944 
0.226931 0.23083 0.260012 0.240265 0.197859 0.17712 0.16862 0.152309 0.184584 
0.18513 0.229686 0.213636 0.237527 0.16177 0.213984 0.24926 0.244834 0.178363 
0.127744 0.133628 0.173952 0.162822 0.152168 0.105989 0.23827 0.213501 0.208568 
0.206183 0.200369 0.197174 0.162732 0.205266 0.228735 0.278539 0.253243 0.233467 
0.283005 0.283043 0.275407 0.221364 0.114941 0.116617 0.162339 0.198624 0.173879 
0.234407 0.267527 0.288102 0.317478 0.24086 0.221149 0.230866 0.241089 0.200737 
0.176087 0.214387 0.224855 0.194245 0.200377 0.205516 0.218644 0.256517 0.246349 
0.228759 0.224249 0.229066 0.230071 0.255517 0.241358 0.206158 0.224802 0.252948 
0.258228 0.241825 0.235705 0.280278 0.257024 0.26107 0.243194 0.220145 0.183132 
0.134381 0.208277 0.199344 0.194908 0.173113 0.158045 0.150789 0.163513 0.18047 
0.165975 0.183582 0.16272 0.121003 0.140364 0.286687 0.267471 0.288892 0.260398 
0.272693 0.298927 0.257316 0.279273 0.301733 0.26324 0.25982 0.277833 0.246932 
0.231396 0.285476 0.298148 0.273767 0.278273 0.224733 0.164612 0.196262 0.166595 
0.242217 0.226012 0.209694 0.166908 0.125532 0.0374003 0.115309 0.104383 0.124855 
0.124283 0.140126 0.144189 0.169334 0.174064 0.125097 0.10939 0.135563 0.214492 
0.18739 0.240083 0.172164 0.218771 0.17227 0.12395 0.220075 0.221254 0.243203 
0.217581 0.163704 0.259991 0.242249 0.230033 0.233199 0.199334 0.196807 0.15457 
0.121912 0.301297 0.232892 0.214195 0.22554 0.240232 0.234731 0.252177 0.278693 
0.240823 0.250183 0.229937 0.232095 0.233831 0.228544 0.197471 0.231115 0.209075 
0.260204 0.289047 0.253865 0.113644 0.155504 0.212539 0.239909 0.232471 0.187349 
0.139077 0.171439 0.134561 0.117979 0.151061 0.225171 0.203294 0.175076 0.178256 
0.182331 0.142861 0.165245 0.205957 0.164573 
