# vtk DataFile Version 3.0
vtk output
ASCII
DATASET POLYDATA
POINTS 260 float
0.952239 0.653736 0.131741 0.133129 -0.135925 -0.0627859 0.280843 -0.139805 -0.0590996 
0.305429 -1.03664 -0.815501 -0.14892 -0.0583956 -0.806 -0.0262261 -0.443937 -0.657211 
-0.0564202 0.778316 -0.897391 0.632692 1.28544 -0.897077 -0.0121471 -0.331506 -1.19425 
6.71701 0.300962 -0.918893 0.502204 -0.899064 -1.43049 4.32304 0.207955 -1.37395 
4.94643 -0.201745 -1.34575 6.15 0.262495 -1.39837 4.39502 -0.611389 -1.7462 
2.17005 -1.50285 -1.97135 2.8349 -1.6408 -1.95088 3.72208 0.893742 -2.01097 
6.97993 0.338127 -2.11472 6.85892 0.207506 -2.46372 7.03289 -0.163101 -2.41425 
6.70196 -0.00559794 -2.64413 6.55585 -0.0038591 -2.71443 6.75809 -0.08177 -2.60574 
6.80744 -0.146419 -2.5654 6.85534 -0.194604 -2.52254 6.90872 -0.213606 -2.48234 
6.97198 -0.208084 -2.44207 6.62071 -0.00742758 -2.68063 6.79713 0.137038 -2.57105 
6.74265 0.0716086 -2.63143 6.92032 0.278518 -2.29031 6.77484 0.281831 -2.45516 
6.71052 0.326086 -2.40809 6.65655 0.367268 -2.32176 6.60161 0.390404 -2.2293 
6.54564 0.400683 -2.16427 6.48832 0.396533 -2.12845 6.42719 0.367441 -2.09192 
6.36533 0.339192 -2.02579 6.30603 0.335207 -1.91835 6.2471 0.332109 -1.77388 
6.19139 0.304027 -1.5964 7.03166 -0.0817383 -2.40763 7.0052 -0.0103253 -2.41798 
6.9849 0.0510384 -2.43156 6.93825 0.120516 -2.44604 3.72922 0.840069 -1.97941 
3.76261 0.794673 -1.93267 3.81128 0.772577 -1.87889 3.86188 0.7503 -1.82506 
3.90926 0.704733 -1.77798 3.95618 0.657607 -1.72344 4.00509 0.623534 -1.66926 
4.05159 0.574398 -1.61467 4.09497 0.515426 -1.56725 4.12804 0.456499 -1.51267 
4.14638 0.401536 -1.45856 4.18139 0.353933 -1.41171 4.22909 0.319089 -1.3872 
4.27667 0.268535 -1.37701 2.78585 -1.59071 -1.91661 2.73532 -1.5546 -1.90416 
2.68733 -1.50604 -1.9143 2.6394 -1.45987 -1.93917 2.5875 -1.43841 -1.95594 
2.53363 -1.42838 -1.96497 2.47927 -1.42013 -1.96655 2.42462 -1.41379 -1.96807 
2.36841 -1.41747 -1.96931 2.30889 -1.43855 -1.97007 2.24539 -1.45966 -1.97092 
2.77225 -1.68691 -1.95091 2.70961 -1.73301 -1.95094 2.64698 -1.779 -1.95097 
2.58464 -1.82309 -1.95106 2.5241 -1.8554 -1.95148 2.46764 -1.86094 -1.95266 
2.41297 -1.85471 -1.95418 2.35862 -1.84646 -1.95575 2.30457 -1.8362 -1.95739 
2.25243 -1.81417 -1.95935 2.20628 -1.76568 -1.96202 2.17368 -1.70712 -1.96469 
2.16768 -1.64934 -1.9667 2.17079 -1.58486 -1.96869 2.89513 -1.61052 -1.9504 
2.95159 -1.60497 -1.94922 3.00637 -1.60905 -1.94035 3.06201 -1.60469 -1.91691 
3.11939 -1.58466 -1.8717 3.17478 -1.57767 -1.8261 3.2308 -1.56937 -1.79536 
3.29106 -1.53887 -1.79489 3.3516 -1.50657 -1.79447 3.40998 -1.48708 -1.78627 
3.47027 -1.45216 -1.7637 3.53198 -1.4094 -1.74877 3.59264 -1.37494 -1.741 
3.6512 -1.3556 -1.74021 3.71223 -1.32152 -1.74725 3.77501 -1.27802 -1.76937 
3.8368 -1.23316 -1.8138 3.88892 -1.18694 -1.86593 3.92578 -1.13819 -1.91108 
3.97508 -1.09049 -1.92626 4.02367 -1.04183 -1.91182 4.05829 -0.990209 -1.86817 
4.10588 -0.940346 -1.81672 4.15185 -0.890449 -1.77274 4.17532 -0.83777 -1.75163 
4.1993 -0.785519 -1.74532 4.24912 -0.736097 -1.74571 4.31571 -0.681251 -1.74586 
2.09293 -1.46025 -1.91527 2.03498 -1.40588 -1.87394 1.98501 -1.3556 -1.85451 
1.93414 -1.32125 -1.84202 1.88393 -1.28161 -1.82227 1.83228 -1.2486 -1.7875 
1.78111 -1.21242 -1.75283 1.72625 -1.20325 -1.73221 1.66804 -1.21745 -1.71833 
1.61317 -1.20838 -1.6977 1.56171 -1.17411 -1.66298 1.50824 -1.15299 -1.62788 
1.45364 -1.14212 -1.60731 1.39914 -1.13342 -1.60149 1.34508 -1.12327 -1.60312 
1.29252 -1.10324 -1.60503 1.24225 -1.06823 -1.60737 1.18969 -1.04821 -1.60928 
1.13563 -1.03805 -1.61091 1.08129 -1.0297 -1.61249 1.02693 -1.02145 -1.61406 
0.972576 -1.0132 -1.61564 0.918043 -1.00472 -1.60981 0.863152 -0.995756 -1.58918 
0.807904 -0.986319 -1.55375 0.752674 -0.976773 -1.51833 0.698 -0.965924 -1.49775 
0.643638 -0.94589 -1.48488 0.583017 -0.91325 -1.46515 4.48241 -0.569067 -1.7158 
4.54781 -0.544927 -1.67052 4.59706 -0.506682 -1.61866 4.63167 -0.456981 -1.57495 
4.6818 -0.408248 -1.54565 4.74187 -0.36087 -1.51607 4.80412 -0.312756 -1.47164 
4.8706 -0.260878 -1.4124 4.34009 -0.534314 -1.75 4.30194 -0.468246 -1.75304 
4.28216 -0.408952 -1.75542 4.24979 -0.348181 -1.75074 4.22083 -0.287546 -1.73115 
4.22603 -0.231463 -1.68835 4.25589 -0.17891 -1.63742 4.263 -0.123117 -1.59457 
4.24592 -0.0642855 -1.57463 4.24235 -0.00792534 -1.56911 4.24867 0.0469349 -1.56331 
4.25815 0.101946 -1.5352 4.27854 0.156359 -1.46974 6.21619 0.270121 -1.26852 
6.27707 0.290894 -1.17876 6.33277 0.29583 -1.13063 6.38669 0.290624 -1.09703 
6.44029 0.28582 -1.05111 6.49519 0.291017 -0.998052 6.55256 0.310957 -0.952834 
6.60817 0.315203 -0.929391 6.66264 0.3091 -0.920466 6.06257 0.237987 -1.33791 
5.9951 0.234158 -1.27269 5.93581 0.230787 -1.21224 5.87614 0.213595 -1.16617 
5.81916 0.20886 -1.14516 5.76252 0.20355 -1.13894 5.70376 0.182923 -1.13969 
5.64552 0.165695 -1.14054 5.58498 0.133388 -1.14096 5.52444 0.101081 -1.14138 
5.46618 0.0837543 -1.14223 5.40713 0.0612104 -1.14293 5.34885 0.0437752 -1.14377 
5.28802 0.00956108 -1.14414 5.22566 -0.0346339 -1.14422 5.16315 -0.0808153 -1.15166 
5.09997 -0.126993 -1.18136 5.0305 -0.169286 -1.24839 4.8884 -0.107573 -1.22414 
4.8362 -0.0334904 -1.11658 4.78605 0.0209349 -1.04541 4.7344 0.0542225 -1.01066 
4.68311 0.0811259 -1.02017 4.62884 0.0856947 -1.04387 4.57824 0.111538 -1.08299 
4.5281 0.140355 -1.12219 4.47935 0.175495 -1.17639 4.42823 0.193727 -1.23752 
4.37577 0.20174 -1.30575 0.419241 -0.962804 -1.20804 0.355195 -1.01284 -0.99298 
0.444953 -0.823699 -1.43429 0.393222 -0.767623 -1.43734 0.342508 -0.731002 -1.43974 
0.294774 -0.680496 -1.44993 0.248485 -0.622189 -1.46774 0.201143 -0.572193 -1.49273 
0.150904 -0.536232 -1.49263 0.101343 -0.483133 -1.44858 0.0484403 -0.413627 -1.34089 
-0.0803803 -0.235423 -1.11496 -0.126871 -0.150282 -0.985383 -0.0160091 -0.392041 -0.923046 
0.682445 1.26673 -0.791492 0.729362 1.23365 -0.663266 0.776244 1.20458 -0.512932 
0.820623 1.15841 -0.369524 0.862215 1.10181 -0.248086 0.894265 1.04398 -0.156493 
0.909874 0.988117 -0.0801908 0.930663 0.931252 -0.0111379 0.944514 0.87523 0.0503047 
0.962004 0.818233 0.0970344 0.955302 0.764275 0.120845 0.935586 0.711871 0.12947 
-0.205747 0.0199518 -0.775301 -0.232261 0.0853075 -0.740972 -0.254823 0.14601 -0.708869 
-0.258959 0.202847 -0.69103 -0.252754 0.257724 -0.685228 -0.244284 0.311836 -0.69418 
-0.233549 0.365182 -0.717873 -0.212398 0.416315 -0.763483 -0.176104 0.46494 -0.816073 
-0.154854 0.516058 -0.861679 -0.142212 0.569115 -0.885318 -0.121854 0.621422 -0.893925 
-0.086799 0.671711 -0.894696 -0.0667275 0.724273 -0.895902 0.238418 -0.988145 -0.70006 
0.181371 -0.921475 -0.651677 0.133257 -0.857438 -0.640074 0.0872003 -0.794792 -0.643198 
0.0429735 -0.732263 -0.638858 0.0100721 -0.671031 -0.619382 0.00175777 -0.613107 -0.584375 
-0.0042928 -0.555949 -0.56412 -0.0224263 -0.498223 -0.588651 -0.00876883 -0.385496 -0.465923 
0.0242274 -0.329975 -0.296405 0.0539318 -0.273915 -0.171459 0.0951668 -0.213113 -0.0982898 
-0.0859529 -0.0474966 -0.547835 -0.0314935 -0.0451261 -0.331615 0.0203889 -0.050914 -0.184381 
0.0746662 -0.075544 -0.103206 0.215213 -0.135205 -0.0608299 
LINES 24 311
3 21 28 22 
4 19 29 30 21 
3 19 31 18 
13 19 32 33 34 35 36 37 38 39 40 41 42 13 
16 17 47 48 49 50 51 52 53 54 55 56 57 58 59 60 11 
13 16 61 62 63 64 65 66 67 68 69 70 71 15 
16 16 72 73 74 75 76 77 78 79 80 81 82 83 84 85 15 
30 16 86 87 88 89 90 91 92 93 94 95 96 97 98 99 100 101 102 103 104 105 106 107 108 109 110 111 112 113 14 
31 15 114 115 116 117 118 119 120 121 122 123 124 125 126 127 128 129 130 131 132 133 134 135 136 137 138 139 140 141 142 10 
10 14 143 144 145 146 147 148 149 150 12 
15 14 151 152 153 154 155 156 157 158 159 160 161 162 163 11 
11 13 164 165 166 167 168 169 170 171 172 9 
20 13 173 174 175 176 177 178 179 180 181 182 183 184 185 186 187 188 189 190 12 
13 12 191 192 193 194 195 196 197 198 199 200 201 11 
11 10 204 205 206 207 208 209 210 211 212 8 
4 8 213 214 4 
3 8 215 5 
14 7 216 217 218 219 220 221 222 223 224 225 226 227 0 
16 4 228 229 230 231 232 233 234 235 236 237 238 239 240 241 6 
6 5 251 252 253 254 1 
6 4 255 256 257 258 1 
3 2 259 1 
12 21 23 24 25 26 27 20 43 44 45 46 19 
14 10 202 203 3 242 243 244 245 246 247 248 249 250 5 

POINT_DATA 260
SCALARS DY_raw double
LOOKUP_TABLE default
31.5877 33.5148 38.486 26.6107 27.8575 43.5282 41.8516 47.8876 26.367 
25.3318 29.3211 25.0048 25.8095 33.4951 21.2769 23.4759 18.5625 43.2543 
0 33.674 30.1914 55.6202 83.1037 43.2948 39.2853 28.8564 28.2875 
27.7811 64.9829 32.8466 41.4482 34.7602 35.6594 41.0997 40.9846 34.6028 
28.1743 30.0434 26.1022 27.3925 22.9134 22.9967 28.6186 33.7067 34.1978 
27.0855 28.7013 43.2543 27.7242 24.409 27.5875 30.1373 29.174 30.5631 
33.0595 35.5354 38.7512 36.4157 30.0893 23.7064 24.5463 23.5024 29.1058 
33.801 36.8154 36.8154 43.7098 43.7098 40.0071 35.1791 37.0896 26.5781 
16.9753 16.5428 22.8573 23.587 24.6993 30.0979 30.0979 34.0613 34.8244 
34.8244 33.9336 27.3102 22.5908 23.0523 19.1573 19.1573 18.669 18.5513 
20.7375 24.9305 28.503 34.8694 35.8933 41.1888 45.0751 38.1874 49.3644 
40.1483 40.6324 46.8703 35.6471 35.4783 27.4128 29.1232 30.2537 28.3821 
50.0082 47.5602 47.5602 48.3901 35.9078 24.7259 28.6879 33.4759 35.2797 
35.7543 35.7543 39.0941 41.1567 43.515 37.5058 30.7383 36.4304 44.2652 
47.0422 53.7325 50.6405 49.655 49.655 44.7336 44.7336 49.9584 41.0608 
41.0608 40.2243 34.9288 34.9288 36.9352 36.1923 33.0975 31.7684 22.0932 
32.446 38.6865 36.0052 23.3225 24.9649 23.923 26.1717 26.0421 32.5623 
37.4041 34.1242 29.0544 34.5963 38.0069 36.4993 36.4993 29.1955 29.1955 
27.0822 20.9707 38.8535 40.1366 37.9142 35.4723 35.346 33.8606 37.3669 
37.3669 32.0647 36.8855 38.5442 39.2822 38.4584 39.323 37.771 35.5292 
34.1387 31.6049 25.9594 27.278 39.6371 32.0372 22.5348 29.3398 32.641 
31.4552 25.5475 26.4734 25.9007 20.1278 18.205 18.205 21.1711 24.539 
23.0883 24.4772 24.792 21.2388 33.4903 24.0153 30.1616 29.8336 26.7802 
25.5672 23.2953 21.4165 27.0302 36.9024 37.1104 24.3872 26.1421 33.58 
32.2219 29.7228 32.1811 32.1196 30.4802 30.5389 27.1812 31.4469 31.137 
30.9767 33.7502 33.7502 33.1054 37.1982 37.1814 34.5431 40.0103 40.0103 
44.0912 37.7177 34.4957 32.702 26.945 26.945 43.7004 43.7004 28.7275 
33.2452 35.3372 33.7406 35.2029 38.5353 40.9014 43.6851 43.6851 53.7902 
42.8397 33.5336 33.3579 30.2484 35.6684 34.0043 35.9623 32.3539 
FIELD FieldData 7
DY_minmax 1 260 double
0.3801 0.403288 0.463108 0.32021 0.335213 0.523781 0.503607 0.576239 0.317278 
0.304821 0.352825 0.300887 0.31057 0.403051 0.256028 0.282489 0.223366 0.520486 
0 0.405205 0.363298 0.669287 1 0.520973 0.472726 0.347233 0.340388 
0.334295 0.781949 0.395248 0.498753 0.418275 0.429094 0.494558 0.493173 0.416381 
0.339026 0.361517 0.314091 0.329618 0.275721 0.276722 0.344372 0.405598 0.411508 
0.325924 0.345367 0.520486 0.33361 0.293717 0.331964 0.362646 0.351055 0.367771 
0.39781 0.427603 0.4663 0.438195 0.362069 0.285263 0.29537 0.282808 0.350235 
0.406732 0.443005 0.443005 0.525966 0.525966 0.481412 0.423316 0.446305 0.319818 
0.204267 0.199062 0.275045 0.283826 0.297211 0.362172 0.362172 0.409865 0.419047 
0.419047 0.408328 0.328628 0.271839 0.277392 0.230522 0.230522 0.224647 0.223231 
0.249538 0.299992 0.342981 0.419589 0.431909 0.495631 0.542395 0.459515 0.594009 
0.48311 0.488935 0.563998 0.428947 0.426916 0.329863 0.350444 0.364047 0.341526 
0.601756 0.572299 0.572299 0.582286 0.432084 0.29753 0.345206 0.40282 0.424526 
0.430237 0.430237 0.470425 0.495245 0.523622 0.451313 0.369878 0.438372 0.532649 
0.566066 0.646571 0.609365 0.597506 0.597506 0.538287 0.538287 0.601157 0.49409 
0.49409 0.484025 0.420303 0.420303 0.444447 0.435507 0.398268 0.382274 0.265851 
0.390428 0.465521 0.433256 0.280643 0.300406 0.28787 0.314928 0.313369 0.391827 
0.45009 0.410622 0.349617 0.416303 0.457343 0.439201 0.439201 0.351314 0.351314 
0.325884 0.252343 0.46753 0.48297 0.456227 0.426843 0.425324 0.40745 0.449641 
0.449641 0.38584 0.443849 0.463808 0.472688 0.462775 0.47318 0.454504 0.427528 
0.410796 0.380307 0.312374 0.328241 0.47696 0.385509 0.271164 0.353051 0.392774 
0.378505 0.307417 0.318559 0.311667 0.2422 0.219064 0.219064 0.254756 0.295282 
0.277825 0.294538 0.298326 0.25557 0.402994 0.28898 0.362939 0.358992 0.322251 
0.307654 0.280316 0.257707 0.325259 0.444052 0.446555 0.293455 0.314572 0.404073 
0.387731 0.357659 0.38724 0.3865 0.366773 0.367479 0.327076 0.378405 0.374676 
0.372747 0.406121 0.406121 0.398362 0.447612 0.447409 0.415662 0.48145 0.48145 
0.530556 0.453863 0.415091 0.393508 0.324233 0.324233 0.525853 0.525853 0.345682 
0.400045 0.425218 0.406006 0.423602 0.463701 0.492173 0.525669 0.525669 0.647266 
0.515496 0.403515 0.4014 0.363984 0.429203 0.409179 0.43274 0.389319 
WidthEq 1 260 double
7.07997 7.92099 4.82721 10.4969 10.5142 5.97865 3.62542 6.89656 8.47727 
3.27889 7.30873 8.07763 6.83507 6.60695 6.35195 8.11512 5.47016 4.44626 
1 5.67024 7.33751 6.29843 4.94924 7.83188 7.77517 7.99373 8.22695 
8.01731 5.7809 6.36321 7.02443 3.89698 5.46729 4.94286 4.98651 5.375 
5.88976 5.57593 6.45157 6.45943 7.24596 6.07827 6.14985 6.98258 6.18957 
5.56903 5.65028 4.44626 6.21262 7.3391 7.34102 6.90474 6.83794 6.63381 
6.41238 6.19382 5.98949 6.03367 6.82668 7.3322 7.53229 5.11863 4.54514 
4.77708 4.27294 4.27294 4.3528 4.3528 4.53494 5.05215 5.45624 7.2003 
5.6747 5.44042 5.3134 4.94297 4.95763 4.86247 4.86247 4.94021 5.18171 
5.18171 5.50722 5.94467 6.55841 7.62309 5.10355 5.10355 4.45391 4.80937 
4.51211 4.2791 4.3613 3.71931 4.97642 4.21134 4.10493 4.97494 3.93766 
4.13966 4.54662 4.05374 4.80544 5.19839 5.43723 5.72876 5.76657 5.87659 
5.24554 5.36289 5.36289 5.64454 6.1541 6.62585 7.88275 7.24193 7.42523 
7.08167 7.08167 6.22908 6.7192 6.40952 6.64911 6.88881 6.50117 5.86534 
5.55119 4.76062 5.16504 5.30682 5.30682 5.58953 5.58953 4.84643 4.7722 
4.7722 4.75956 5.27273 5.27273 5.5462 6.12341 6.6165 6.97642 5.48811 
4.21315 3.80236 3.78473 4.36831 5.00223 5.67821 6.49671 5.96187 4.82583 
3.84824 3.91716 3.95189 4.0513 4.96963 5.32477 5.32477 6.28728 6.28728 
7.15304 8.17428 6.59452 6.83167 7.06595 6.27814 6.18033 6.27071 5.54662 
5.54662 5.05852 6.25287 5.65559 5.5804 4.76359 3.00053 3.02878 2.46389 
1.9743 1.86332 2.45306 3.04237 3.43617 4.05278 4.57116 4.45401 4.56022 
5.30246 6.42332 6.11746 5.38286 5.09048 5.2568 5.2568 5.43617 5.58783 
5.66695 6.59675 7.32413 7.66897 7.26508 9.07254 7.08783 6.70051 6.72175 
7.02188 8.27506 9.0309 8.26593 7.24235 7.02687 9.46931 10.4368 7.24628 
10.36 11.8219 11.5764 12.3068 12.2345 12.7356 12.055 9.41302 8.91833 
8.37436 7.74692 7.74692 10.0346 9.6182 9.42757 9.48757 7.95794 7.95794 
7.23025 7.26423 7.67024 6.79439 6.37298 6.37298 4.83634 4.83634 10.1272 
9.18628 8.72536 8.40293 7.29684 6.59707 6.46262 5.90293 5.90293 5.99533 
6.00658 7.18384 7.44382 9.56446 6.84611 7.26232 7.37022 7.67173 
rRFP 1 260 double
2913.9 2993.09 2701.78 3235.64 3237.27 2810.2 2588.62 2896.63 3045.47 
2555.99 2935.44 3007.84 2890.84 2869.36 2845.35 3011.37 2762.32 2665.91 
2341.41 2781.16 2938.15 2840.31 2713.27 2984.7 2979.36 2999.94 3021.9 
3002.16 2791.58 2846.41 2908.67 2614.19 2762.05 2712.67 2716.78 2753.36 
2801.83 2772.28 2854.73 2855.47 2929.53 2819.58 2826.32 2904.73 2830.06 
2771.63 2779.28 2665.91 2832.23 2938.3 2938.48 2897.4 2891.11 2871.89 
2851.04 2830.46 2811.22 2815.38 2890.05 2937.65 2956.49 2729.22 2675.22 
2697.06 2649.59 2649.59 2657.11 2657.11 2674.26 2722.96 2761.01 2925.23 
2781.58 2759.52 2747.56 2712.68 2714.06 2705.1 2705.1 2712.42 2735.16 
2735.16 2765.81 2807 2864.79 2965.04 2727.8 2727.8 2666.63 2700.1 
2672.11 2650.17 2657.91 2597.46 2715.83 2643.79 2633.77 2715.69 2618.02 
2637.04 2675.36 2628.95 2699.73 2736.73 2759.22 2786.67 2790.23 2800.59 
2741.17 2752.22 2752.22 2778.74 2826.72 2871.14 2989.49 2929.15 2946.41 
2914.06 2914.06 2833.78 2879.93 2850.77 2873.33 2895.9 2859.4 2799.53 
2769.95 2695.51 2733.59 2746.94 2746.94 2773.56 2773.56 2703.59 2696.6 
2696.6 2695.41 2743.73 2743.73 2769.48 2823.83 2870.26 2904.15 2764.01 
2643.96 2605.28 2603.62 2658.57 2718.26 2781.91 2858.98 2808.62 2701.65 
2609.6 2616.09 2619.36 2628.72 2715.19 2748.63 2748.63 2839.26 2839.26 
2920.78 3016.94 2868.19 2890.52 2912.58 2838.4 2829.19 2837.7 2769.52 
2769.52 2723.56 2836.02 2779.78 2772.7 2695.79 2529.78 2532.44 2479.25 
2433.15 2422.7 2478.23 2533.72 2570.8 2628.86 2677.67 2666.64 2676.64 
2746.53 2852.07 2823.27 2754.1 2726.57 2742.23 2742.23 2759.12 2773.4 
2780.85 2868.4 2936.89 2969.36 2931.33 3101.52 2914.64 2878.17 2880.17 
2908.43 3026.43 3097.6 3025.57 2929.19 2908.9 3138.88 3229.98 2929.56 
3222.75 3360.4 3337.28 3406.06 3399.25 3446.43 3382.35 3133.58 3087 
3035.78 2976.7 2976.7 3192.11 3152.9 3134.95 3140.6 2996.57 2996.57 
2928.05 2931.25 2969.48 2887.01 2847.33 2847.33 2702.64 2702.64 3200.83 
3112.23 3068.83 3038.47 2934.32 2868.43 2855.77 2803.07 2803.07 2811.77 
2812.83 2923.68 2948.16 3147.84 2891.88 2931.07 2941.23 2969.62 
rGFP 1 260 double
2732.75 2774.58 2694.89 2788.44 2802.01 2769.35 2660.84 2839.37 2732.63 
2592.17 2723.41 2711.09 2685.52 2730.41 2644.26 2699.62 2610.65 2701.43 
2509.11 2700.05 2730.64 2859.43 2920.41 2848.19 2814.56 2739.78 2741.83 
2731.84 2884.77 2718.12 2800.26 2644.57 2704.07 2712.26 2713.48 2695.1 
2675.05 2676.63 2677.51 2686.05 2675.14 2648.89 2685.11 2744.47 2720.78 
2659.95 2671.28 2701.43 2681.35 2688.25 2711.63 2717.2 2708.6 2711.86 
2721.1 2729.21 2741.21 2728.83 2714.52 2682.93 2694 2629.41 2641.4 
2670.58 2666.42 2666.42 2699.37 2699.37 2690.54 2686.84 2711.48 2700.48 
2605.44 2599.11 2630.56 2625.7 2631.56 2655.46 2655.46 2677.38 2689.56 
2689.56 2695.99 2671.46 2657.27 2684.84 2606.88 2606.88 2592.26 2598.33 
2602.68 2615.79 2633.42 2638.8 2687.73 2682.57 2694.14 2699.09 2703.49 
2675.31 2693.85 2699.11 2680.41 2693.54 2658.16 2675.95 2683.57 2675.9 
2771.43 2764.17 2764.17 2782.25 2730.09 2672.94 2735.25 2751.54 2771.07 
2762.31 2762.31 2752.63 2785.65 2788.02 2758.49 2720.86 2745.95 2768.74 
2770.25 2764.91 2770.67 2772.62 2772.62 2759.15 2759.15 2751.23 2705.06 
2705.06 2700.56 2693.28 2693.28 2713.96 2730.73 2728.1 2730.74 2630.36 
2645.81 2656.21 2645.38 2610.99 2633.99 2644.95 2679.14 2664.37 2666.25 
2653.05 2642.78 2623.93 2649.27 2697.99 2703.46 2703.46 2692.67 2692.67 
2702.83 2680.53 2765.33 2783.31 2777.01 2731.81 2727.56 2721.44 2716.37 
2716.37 2671.31 2739.75 2727.1 2728.32 2692.31 2627.1 2623.51 2596.65 
2576.51 2568 2572.79 2592.1 2645.31 2638.95 2612.12 2639.79 2657.96 
2675.9 2673.21 2671.06 2648.53 2611.57 2604.81 2604.81 2624.2 2646.23 
2639.95 2670.58 2690.69 2671.99 2752.42 2726.99 2722.89 2709.01 2689.12 
2688.64 2701.88 2702.52 2732.54 2776.37 2769.88 2740.04 2781.95 2752.44 
2842.93 2860.49 2881.65 2904.4 2882.02 2898.04 2836.78 2805.12 2786.8 
2768.52 2770.57 2770.57 2841.31 2866.89 2859.64 2836.84 2827.51 2827.51 
2827.9 2783.1 2773.7 2731.3 2680.83 2680.83 2720.46 2720.46 2800.04 
2814.51 2817.44 2792.63 2765.98 2763.33 2773.44 2766.98 2766.98 2831.6 
2766.43 2750.01 2757.42 2798.42 2753.3 2756.06 2774.16 2757.32 
bkstRFP 1 260 double
666.65 745.84 454.53 988.39 990.02 562.95 341.37 649.38 798.22 
308.74 688.19 760.59 643.59 622.11 598.1 764.12 515.07 418.66 
94.16 533.91 690.9 593.06 466.02 737.45 732.11 752.69 774.65 
754.91 544.33 599.16 661.42 366.94 514.8 465.42 469.53 506.11 
554.58 525.03 607.48 608.22 682.28 572.33 579.07 657.48 582.81 
524.38 532.03 418.66 584.98 691.05 691.23 650.15 643.86 624.64 
603.79 583.21 563.97 568.13 642.8 690.4 709.24 481.97 427.97 
449.81 402.34 402.34 409.86 409.86 427.01 475.71 513.76 677.98 
534.33 512.27 500.31 465.43 466.81 457.85 457.85 465.17 487.91 
487.91 518.56 559.75 617.54 717.79 480.55 480.55 419.38 452.85 
424.86 402.92 410.66 350.21 468.58 396.54 386.52 468.44 370.77 
389.79 428.11 381.7 452.48 489.48 511.97 539.42 542.98 553.34 
493.92 504.97 504.97 531.49 579.47 623.89 742.24 681.9 699.16 
666.81 666.81 586.53 632.68 603.52 626.08 648.65 612.15 552.28 
522.7 448.26 486.34 499.69 499.69 526.31 526.31 456.34 449.35 
449.35 448.16 496.48 496.48 522.23 576.58 623.01 656.9 516.76 
396.71 358.03 356.37 411.32 471.01 534.66 611.73 561.37 454.4 
362.35 368.84 372.11 381.47 467.94 501.38 501.38 592.01 592.01 
673.53 769.69 620.94 643.27 665.33 591.15 581.94 590.45 522.27 
522.27 476.31 588.77 532.53 525.45 448.54 282.53 285.19 232 
185.9 175.45 230.98 286.47 323.55 381.61 430.42 419.39 429.39 
499.28 604.82 576.02 506.85 479.32 494.98 494.98 511.87 526.15 
533.6 621.15 689.64 722.11 684.08 854.27 667.39 630.92 632.92 
661.18 779.18 850.35 778.32 681.94 661.65 891.63 982.73 682.31 
975.5 1113.15 1090.03 1158.81 1152 1199.18 1135.1 886.33 839.75 
788.53 729.45 729.45 944.86 905.65 887.7 893.35 749.32 749.32 
680.8 684 722.23 639.76 600.08 600.08 455.39 455.39 953.58 
864.98 821.58 791.22 687.07 621.18 608.52 555.82 555.82 564.52 
565.58 676.43 700.91 900.59 644.63 683.82 693.98 722.37 
bkstGFP 1 260 double
223.64 265.47 185.78 279.33 292.9 260.24 151.73 330.26 223.52 
83.06 214.3 201.98 176.41 221.3 135.15 190.51 101.54 192.32 
0 190.94 221.53 350.32 411.3 339.08 305.45 230.67 232.72 
222.73 375.66 209.01 291.15 135.46 194.96 203.15 204.37 185.99 
165.94 167.52 168.4 176.94 166.03 139.78 176 235.36 211.67 
150.84 162.17 192.32 172.24 179.14 202.52 208.09 199.49 202.75 
211.99 220.1 232.1 219.72 205.41 173.82 184.89 120.3 132.29 
161.47 157.31 157.31 190.26 190.26 181.43 177.73 202.37 191.37 
96.33 90 121.45 116.59 122.45 146.35 146.35 168.27 180.45 
180.45 186.88 162.35 148.16 175.73 97.77 97.77 83.15 89.22 
93.57 106.68 124.31 129.69 178.62 173.46 185.03 189.98 194.38 
166.2 184.74 190 171.3 184.43 149.05 166.84 174.46 166.79 
262.32 255.06 255.06 273.14 220.98 163.83 226.14 242.43 261.96 
253.2 253.2 243.52 276.54 278.91 249.38 211.75 236.84 259.63 
261.14 255.8 261.56 263.51 263.51 250.04 250.04 242.12 195.95 
195.95 191.45 184.17 184.17 204.85 221.62 218.99 221.63 121.25 
136.7 147.1 136.27 101.88 124.88 135.84 170.03 155.26 157.14 
143.94 133.67 114.82 140.16 188.88 194.35 194.35 183.56 183.56 
193.72 171.42 256.22 274.2 267.9 222.7 218.45 212.33 207.26 
207.26 162.2 230.64 217.99 219.21 183.2 117.99 114.4 87.54 
67.4 58.89 63.68 82.99 136.2 129.84 103.01 130.68 148.85 
166.79 164.1 161.95 139.42 102.46 95.7 95.7 115.09 137.12 
130.84 161.47 181.58 162.88 243.31 217.88 213.78 199.9 180.01 
179.53 192.77 193.41 223.43 267.26 260.77 230.93 272.84 243.33 
333.82 351.38 372.54 395.29 372.91 388.93 327.67 296.01 277.69 
259.41 261.46 261.46 332.2 357.78 350.53 327.73 318.4 318.4 
318.79 273.99 264.59 222.19 171.72 171.72 211.35 211.35 290.93 
305.4 308.33 283.52 256.87 254.22 264.33 257.87 257.87 322.49 
257.32 240.9 248.31 289.31 244.19 246.95 265.05 248.21 
tubeWidth 1 260 double
0.321328 0.267218 0.189999 0.210275 0.17975 0.106768 0.199021 0.269964 0.167531 
0.170717 0.2088 0.205506 0.247512 0.23771 0.23875 0.230642 0.260214 0.208088 
0.074704 0.207168 0.246015 0.169249 0.0710168 0.178794 0.222436 0.22453 0.217421 
0.252402 0.120845 0.132667 0.154715 0.0702059 0.2046 0.188272 0.186166 0.267249 
0.181185 0.151555 0.175551 0.25662 0.214767 0.155503 0.190767 0.219731 0.206253 
0.165892 0.140792 0.24432 0.277279 0.279917 0.284249 0.275733 0.237117 0.226176 
0.166543 0.215893 0.23439 0.250868 0.2465 0.250473 0.259997 0.23828 0.194421 
0.182334 0.174883 0.198476 0.205605 0.187022 0.165142 0.159679 0.185412 0.197569 
0.218413 0.158468 0.158646 0.163307 0.189863 0.210193 0.192499 0.193423 0.19931 
0.22273 0.21257 0.153838 0.123649 0.125533 0.232726 0.206803 0.205363 0.203011 
0.216847 0.206061 0.20351 0.172195 0.193272 0.196115 0.162198 0.158941 0.165545 
0.189853 0.217619 0.218561 0.225552 0.207882 0.197805 0.209128 0.210731 0.247465 
0.246292 0.237027 0.212359 0.218283 0.230295 0.22954 0.281083 0.301998 0.264073 
0.245792 0.241267 0.270152 0.261031 0.267445 0.282085 0.280208 0.248139 0.218459 
0.208612 0.216834 0.215291 0.217008 0.209586 0.233099 0.249802 0.221086 0.216949 
0.21063 0.214651 0.232698 0.238752 0.246123 0.235051 0.231436 0.235774 0.180056 
0.202345 0.207478 0.176408 0.165725 0.200372 0.190427 0.193231 0.199495 0.109362 
0.11365 0.133484 0.174136 0.219412 0.259212 0.212048 0.203293 0.204635 0.190664 
0.195263 0.187912 0.194177 0.16955 0.194267 0.22459 0.277336 0.247541 0.25245 
0.280724 0.264196 0.261778 0.259788 0.213828 0.196197 0.196993 0.165032 0.145309 
0.141855 0.132232 0.15779 0.203306 0.220458 0.243479 0.235927 0.223821 0.212077 
0.22818 0.304931 0.21046 0.133555 0.197701 0.205896 0.219442 0.260238 0.231803 
0.21444 0.192801 0.255411 0.244576 0.0415026 0.144519 0.14103 0.139344 0.137406 
0.157282 0.163292 0.187204 0.196449 0.18261 0.215063 0.214584 0.218847 0.133403 
0.271835 0.303813 0.221558 0.267902 0.232289 0.253503 0.266614 0.264768 0.268376 
0.251595 0.255551 0.287553 0.264492 0.209026 0.181601 0.185123 0.194159 0.204572 
0.213008 0.222396 0.213261 0.219908 0.212708 0.206018 0.204942 0.204463 0.239697 
0.174313 0.171137 0.222153 0.223562 0.209905 0.233544 0.247285 0.173931 0.0649696 
0.110757 0.20586 0.182594 0.174836 0.209718 0.225187 0.251037 0.238567 
