# vtk DataFile Version 3.0
vtk output
ASCII
DATASET POLYDATA
POINTS 347 float
0.755414 0.739167 1.46291 0.944585 1.34387 0.561975 1.90719 1.3917 0.589149 
0.343463 1.01405 0.271869 0.0983372 0.415196 0.101611 -0.0431034 -0.453785 -0.203547 
1.34223 1.47553 0.444372 0.0320495 -0.724108 -0.201898 -0.10866 -0.087529 -0.248454 
1.5314 1.22852 -0.0251997 1.63505 1.29103 -0.00344456 2.5447 -2.68355 -1.07311 
-0.29635 -0.420912 -0.759998 -0.0796864 -0.487544 -0.766501 3.76453 1.01369 -0.174977 
3.20762 -2.5638 -1.1458 3.47158 -2.47417 -1.17776 4.41387 -1.35705 -0.766387 
0.363955 0.980685 -0.564174 0.401596 0.834261 -0.600827 4.5181 -0.741856 -0.806086 
3.87992 -2.34331 -1.33336 0.223061 0.997022 -0.77413 4.42449 -0.133246 -0.857608 
3.10476 -2.76146 -1.61726 8.33446 -0.00745629 -0.728603 4.55522 -0.258348 -1.0392 
3.42566 -2.2129 -1.66347 8.03344 0.820025 -0.629508 8.22798 0.436531 -1.01052 
7.88384 0.915415 -1.1642 0.733526 1.231 -1.51476 3.60313 -2.00863 -2.22183 
6.91367 1.0969 -1.2349 8.3611 -0.260709 -1.58775 0.884667 1.19798 -1.72282 
8.06124 0.755744 -1.60274 3.12735 1.41174 -1.75921 3.26864 1.32783 -1.77411 
3.77641 -1.88937 -2.59572 8.02568 -0.566636 -2.03057 7.97956 -0.0535615 -2.31191 
7.64024 -0.596478 -2.47223 8.21513 0.116716 -2.25504 8.20818 0.18288 -2.23796 
8.21264 0.24227 -2.22209 8.20402 0.30942 -2.20484 8.1868 0.38156 -2.18671 
8.16708 0.453128 -2.16887 8.14186 0.514594 -2.14629 8.10916 0.556559 -2.10335 
8.08992 0.597011 -2.00548 8.08388 0.648898 -1.83585 8.1416 0.0983486 -2.26363 
8.07818 0.0739754 -2.27328 8.03795 0.035831 -2.28538 8.00793 -0.00837456 -2.29856 
8.25149 0.036743 -2.06973 8.28391 -0.050654 -1.89426 8.31381 -0.154713 -1.73608 
7.66861 -0.551291 -2.45888 7.69863 -0.507085 -2.44571 7.7385 -0.470826 -2.42645 
7.80082 -0.452107 -2.39533 7.87178 -0.447168 -2.33673 7.94095 -0.453926 -2.25062 
7.9966 -0.487715 -2.14164 8.01511 0.891603 -1.48654 7.95735 0.930546 -1.34406 
3.68925 -1.94972 -2.40899 3.22154 1.3558 -1.76914 3.17444 1.38377 -1.76418 
8.15787 0.569922 -1.31277 7.94556 0.84152 -1.37833 0.835746 1.21653 -1.68208 
0.785365 1.22753 -1.61273 8.31499 -0.335771 -1.56897 8.24913 -0.381648 -1.53073 
8.17749 -0.412798 -1.45567 8.11226 -0.43536 -1.33967 8.05044 -0.455655 -1.20245 
8.01215 -0.435927 -1.06882 7.98819 -0.39147 -0.958633 7.97582 -0.343341 -0.869885 
7.97691 -0.30086 -0.789621 7.96519 -0.25078 -0.707997 7.94824 -0.197592 -0.625822 
7.95088 -0.151832 -0.559949 8.00124 -0.126008 -0.527571 8.07444 -0.100087 -0.543857 
8.15341 -0.0681439 -0.592761 8.23855 -0.034604 -0.660114 8.3836 -0.25482 -1.37542 
8.37624 -0.231534 -1.19326 8.36407 -0.197933 -1.05209 8.36587 -0.161782 -0.951724 
8.36331 -0.117143 -0.871067 8.36075 -0.0693438 -0.801091 7.84622 0.996119 -1.0784 
7.81685 1.0555 -0.979884 7.78678 1.09808 -0.880725 7.74979 1.13108 -0.807456 
7.7162 1.17546 -0.766802 7.67523 1.21323 -0.75894 7.62923 1.24685 -0.775435 
7.57825 1.27641 -0.816262 7.5201 1.2971 -0.875132 7.4691 1.33054 -0.937952 
7.41758 1.36422 -1.0084 7.355 1.3781 -1.09231 7.29526 1.37906 -1.18712 
7.2465 1.36501 -1.26234 7.18445 1.34823 -1.3006 7.11994 1.3182 -1.2888 
7.06731 1.27481 -1.25689 7.01035 1.23399 -1.22453 6.96221 1.19424 -1.21445 
6.92051 1.15487 -1.21928 3.53175 -2.09125 -2.04016 3.47864 -2.16848 -1.85614 
8.262 0.316314 -0.966057 8.28411 0.210524 -0.903829 8.30469 0.105712 -0.822255 
7.96382 0.868307 -0.893885 8.14919 0.318498 -0.829348 8.08593 0.269086 -0.664597 
8.03234 0.260711 -0.534555 7.98875 0.280196 -0.45188 7.9648 0.332305 -0.408696 
7.9703 0.397174 -0.422005 8.0253 0.447316 -0.482681 8.10162 0.493773 -0.584666 
8.17367 0.528269 -0.706886 8.21858 0.515801 -0.850534 8.31018 0.442693 -0.788421 
8.36377 0.399617 -0.616042 8.39964 0.331563 -0.497158 8.42187 0.25053 -0.437606 
8.43863 0.172438 -0.426645 8.4483 0.111088 -0.465319 8.44443 0.0650118 -0.527508 
8.44138 0.0215995 -0.600456 8.40833 -0.00505512 -0.666677 3.34857 -2.25017 -1.60053 
3.28243 -2.29814 -1.5245 3.24656 -2.3725 -1.42321 3.23252 -2.46822 -1.29575 
3.44145 -2.3473 -1.42452 4.54588 -0.357224 -0.990951 4.53591 -0.453672 -0.907573 
4.52337 -0.534096 -0.841206 4.51881 -0.609801 -0.801941 4.51161 -0.673863 -0.796178 
4.52016 -0.179943 -1.0376 4.46411 -0.158272 -0.971474 3.03803 -2.75971 -1.65089 
2.97804 -2.75106 -1.65934 2.91525 -2.75081 -1.64713 2.86087 -2.73839 -1.62363 
2.81127 -2.71964 -1.59054 2.76057 -2.70654 -1.53599 2.70349 -2.70834 -1.45757 
2.63794 -2.7277 -1.35352 2.58405 -2.72404 -1.22493 0.293325 0.987912 -0.665578 
3.90633 -2.27895 -1.34957 3.95019 -2.23207 -1.35416 3.99665 -2.19869 -1.33533 
4.0481 -2.17661 -1.29238 4.08541 -2.15355 -1.22304 4.12336 -2.12666 -1.16801 
4.17419 -2.09901 -1.14279 4.21294 -2.05788 -1.13765 4.24095 -2.01458 -1.11715 
4.25884 -1.97368 -1.06712 4.26994 -1.93295 -1.00213 4.29869 -1.90059 -0.946126 
4.3096 -1.85134 -0.909588 4.31856 -1.79672 -0.887073 4.32043 -1.7358 -0.870929 
4.3282 -1.67838 -0.855406 4.33118 -1.62022 -0.832259 4.34677 -1.57164 -0.803334 
4.36208 -1.525 -0.767262 4.36672 -1.46782 -0.74429 4.38552 -1.41275 -0.744157 
3.81974 -2.37681 -1.28773 3.74254 -2.40667 -1.22923 3.66272 -2.43716 -1.18254 
3.57577 -2.46006 -1.16617 0.382776 0.907473 -0.5825 0.383767 0.993007 -0.421871 
0.39225 1.0079 -0.271796 0.373349 1.02359 -0.107566 0.345414 1.02112 0.0744291 
3.40444 -2.55486 -1.03882 3.34256 -2.58092 -0.972149 3.27584 -2.57952 -1.01864 
3.14861 -2.57182 -1.05122 3.0832 -2.58485 -0.988966 3.02097 -2.5876 -0.954515 
2.95032 -2.60252 -0.931369 2.87381 -2.62942 -0.896347 2.79693 -2.65821 -0.854157 
2.72601 -2.67457 -0.826301 2.66587 -2.66699 -0.845262 2.60381 -2.66602 -0.932534 
3.71744 1.04166 -0.170011 3.67071 1.07152 -0.172202 3.6244 1.10334 -0.181513 
3.57939 1.13855 -0.197539 3.53878 1.17821 -0.196834 3.50524 1.22656 -0.178136 
3.46318 1.25869 -0.148811 3.41635 1.28448 -0.129073 3.36852 1.30868 -0.109793 
3.31934 1.32941 -0.0838351 3.26392 1.33625 -0.0388454 3.20066 1.33056 0.00245177 
3.14498 1.33959 0.0326685 3.09076 1.35616 0.0342676 3.02969 1.36178 0.0326333 
2.9761 1.37805 0.0418581 2.92686 1.39868 0.0677895 2.87798 1.42121 0.0865637 
2.82434 1.43739 0.0957642 2.76191 1.43953 0.100816 2.70046 1.44063 0.120978 
2.63008 1.42354 0.158898 2.55933 1.40456 0.203983 2.49674 1.39993 0.245584 
2.43258 1.3967 0.264468 2.37275 1.40299 0.270746 2.30938 1.40363 0.275353 
2.24882 1.40615 0.295935 2.18326 1.39548 0.343464 2.12025 1.38553 0.411772 
2.05283 1.36967 0.485962 1.98635 1.37356 0.544953 -0.146829 -0.491648 -0.771007 
-0.201051 -0.475081 -0.769408 -0.249196 -0.448791 -0.764938 -0.0700748 -0.475232 -0.599158 
-0.0675929 -0.459893 -0.410922 -0.0577862 -0.573832 -0.680747 -0.0250757 -0.644404 -0.559613 
0.00783215 -0.698957 -0.395909 2.45996 -2.67262 -1.04132 2.3875 -2.67176 -1.02178 
2.33186 -2.65796 -1.00308 2.28148 -2.63944 -0.975207 2.22606 -2.63259 -0.930218 
2.16349 -2.63849 -0.881268 2.1142 -2.62183 -0.83338 2.07857 -2.58073 -0.793692 
2.03614 -2.55048 -0.757211 1.98884 -2.53065 -0.708385 1.94543 -2.50589 -0.650382 
1.91106 -2.46536 -0.595447 1.87508 -2.42352 -0.563254 1.84158 -2.37508 -0.544531 
1.79548 -2.34552 -0.539094 1.74023 -2.3319 -0.530651 1.69375 -2.30684 -0.503415 
1.63569 -2.30423 -0.459677 1.58084 -2.29777 -0.407076 1.53062 -2.2826 -0.359631 
1.48232 -2.26047 -0.333257 1.43386 -2.23597 -0.321604 1.38058 -2.2179 -0.31956 
1.31852 -2.21388 -0.321665 1.25817 -2.20712 -0.322962 1.19003 -2.21282 -0.327939 
1.12283 -2.21701 -0.332471 1.06861 -2.20044 -0.330872 1.02051 -2.17407 -0.326377 
0.974358 -2.1446 -0.320967 0.93339 -2.10682 -0.313105 0.900267 -2.0565 -0.301537 
0.860296 -2.01713 -0.293204 0.820325 -1.97776 -0.284871 0.787202 -1.92743 -0.273303 
0.74629 -1.88956 -0.265415 0.701178 -1.85842 -0.259511 0.660266 -1.82056 -0.251623 
0.627092 -1.77031 -0.240079 0.586124 -1.73254 -0.232217 0.539711 -1.70478 -0.219599 
0.492569 -1.68078 -0.192677 0.449411 -1.65432 -0.141893 0.413682 -1.61727 -0.080261 
0.370525 -1.5908 -0.0294778 0.323383 -1.56681 -0.00255552 0.277026 -1.53895 0.0100895 
0.237056 -1.49958 0.0184222 0.210061 -1.43945 0.0328863 0.184059 -1.37773 0.0478191 
0.151265 -1.32688 0.0595429 0.126681 -1.26159 0.0678169 0.107963 -1.18431 0.0642137 
0.0912758 -1.09988 0.0395915 0.0753744 -1.01159 0.000682663 0.0602031 -0.919532 -0.05254 
0.0457619 -0.823705 -0.120067 1.5733 1.26567 -0.0132747 -0.0715414 -0.12763 -0.257124 
-0.0560564 -0.184708 -0.266256 -0.0604572 -0.248966 -0.26296 -0.0547716 -0.337285 -0.239913 
1.83004 1.41728 0.464135 1.79347 1.46961 0.437707 1.79024 1.5061 0.508509 
1.82406 1.49255 0.598698 1.86063 1.44021 0.625115 0.011524 -0.653974 -0.166578 
-0.0117391 -0.566609 -0.167755 1.30353 1.45539 0.368065 1.24216 1.44273 0.314306 
1.16583 1.42284 0.315401 1.07059 1.38639 0.404479 0.0751556 0.455274 0.241371 
0.0628161 0.493117 0.365751 0.0751252 0.524727 0.459068 0.0990073 0.557872 0.522701 
0.124443 0.598498 0.557707 0.142147 0.647918 0.5793 0.147234 0.706932 0.595106 
0.165764 0.760065 0.602376 0.1955 0.812847 0.587119 0.237537 0.870931 0.527873 
0.295291 0.934392 0.417152 0.407333 1.04026 0.274358 0.460441 1.07706 0.263754 
0.526134 1.11269 0.230479 0.592559 1.15209 0.182889 0.647941 1.20015 0.129346 
0.715932 1.23862 0.081591 0.789365 1.26545 0.0617263 0.85132 1.28274 0.0988447 
0.887269 1.29732 0.206774 0.913781 1.31356 0.369626 0.922159 1.21598 0.842858 
0.909838 1.09347 1.06688 0.896111 0.994439 1.20627 0.896716 0.906503 1.27645 
0.887048 0.833397 1.31805 0.831848 0.78313 1.37869 
LINES 40 426
11 43 44 45 46 47 48 49 50 51 52 36 
6 43 53 54 55 56 41 
5 43 57 58 59 34 
9 42 60 61 62 63 64 65 66 40 
4 36 67 68 30 
4 38 70 71 37 
3 36 72 29 
3 36 73 30 
4 35 74 75 31 
18 34 76 77 78 79 80 81 82 83 84 85 86 87 88 89 90 91 25 
8 34 92 93 94 95 96 97 25 
22 30 98 99 100 101 102 103 104 105 106 107 108 109 110 111 112 113 114 115 116 117 33 
5 29 120 121 122 25 
3 30 123 28 
12 29 124 125 126 127 128 129 130 131 132 133 29 
11 29 134 135 136 137 138 139 140 141 142 25 
6 27 143 144 145 146 15 
3 27 147 16 
11 24 155 156 157 158 159 160 161 162 163 11 
3 22 164 18 
3 19 190 18 
6 18 191 192 193 194 3 
5 16 195 196 197 15 
11 15 198 199 200 201 202 203 204 205 206 11 
34 14 207 208 209 210 211 212 213 214 215 216 217 218 219 220 221 222 223 224 225 226 227 228 229 230 231 232 233 234 235 236 237 238 2 
5 13 239 240 241 12 
4 13 242 243 5 
5 13 244 245 246 7 
59 11 247 248 249 250 251 252 253 254 255 256 257 258 259 260 261 262 263 264 265 266 267 268 269 270 271 272 273 274 275 276 277 278 279 280 281 282 283 284 285 286 287 288 289 290 291 292 293 294 295 296 297 298 299 300 301 302 303 7 
3 10 304 9 
6 8 305 306 307 308 5 
7 2 309 310 311 312 313 2 
4 7 314 315 5 
6 6 316 317 318 319 1 
13 4 320 321 322 323 324 325 326 327 328 329 330 3 
12 3 331 332 333 334 335 336 337 338 339 340 1 
8 1 341 342 343 344 345 346 0 
6 39 69 32 118 119 27 
10 20 152 151 150 149 148 26 153 154 23 
28 17 185 184 183 182 181 180 179 178 177 176 175 174 173 172 171 170 169 168 167 166 165 21 186 187 188 189 16 

POINT_DATA 347
SCALARS DY_raw double
LOOKUP_TABLE default
2.75781 10.9524 8.77162 8.16905 2.80091 8.7423 19.3507 5.98016 3.94945 
9.02261 10.4523 6.15117 8.98872 7.72676 14.49 11.8145 23.9839 5.57834 
5.79619 2.14128 6.18533 19.2247 5.12876 6.71247 9.78405 17.9189 9.18004 
14.5848 23.314 13.1787 18.2479 11.5061 19.8036 8.88184 16.9631 9.60499 
17.2943 33.83 21.3996 12.0859 0 14.066 17.8842 12.1252 15.8744 
18.6906 17.9279 15.4057 13.6706 12.2673 12.888 12.9638 13.4725 14.8272 
16.4188 13.927 13.927 16.5108 17.6869 19.435 23.1835 23.3032 23.3032 
16.1331 10.2224 11.6891 5.39227 18.5816 19.1006 18.8907 21.3996 23.1673 
14.996 14.8398 11.0385 11.1444 15.7244 16.9744 17.8144 13.8826 14.0275 
16.5757 19.0635 20.9725 16.3318 14.6113 15.8034 16.5784 19.9277 16.2386 
16.482 17.6403 20.0819 15.4021 14.2147 15.7999 13.5741 16.4637 18.2011 
16.0982 14.9801 13.0179 12.7567 13.4291 11.5853 13.0861 15.4225 16.4336 
15.2547 15.6823 14.9953 17.47 12.6633 11.8516 13.8976 12.2301 8.77002 
8.88184 14.0742 17.2339 17.2003 18.5275 20.2957 12.9534 16.1796 15.0648 
14.6173 15.8478 20.9327 21.8928 18.1838 17.0323 16.7071 14.4972 11.3306 
10.2687 10.7898 11.5239 16.3862 17.6318 18.0199 17.1009 15.3247 14.5158 
16.051 14.5372 11.976 22.4284 8.01815 7.65986 7.68977 7.01487 6.69986 
9.35117 8.35487 10.7999 10.9835 11.5524 12.395 12.4314 10.9594 8.25783 
6.93386 7.05416 6.42136 19.0093 17.6966 14.6519 11.1915 8.55691 9.07415 
7.29607 5.07258 5.07258 6.58145 8.25951 7.99341 5.16161 6.30845 5.8269 
9.72408 9.99957 7.97692 7.48064 7.48064 6.95551 22.6852 25.4605 30.3582 
27.5669 3.40851 6.21375 6.9249 7.45796 7.74871 19.0786 15.0475 11.6743 
10.3515 10.4633 9.16254 9.31682 9.62531 9.98112 9.33411 7.33006 6.06748 
14.49 13.7332 15.3355 15.0453 12.9511 13.2555 12.8574 12.9955 14.094 
13.1766 13.7679 15.7804 13.4671 13.4671 12.6121 12.2029 13.747 14.1742 
15.8264 15.8264 15.4791 6.2375 8.34132 9.18107 15.7147 12.6081 16.3926 
14.3455 16.3995 13.6228 12.2333 9.09422 9.62819 9.62819 9.5449 10.0675 
10.7785 8.55038 8.49641 6.00448 6.4645 5.77722 5.42094 4.4858 4.4858 
6.23577 7.91318 7.49596 8.28851 6.0087 5.87289 9.00935 7.05693 7.05693 
6.03307 6.71242 9.02211 11.2365 12.0248 13.4308 11.9832 11.9832 12.818 
9.18837 8.41645 7.63626 6.95348 6.95348 4.57243 4.57243 5.74325 5.84069 
5.84069 4.90523 4.40974 4.40974 7.73849 8.19522 8.19522 4.69834 2.27613 
2.27613 2.84398 3.41302 3.82749 3.41659 3.62648 3.67385 4.04312 4.04312 
3.45489 3.68273 4.30812 3.74099 7.06394 9.57117 6.9202 10.4523 3.76678 
3.66557 5.5014 7.53496 8.45165 8.36928 8.8455 10.5751 10.3092 9.04898 
9.78827 14.2305 12.6406 11.6155 11.4383 3.73066 3.77872 3.01946 4.61582 
5.97704 7.2394 6.96391 6.78891 7.31923 8.13055 8.92292 8.16905 6.27479 
6.96633 5.6436 6.14654 6.27047 6.51703 6.38325 8.20134 9.2331 8.36319 
6.8168 4.11511 5.05029 2.3538 4.24975 
FIELD FieldData 7
DY_minmax 1 347 double
0.0815196 0.323748 0.259285 0.241474 0.0827937 0.258418 0.571999 0.176771 0.116744 
0.266705 0.308965 0.181826 0.265703 0.2284 0.428318 0.349231 0.708954 0.164893 
0.171333 0.0632952 0.182836 0.568273 0.151604 0.198418 0.289212 0.529675 0.271358 
0.43112 0.689151 0.389555 0.539399 0.340115 0.585387 0.262543 0.501423 0.283919 
0.511213 1 0.632564 0.357255 0 0.415785 0.528648 0.358416 0.469241 
0.552487 0.529941 0.455385 0.404098 0.362617 0.380963 0.383205 0.398242 0.438284 
0.485334 0.411677 0.411677 0.488052 0.522818 0.574491 0.685294 0.688833 0.688833 
0.476886 0.302169 0.345523 0.159393 0.549264 0.564604 0.5584 0.632564 0.684815 
0.443275 0.438659 0.326294 0.329424 0.464808 0.501757 0.526587 0.410365 0.414647 
0.48997 0.563509 0.619939 0.482761 0.431904 0.467142 0.490051 0.589056 0.480007 
0.487201 0.52144 0.593611 0.45528 0.42018 0.467038 0.401244 0.48666 0.538016 
0.475854 0.442806 0.384803 0.377081 0.396958 0.342457 0.38682 0.455881 0.48577 
0.450921 0.463563 0.443255 0.516407 0.37432 0.350329 0.410807 0.361516 0.259238 
0.262543 0.416026 0.509427 0.508435 0.547664 0.599933 0.382898 0.478262 0.44531 
0.432082 0.468455 0.61876 0.647143 0.537504 0.503466 0.493856 0.428532 0.334928 
0.30354 0.318942 0.340641 0.48437 0.521189 0.532659 0.505496 0.45299 0.42908 
0.474461 0.429713 0.354004 0.662973 0.237013 0.226422 0.227306 0.207357 0.198045 
0.276416 0.246966 0.319241 0.324667 0.341485 0.36639 0.367468 0.323956 0.244098 
0.204962 0.208518 0.189813 0.561906 0.523104 0.433103 0.330814 0.252938 0.268228 
0.215669 0.149943 0.149943 0.194545 0.244147 0.236282 0.152575 0.186475 0.172241 
0.28744 0.295583 0.235794 0.221124 0.221124 0.205602 0.670565 0.752602 0.897374 
0.814867 0.100754 0.183676 0.204697 0.220454 0.229048 0.563955 0.444799 0.345087 
0.305985 0.30929 0.270841 0.275401 0.28452 0.295038 0.275912 0.216673 0.179352 
0.428318 0.405949 0.453311 0.444731 0.382828 0.391828 0.38006 0.384143 0.416612 
0.389495 0.406974 0.466461 0.398082 0.398082 0.372809 0.360714 0.406356 0.418983 
0.467823 0.467823 0.457555 0.184378 0.246566 0.271388 0.464518 0.372689 0.484557 
0.424047 0.484762 0.402685 0.36161 0.268821 0.284605 0.284605 0.282143 0.297591 
0.318609 0.252745 0.25115 0.17749 0.191088 0.170772 0.160241 0.132598 0.132598 
0.184327 0.23391 0.221577 0.245005 0.177615 0.1736 0.266313 0.2086 0.2086 
0.178335 0.198416 0.26669 0.332146 0.355448 0.397008 0.35422 0.35422 0.378895 
0.271604 0.248787 0.225725 0.205542 0.205542 0.135159 0.135159 0.169768 0.172648 
0.172648 0.144997 0.13035 0.13035 0.228746 0.242247 0.242247 0.138881 0.0672814 
0.0672814 0.0840669 0.100888 0.113139 0.100993 0.107197 0.108597 0.119513 0.119513 
0.102125 0.10886 0.127346 0.110582 0.208807 0.28292 0.204558 0.308965 0.111344 
0.108353 0.162619 0.22273 0.249827 0.247392 0.261469 0.312596 0.304736 0.267484 
0.289337 0.420646 0.373652 0.343348 0.338112 0.110277 0.111697 0.0892539 0.136442 
0.176679 0.213994 0.20585 0.200677 0.216353 0.240335 0.263758 0.241474 0.18548 
0.205922 0.166822 0.181689 0.185352 0.19264 0.188686 0.242428 0.272926 0.247212 
0.201502 0.121641 0.149284 0.0695773 0.125621 
WidthEq 1 347 double
12.6441 23.7017 29.2854 27.7095 32.5751 26.9597 16.9715 19.6149 22.5728 
15.1497 16.5858 28.5198 7.6952 21.4708 17.0883 26.8907 22.7219 15.0797 
17.9221 16.1959 9.87013 31.2863 10.5659 11.0049 16.0128 17.8086 19.3844 
20.675 7.61175 15.8263 14.6439 21.7337 15.6108 16.0935 21.5326 14.202 
16.7748 1 3.04398 11.9999 3.91039 14.7981 8.19496 19.4075 16.1688 
15.893 13.7796 12.8083 13.3205 14.0218 15.4446 16.8399 19.3958 19.3483 
17.3989 16.1772 16.1772 20.0142 20.0261 19.4515 9.60295 9.45363 9.45363 
10.1977 9.12899 8.1803 5.19818 14.7834 14.7498 13.549 3.04398 2.12714 
17.0106 15.482 18.1283 23.1012 22.4981 19.2171 14.8161 13.8871 16.1625 
15.8738 15.8418 14.0441 13.8435 13.5867 13.5173 12.1809 12.6632 13.5048 
14.6627 16.672 18.6138 17.1548 16.1291 16.4729 17.2468 18.4879 14.2239 
13.8041 12.7983 11.3682 11.8895 12.5131 13.1425 13.9422 15.2226 17.1734 
17.2996 16.553 15.3495 13.4728 16.0456 16.9099 14.3499 14.6058 16.2907 
16.0935 17.6465 18.0998 13.7945 12.4496 13.086 13.6813 14.993 13.7015 
12.767 12.2837 10.3202 9.89319 12.3011 13.7063 15.4323 16.0707 12.6666 
9.70712 6.93433 7.66061 7.92739 8.0814 12.7254 15.7845 16.0017 19.8887 
16.3298 19.9983 23.2783 21.1968 15.9763 14.0564 12.5986 11.41 10.7748 
18.2426 15.7609 21.4927 21.902 22.0101 21.6047 22.0015 20.4709 21.9561 
25.8125 27.8205 12.217 31.3899 30.5086 28.7479 22.9068 22.3585 22.2125 
21.1278 18.9549 18.9549 17.0221 16.4526 14.9335 12.779 12.0664 11.0917 
9.90531 9.55741 12.0736 13.952 13.952 15.464 26.8898 23.5922 21.051 
21.8084 19.4249 21.7904 26.2921 28.9275 32.71 23.8299 26.3625 30.6957 
31.2246 31.9479 30.3355 30.5083 29.3227 25.5322 26.4803 26.3013 28.1682 
17.0883 18.3402 16.4187 17.3364 17.1523 17.0616 16.4115 16.3425 16.0288 
15.781 14.804 14.2722 13.6436 13.6436 12.7774 11.0678 11.9786 10.7533 
7.95378 7.95378 6.00811 6.78638 6.83465 8.93687 9.47142 11.1841 12.5923 
14.9308 15.3852 19.2633 21.6246 26.7313 19.2539 19.2539 16.1154 21.5029 
25.0043 22.6926 21.4138 18.7893 28.4848 27.3454 25.514 18.9732 18.9732 
15.8232 11.2117 10.8552 9.58556 7.19291 6.93355 7.69422 7.80934 7.80934 
7.57989 7.12411 7.09147 6.35073 6.25457 5.66237 5.41923 5.41923 5.46184 
6.65406 8.36695 10.6976 13.4321 13.4321 14.2528 14.2528 14.0112 12.0927 
12.0927 10.0607 8.5538 8.5538 7.68367 8.06811 8.06811 9.88009 11.0582 
11.0582 16.6492 16.2993 18.7877 23.0727 22.1068 24.8976 27.2983 27.2983 
25.4364 22.5702 20.2548 21.2965 18.2688 18.8734 19.8506 16.5858 24.7559 
29.7661 30.8122 29.951 27.5449 30.3742 28.6767 27.4833 28.59 20.1238 
23.2748 24.813 28.4084 29.5115 28.4727 33.155 31.2169 29.5848 25.2306 
24.8919 20.5348 19.2521 20.3877 19.1796 19.3074 22.4086 27.7095 27.5005 
27.6272 30.7463 30.3179 28.7889 29.0516 29.745 28.8124 25.9035 20.6273 
22.8304 23.2412 22.664 20.9109 20.3847 
rRFP 1 347 double
2900.7 3466.46 3752.15 3671.52 3920.47 3633.16 3122.11 3257.36 3408.7 
3028.9 3102.38 3712.98 2647.49 3352.32 3128.09 3629.63 3416.33 3025.32 
3170.75 3082.43 2758.77 3854.53 2794.37 2816.83 3073.06 3164.94 3245.57 
3311.6 2643.22 3063.52 3003.02 3365.77 3052.49 3077.19 3355.48 2980.41 
3112.05 2304.93 2409.51 2867.74 2453.84 3010.91 2673.06 3246.75 3081.04 
3066.93 2958.8 2909.1 2935.31 2971.19 3043.99 3115.38 3246.15 3243.72 
3143.98 3081.47 3081.47 3277.79 3278.4 3249 2745.1 2737.46 2737.46 
2775.53 2720.85 2672.31 2519.73 3010.16 3008.44 2947 2409.51 2362.6 
3124.11 3045.9 3181.3 3435.74 3404.88 3237.01 3011.83 2964.3 3080.72 
3065.95 3064.31 2972.33 2962.07 2948.93 2945.38 2877 2901.68 2944.74 
3003.98 3106.79 3206.14 3131.49 3079.01 3096.6 3136.2 3199.7 2981.53 
2960.05 2908.59 2835.42 2862.09 2894 2926.2 2967.12 3032.63 3132.44 
3138.9 3100.7 3039.12 2943.1 3074.74 3118.96 2987.98 3001.07 3087.28 
3077.19 3156.65 3179.84 2959.56 2890.75 2923.31 2953.77 3020.88 2954.8 
2906.99 2882.26 2781.8 2759.95 2883.15 2955.05 3043.36 3076.02 2901.85 
2750.43 2608.56 2645.72 2659.37 2667.25 2904.86 3061.38 3072.49 3271.37 
3089.28 3276.98 3444.8 3338.3 3071.19 2972.96 2898.37 2837.56 2805.06 
3187.15 3060.17 3353.44 3374.38 3379.91 3359.17 3379.47 3301.16 3377.15 
3574.46 3677.2 2878.85 3859.83 3814.74 3724.65 3425.79 3397.74 3390.27 
3334.77 3223.59 3223.59 3124.7 3095.56 3017.84 2907.6 2871.14 2821.27 
2760.57 2742.77 2871.51 2967.62 2967.62 3044.98 3629.58 3460.86 3330.84 
3369.59 3247.64 3368.67 3599 3733.84 3927.37 3473.02 3602.6 3824.31 
3851.37 3888.38 3805.88 3814.72 3754.06 3560.12 3608.63 3599.47 3694.99 
3128.09 3192.14 3093.83 3140.78 3131.36 3126.72 3093.46 3089.93 3073.88 
3061.2 3011.21 2984 2951.84 2951.84 2907.52 2820.05 2866.65 2803.96 
2660.72 2660.72 2561.17 2600.99 2603.46 2711.02 2738.37 2826 2898.05 
3017.7 3040.95 3239.37 3360.19 3621.47 3238.89 3238.89 3078.31 3353.96 
3533.11 3414.83 3349.4 3215.12 3711.19 3652.89 3559.19 3224.53 3224.53 
3063.36 2827.41 2809.17 2744.21 2621.79 2608.52 2647.44 2653.33 2653.33 
2641.59 2618.27 2616.6 2578.7 2573.78 2543.48 2531.04 2531.04 2533.22 
2594.22 2681.86 2801.11 2941.02 2941.02 2983.01 2983.01 2970.65 2872.49 
2872.49 2768.52 2691.42 2691.42 2646.9 2666.57 2666.57 2759.28 2819.56 
2819.56 3105.62 3087.72 3215.04 3434.28 3384.86 3527.65 3650.48 3650.48 
3555.22 3408.57 3290.1 3343.4 3188.49 3219.42 3269.42 3102.38 3520.4 
3776.75 3830.27 3786.21 3663.1 3807.86 3721.01 3659.95 3716.57 3283.4 
3444.62 3523.32 3707.28 3763.72 3710.57 3950.14 3850.98 3767.47 3544.69 
3527.36 3304.43 3238.8 3296.9 3235.09 3241.63 3400.3 3671.52 3660.83 
3667.31 3826.9 3804.98 3726.75 3740.19 3775.67 3727.95 3579.12 3309.16 
3421.88 3442.9 3413.37 3323.67 3296.75 
rGFP 1 347 double
2646.4 2871.12 2868.41 2837.89 2702.77 2847.22 2939.94 2728.83 2700.68 
2748.22 2784.89 2786.96 2680.7 2777.43 2859.14 2929.23 3156.49 2695.65 
2715.41 2646.21 2672.58 3213 2665.72 2685.4 2768.2 2930.64 2789.48 
2913.07 2788.99 2820.1 2878.75 2861.6 2920.68 2754.47 2976.79 2747.94 
2901.64 2645.36 2676.67 2756.56 2611.53 2819.68 2758.09 2846.85 2868.2 
2908.58 2858.57 2808.85 2793.63 2783.54 2810.58 2829.84 2872.84 2898.41 
2897.2 2836.83 2836.83 2941.98 2965.73 2989.57 2834.16 2831.83 2831.83 
2776.05 2704.85 2707.15 2639.56 2886.23 2893.26 2867.48 2676.67 2660.81 
2866.62 2841.28 2811.64 2868.98 2965.3 2937.73 2875.47 2804.32 2838.25 
2874.65 2913.53 2906.07 2837.62 2810.05 2825.15 2813.47 2863.88 2830.83 
2853.2 2905.63 2985.33 2875.75 2840.8 2871.8 2845.64 2915.91 2870.42 
2833.75 2803.25 2759.52 2763.2 2779.57 2763.79 2793.98 2846.3 2893.75 
2875.43 2871.12 2841.7 2846.9 2814.72 2811.94 2810.96 2790.16 2754.4 
2754.47 2859.89 2923.46 2848.8 2842.19 2877.12 2788.75 2854.11 2817.94 
2798.15 2806.2 2827.56 2828.12 2835.21 2844.98 2869.36 2844.51 2755.05 
2711.21 2686.35 2699.81 2741.43 2754.02 2840.84 2881.46 2856.75 2900.23 
2873.64 2902.25 2890.31 3086.94 2739.63 2719.2 2708.41 2691.57 2683.72 
2782.12 2743.21 2843.65 2852.09 2865.8 2879.32 2885.04 2835.88 2792.84 
2790.51 2807.78 2689.98 3208.23 3151.43 3032.74 2867.89 2802.85 2813.09 
2765.68 2707.68 2707.68 2723.56 2747.42 2730.9 2677.49 2687.65 2676.16 
2707.85 2707.1 2707.84 2715.9 2715.9 2719.09 3221.53 3212.2 3250.6 
3212.72 2677.74 2746.93 2793.6 2827.27 2864.99 3066.17 3008.22 2969.88 
2934.75 2945.81 2889.48 2895.77 2893.77 2866.37 2858.7 2804.32 2782.44 
2859.14 2863.4 2863.32 2872.36 2833.67 2837.69 2822.54 2823.91 2837.44 
2819.47 2815.35 2836.75 2795.27 2795.27 2772.68 2746.59 2776.2 2763.95 
2737.41 2737.41 2704.53 2653.86 2668.54 2693.58 2760.37 2752.54 2817.95 
2825.72 2863.84 2873.95 2876.07 2854.63 2796.91 2796.91 2765.35 2828.01 
2881.04 2805.56 2793.47 2724.35 2795.67 2769.51 2749.84 2696.64 2696.64 
2710.2 2700.25 2692.9 2690.98 2654.75 2652.25 2680.85 2666.64 2666.64 
2657.26 2659.35 2675.51 2682.89 2686.74 2687.58 2676.47 2676.47 2681.54 
2672.67 2681.95 2693.22 2704.93 2704.93 2676.7 2676.7 2692 2682.16 
2682.16 2660.88 2649.25 2649.25 2670.99 2677.65 2677.65 2657.95 2636.7 
2636.7 2658.88 2667.16 2683.44 2690.36 2691.7 2703 2721.9 2721.9 
2699.41 2694.65 2698.79 2691.2 2740.58 2792.17 2748.9 2784.89 2704.78 
2720.64 2781.04 2837.21 2844.33 2865.74 2865.19 2902.17 2906.27 2793.63 
2839.35 2964.63 2970.63 2954.32 2937.21 2735.22 2729.49 2700.86 2727.99 
2760.31 2760.19 2745.6 2749.94 2751.91 2768.51 2811.48 2837.89 2784.09 
2803.99 2785.05 2797.88 2792.05 2800.86 2801.4 2847.83 2850.7 2784.04 
2767.16 2707.17 2725.99 2660.75 2698.16 
bkstRFP 1 347 double
646.935 1212.7 1498.39 1417.76 1666.7 1379.4 868.345 1003.6 1154.93 
775.135 848.615 1459.22 393.725 1098.56 874.325 1375.87 1162.57 771.555 
916.985 828.665 505.005 1600.77 540.605 563.065 819.295 911.175 991.805 
1057.84 389.455 809.755 749.255 1112.01 798.725 823.425 1101.72 726.645 
858.285 51.165 155.745 613.975 200.075 757.145 419.295 992.985 827.275 
813.165 705.035 655.335 681.545 717.425 790.225 861.615 992.385 989.955 
890.215 827.705 827.705 1024.03 1024.64 995.235 491.335 483.695 483.695 
521.765 467.085 418.545 265.965 756.395 754.675 693.235 155.745 108.835 
870.345 792.135 927.535 1181.97 1151.12 983.245 758.065 710.535 826.955 
812.185 810.545 718.565 708.305 695.165 691.615 623.235 647.915 690.975 
750.215 853.025 952.375 877.725 825.245 842.835 882.435 945.935 727.765 
706.285 654.825 581.655 608.325 640.235 672.435 713.355 778.865 878.675 
885.135 846.935 785.355 689.335 820.975 865.195 734.215 747.305 833.515 
823.425 902.885 926.075 705.795 636.985 669.545 700.005 767.115 701.035 
653.225 628.495 528.035 506.185 629.385 701.285 789.595 822.255 648.085 
496.665 354.795 391.955 405.605 413.485 651.095 807.615 818.725 1017.61 
835.515 1023.22 1191.04 1084.54 817.425 719.195 644.605 583.795 551.295 
933.385 806.405 1099.68 1120.62 1126.15 1105.41 1125.7 1047.4 1123.39 
1320.7 1423.43 625.085 1606.07 1560.97 1470.89 1172.03 1143.97 1136.51 
1081.01 969.825 969.825 870.935 841.795 764.075 653.835 617.375 567.505 
506.805 489.005 617.745 713.855 713.855 791.215 1375.82 1207.1 1077.08 
1115.83 993.875 1114.91 1345.24 1480.08 1673.61 1219.26 1348.84 1570.55 
1597.61 1634.62 1552.12 1560.95 1500.3 1306.36 1354.87 1345.7 1441.22 
874.325 938.375 840.065 887.015 877.595 872.955 839.695 836.165 820.115 
807.435 757.445 730.235 698.075 698.075 653.755 566.285 612.885 550.195 
406.955 406.955 307.405 347.225 349.695 457.255 484.605 572.235 644.285 
763.935 787.185 985.605 1106.43 1367.7 985.125 985.125 824.545 1100.2 
1279.35 1161.07 1095.64 961.355 1457.43 1399.13 1305.43 970.765 970.765 
809.595 573.645 555.405 490.445 368.025 354.755 393.675 399.565 399.565 
387.825 364.505 362.835 324.935 320.015 289.715 277.275 277.275 279.455 
340.455 428.095 547.345 687.255 687.255 729.245 729.245 716.885 618.725 
618.725 514.755 437.655 437.655 393.135 412.805 412.805 505.515 565.795 
565.795 851.855 833.955 961.275 1180.52 1131.1 1273.89 1396.72 1396.72 
1301.45 1154.81 1036.34 1089.64 934.725 965.655 1015.66 848.615 1266.64 
1522.99 1576.51 1532.45 1409.34 1554.1 1467.25 1406.18 1462.81 1029.64 
1190.86 1269.56 1453.52 1509.95 1456.81 1696.38 1597.22 1513.7 1290.93 
1273.6 1050.67 985.035 1043.14 981.325 987.865 1146.54 1417.76 1407.07 
1413.55 1573.14 1551.22 1472.99 1486.43 1521.91 1474.18 1325.36 1055.4 
1168.12 1189.14 1159.61 1069.91 1042.99 
bkstGFP 1 347 double
34.87 259.59 256.88 226.36 91.24 235.69 328.41 117.3 89.15 
136.69 173.36 175.43 69.17 165.9 247.61 317.7 544.96 84.12 
103.88 34.68 61.05 601.47 54.19 73.87 156.67 319.11 177.95 
301.54 177.46 208.57 267.22 250.07 309.15 142.94 365.26 136.41 
290.11 33.83 65.14 145.03 0 208.15 146.56 235.32 256.67 
297.05 247.04 197.32 182.1 172.01 199.05 218.31 261.31 286.88 
285.67 225.3 225.3 330.45 354.2 378.04 222.63 220.3 220.3 
164.52 93.32 95.62 28.03 274.7 281.73 255.95 65.14 49.28 
255.09 229.75 200.11 257.45 353.77 326.2 263.94 192.79 226.72 
263.12 302 294.54 226.09 198.52 213.62 201.94 252.35 219.3 
241.67 294.1 373.8 264.22 229.27 260.27 234.11 304.38 258.89 
222.22 191.72 147.99 151.67 168.04 152.26 182.45 234.77 282.22 
263.9 259.59 230.17 235.37 203.19 200.41 199.43 178.63 142.87 
142.94 248.36 311.93 237.27 230.66 265.59 177.22 242.58 206.41 
186.62 194.67 216.03 216.59 223.68 233.45 257.83 232.98 143.52 
99.68 74.82 88.28 129.9 142.49 229.31 269.93 245.22 288.7 
262.11 290.72 278.78 475.41 128.1 107.67 96.88 80.04 72.19 
170.59 131.68 232.12 240.56 254.27 267.79 273.51 224.35 181.31 
178.98 196.25 78.45 596.7 539.9 421.21 256.36 191.32 201.56 
154.15 96.15 96.15 112.03 135.89 119.37 65.96 76.12 64.63 
96.32 95.57 96.31 104.37 104.37 107.56 610 600.67 639.07 
601.19 66.21 135.4 182.07 215.74 253.46 454.64 396.69 358.35 
323.22 334.28 277.95 284.24 282.24 254.84 247.17 192.79 170.91 
247.61 251.87 251.79 260.83 222.14 226.16 211.01 212.38 225.91 
207.94 203.82 225.22 183.74 183.74 161.15 135.06 164.67 152.42 
125.88 125.88 93 42.33 57.01 82.05 148.84 141.01 206.42 
214.19 252.31 262.42 264.54 243.1 185.38 185.38 153.82 216.48 
269.51 194.03 181.94 112.82 184.14 157.98 138.31 85.11 85.11 
98.67 88.72 81.37 79.45 43.22 40.72 69.32 55.11 55.11 
45.73 47.82 63.98 71.36 75.21 76.05 64.94 64.94 70.01 
61.14 70.42 81.69 93.4 93.4 65.17 65.17 80.47 70.63 