# vtk DataFile Version 3.0
vtk output
ASCII
DATASET POLYDATA
POINTS 265 float
0.862172 -0.906404 1.50878 0.844327 -0.444967 1.32862 2.15487 0.780564 1.5169 
2.42223 -0.518805 1.07646 3.01084 -0.300806 0.541046 2.95083 -0.699967 0.247237 
0.777286 1.56484 -0.490048 0.71204 1.91074 -0.378745 0.785801 2.0633 -0.162832 
3.08136 -0.984024 -0.290557 1.18088 -0.384088 -0.446276 3.88879 0.45107 -0.342191 
4.23413 -0.262265 -0.544909 0.819095 1.83171 -0.975778 1.29369 0.441602 -1.40048 
1.2122 0.622389 -1.39951 1.02965 1.73384 -1.42952 3.78718 0.0255775 -1.47965 
1.59718 0.912504 -1.8171 1.82476 1.43556 -1.70202 1.83905 0.329648 -2.07711 
1.76357 1.29201 -1.91627 3.24517 -0.281591 -2.05064 1.75915 0.136877 -2.17489 
2.50736 0.190351 -2.30048 2.19209 0.299368 -2.32585 2.08399 0.507573 -2.39318 
2.56215 0.416833 -2.48516 3.21391 -0.459687 -2.66605 3.1679 -0.408842 -2.47428 
3.16034 -0.36305 -2.30138 3.19457 -0.321906 -2.16188 2.54684 0.359395 -2.42242 
2.53224 0.302321 -2.36705 2.51908 0.245972 -2.3264 2.15313 0.428829 -2.41764 
2.19086 0.360657 -2.39497 2.06744 0.590254 -2.35842 2.04238 0.658056 -2.33517 
2.02366 0.717023 -2.31669 1.98759 0.775295 -2.2925 1.93805 0.824147 -2.25021 
1.88161 0.853827 -2.18967 1.81819 0.877535 -2.10029 1.72798 0.88043 -1.97482 
1.99708 0.45744 -2.28987 1.91944 0.413461 -2.18337 2.23083 0.232995 -2.25828 
2.27161 0.171062 -2.2052 2.31881 0.132269 -2.18016 2.37742 0.139128 -2.19646 
2.44029 0.155911 -2.24166 2.11599 0.262115 -2.17118 2.04787 0.251744 -2.05613 
1.98632 0.258069 -2.00518 1.92146 0.280837 -2.02082 2.55549 0.141154 -2.30567 
2.6075 0.107614 -2.32461 2.66083 0.0700724 -2.36597 2.71603 0.0398868 -2.41424 
2.76967 0.00424616 -2.45547 2.8236 -0.0175539 -2.47365 2.87539 -0.040346 -2.46972 
2.92288 -0.0773463 -2.44456 2.97067 -0.100408 -2.39633 3.01936 -0.113994 -2.34009 
3.06904 -0.125533 -2.29111 3.11986 -0.138137 -2.25697 3.16804 -0.162845 -2.21623 
3.20899 -0.215675 -2.14779 1.76608 0.190201 -2.12688 1.78774 0.251679 -2.09491 
3.30869 -0.248762 -2.07263 3.36719 -0.230495 -2.06602 3.42453 -0.199143 -2.02162 
3.48032 -0.161189 -1.94725 3.53335 -0.132008 -1.85867 3.58326 -0.118003 -1.7637 
3.63671 -0.0885993 -1.67879 3.69335 -0.0497671 -1.60429 3.75092 -0.0126418 -1.54096 
1.80707 1.3731 -1.80371 1.86552 1.2668 -2.03425 1.93732 1.2204 -2.14131 
1.99305 1.16477 -2.22059 2.04562 1.11784 -2.26993 2.09955 1.09604 -2.2881 
2.15396 1.08525 -2.29078 2.20794 1.07589 -2.28598 2.26237 1.06521 -2.28865 
2.31663 1.04542 -2.30669 2.37062 1.0119 -2.34779 2.42734 0.995099 -2.3878 
2.48512 0.996886 -2.40443 2.54133 1.01322 -2.37579 2.59298 1.01374 -2.32602 
2.64331 1.00622 -2.27677 2.69711 1.00784 -2.24909 2.75477 1.025 -2.23517 
2.81071 1.0276 -2.22959 2.86504 1.02036 -2.22464 2.91906 1.01122 -2.21983 
2.97277 1.00018 -2.21514 3.02417 0.979031 -2.20371 3.072 0.94405 -2.17842 
3.12169 0.932619 -2.12944 3.17442 0.943783 -2.07158 3.2241 0.932254 -2.0226 
3.27087 0.89489 -1.99007 3.31787 0.858905 -1.95746 3.36067 0.805264 -1.91123 
3.40112 0.741311 -1.85827 3.442 0.675929 -1.81281 3.48419 0.611185 -1.78208 
3.52459 0.546743 -1.75151 3.55374 0.483234 -1.7071 3.56657 0.421519 -1.64928 
3.59357 0.35692 -1.58277 3.63038 0.290661 -1.51538 3.6701 0.224587 -1.45889 
3.71294 0.158801 -1.42815 3.75928 0.0909697 -1.43816 1.67008 1.28433 -1.95557 
1.60533 1.30937 -1.9681 1.54977 1.32976 -1.9576 1.49642 1.35174 -1.94682 
1.44535 1.38702 -1.93515 1.39071 1.40846 -1.90962 1.33278 1.42999 -1.84715 
1.27605 1.47493 -1.75359 1.22067 1.53131 -1.65437 1.16589 1.59117 -1.56983 
1.1052 1.65693 -1.49798 1.74634 1.1998 -1.9225 1.72118 1.13391 -1.92323 
1.67208 1.08079 -1.91078 1.62242 1.01415 -1.87419 1.73951 0.348664 -1.99795 
1.66344 0.35844 -1.91249 1.59889 0.365719 -1.82603 1.53763 0.38206 -1.73731 
1.48007 0.413874 -1.65938 1.42007 0.430758 -1.58243 1.35774 0.43744 -1.49876 
1.48329 0.880588 -1.79749 1.41338 0.837151 -1.77664 1.38235 0.784493 -1.74252 
1.35022 0.729274 -1.67138 1.28876 0.675767 -1.55334 0.960151 1.80249 -1.2963 
0.890241 1.82752 -1.1454 0.962212 1.65906 -1.15042 0.875655 1.60162 -0.837555 
1.24376 0.561383 -1.39944 1.26213 0.502608 -1.40055 1.15271 0.641872 -1.30003 
1.10851 0.685171 -1.21278 1.08361 0.737652 -1.13066 1.05393 0.792893 -1.04885 
1.02864 0.84702 -0.959234 0.988934 0.905041 -0.893176 0.944791 0.966237 -0.864654 
0.914877 1.02793 -0.879424 0.912064 1.08553 -0.899219 0.916907 1.14038 -0.89604 
0.909165 1.19541 -0.864272 0.876022 1.25426 -0.827339 0.84146 1.31378 -0.794244 
0.820177 1.37309 -0.741224 0.792083 1.45034 -0.639556 1.23075 0.38592 -1.24544 
1.19536 0.327515 -1.11764 1.17455 0.268583 -1.01826 1.15816 0.209386 -0.925903 
1.15097 0.148148 -0.825308 1.15937 0.0847568 -0.730744 1.15577 0.0253377 -0.666971 
1.14605 -0.0306226 -0.640874 1.13837 -0.085475 -0.636875 1.13862 -0.141667 -0.63217 
1.1426 -0.199461 -0.612281 1.11658 -0.253521 -0.572782 1.10694 -0.308886 -0.524285 
1.13452 -0.3581 -0.47932 0.757756 1.77165 -0.802163 0.741118 1.68918 -0.640193 
0.757185 1.87523 -0.681603 4.23724 -0.211004 -0.482463 4.24239 -0.158635 -0.442116 
4.24863 -0.10451 -0.431392 4.24638 -0.0479794 -0.436266 4.22664 0.0110267 -0.435279 
4.20934 0.0691349 -0.426654 4.17671 0.130808 -0.434237 4.13629 0.195142 -0.46481 
4.09451 0.258349 -0.503025 4.04886 0.310646 -0.519804 3.99718 0.346204 -0.500727 
3.94362 0.394494 -0.436509 0.742405 2.00245 -0.274384 0.776025 1.80695 -0.29193 
0.802115 1.73144 -0.27076 0.812073 1.65834 -0.344185 3.11707 -0.940706 -0.188064 
3.11813 -0.89035 -0.105996 3.08046 -0.832794 -0.0273475 3.02212 -0.770339 0.0892713 
0.631802 1.85922 -0.0910476 0.562003 1.81289 0.168107 0.524338 1.77844 0.393732 
0.512014 1.7381 0.59173 0.533356 1.71263 0.771393 0.57262 1.7064 0.923947 
0.619365 1.71792 1.0483 0.666395 1.71436 1.14213 0.712639 1.6939 1.21269 
0.759619 1.66587 1.2606 0.812005 1.65881 1.28771 0.861841 1.63212 1.30615 
0.912081 1.61194 1.33242 0.962236 1.59929 1.37393 1.01294 1.59002 1.41568 
1.06642 1.58963 1.44323 1.12216 1.59504 1.45639 1.17374 1.57098 1.46023 
1.22614 1.5519 1.4644 1.27953 1.53895 1.46896 1.33131 1.51605 1.47288 
1.37905 1.46851 1.47519 1.42678 1.42086 1.4775 1.47826 1.39617 1.4813 
1.53003 1.37327 1.48522 1.57966 1.33726 1.48828 1.63144 1.31436 1.4922 
1.68218 1.28919 1.50336 1.72816 1.23891 1.52026 1.77183 1.17853 1.54389 
1.81855 1.12872 1.55344 1.87102 1.10608 1.54999 1.92654 1.09401 1.53245 
1.97902 1.07138 1.529 2.02571 1.02145 1.53854 2.06895 0.959081 1.56203 
2.11142 0.895855 1.57051 2.14441 0.835576 1.55585 2.97079 -0.62395 0.29268 
2.96965 -0.561649 0.340348 2.94836 -0.504076 0.388313 2.94361 -0.450122 0.430248 
2.9594 -0.399067 0.464114 2.99196 -0.350853 0.499475 2.85419 -0.70504 0.396534 
2.77864 -0.69397 0.531292 2.71683 -0.662282 0.641084 2.6563 -0.634779 0.743341 
2.59792 -0.59989 0.836244 2.53842 -0.571885 0.928687 2.48119 -0.538062 1.00675 
0.870801 -0.507052 1.35794 0.869458 -0.565399 1.39964 0.847879 -0.620808 1.44697 
0.821844 -0.674977 1.48646 0.837427 -0.734734 1.50738 0.864257 -0.795426 1.51446 
0.868911 -0.851879 1.51213 
LINES 30 327
5 28 29 30 31 22 
5 27 32 33 34 24 
4 26 35 36 25 
10 26 37 38 39 40 41 42 43 44 18 
4 26 45 46 20 
7 25 47 48 49 50 51 24 
6 25 52 53 54 55 20 
16 24 56 57 58 59 60 61 62 63 64 65 66 67 68 69 22 
4 23 70 71 20 
3 21 81 19 
13 21 122 123 124 125 126 127 128 129 130 131 132 16 
6 21 133 134 135 136 18 
9 20 137 138 139 140 141 142 143 14 
7 18 144 145 146 147 148 15 
4 16 149 150 13 
4 16 151 152 6 
4 15 153 154 14 
17 15 155 156 157 158 159 160 161 162 163 164 165 166 167 168 169 6 
16 14 170 171 172 173 174 175 176 177 178 179 180 181 182 183 10 
4 13 184 185 6 
3 13 186 7 
14 12 187 188 189 190 191 192 193 194 195 196 197 198 11 
3 7 199 8 
5 7 200 201 202 6 
6 9 203 204 205 206 5 
40 7 207 208 209 210 211 212 213 214 215 216 217 218 219 220 221 222 223 224 225 226 227 228 229 230 231 232 233 234 235 236 237 238 239 240 241 242 243 244 2 
8 5 245 246 247 248 249 250 4 
9 5 251 252 253 254 255 256 257 3 
9 1 258 259 260 261 262 263 264 0 
52 22 72 73 74 75 76 77 78 79 80 17 121 120 119 118 117 116 115 114 113 112 111 110 109 108 107 106 105 104 103 102 101 100 99 98 97 96 95 94 93 92 91 90 89 88 87 86 85 84 83 82 21 

POINT_DATA 265
SCALARS DY_raw double
LOOKUP_TABLE default
126.436 38.6019 35.926 93.4864 55.0999 37.3626 46.3405 43.1891 41.5513 
72.4264 71.0505 96.3614 142.821 51.1633 45.7843 38.0449 33.6455 41.1444 
50.549 85.2402 54.9088 50.0051 99.3513 69.3117 60.6277 60.7349 47.9079 
65.1178 341.82 162.978 155.444 122.593 74.5946 67.6559 62.9607 51.518 
58.9717 51.7734 54.9479 60.8814 61.531 60.6879 58.4833 55.8583 53.7139 
50.835 50.3789 61.0291 52.1847 52.3152 52.3152 57.0712 65.0859 67.1498 
69.4771 63.9595 69.9896 77.0839 75.2183 69.529 69.7243 66.6886 73.3098 
74.4991 74.4991 67.3672 81.936 81.4694 61.63 91.4699 61.7865 58.6117 
76.2773 67.1177 50.1667 53.9278 54.6948 61.0024 56.9775 50.8239 41.8345 
60.5377 45.1637 49.9516 62.2536 73.7205 81.6728 93.1187 99.4282 102.935 
95.2031 90.7594 80.6227 71.1097 75.1863 64.8424 61.7492 69.3633 64.3867 
64.3867 71.1705 74.9295 74.9295 72.3912 68.9739 74.4977 66.2939 71.9649 
74.7099 70.7978 81.0371 87.7009 81.8043 86.8197 75.046 88.6118 88.9303 
108.309 103.936 87.3473 59.5621 45.4263 42.889 45.3769 48.6216 47.616 
48.7802 45.2112 41.8438 40.7979 37.3565 38.418 36.2636 52.5308 55.5425 
54.4034 50.9157 55.0429 68.0572 67.6427 68.3321 69.5719 69.4149 66.232 
48.2401 54.4335 54.4185 53.0842 40.6842 35.2548 39.3718 38.544 37.8385 
37.7422 40.1599 43.5681 45.3966 50.7554 49.2893 65.9197 56.6944 50.5028 
54.0379 45.0678 50.2529 49.9727 55.8766 50.4658 52.3916 42.9188 54.6959 
62.7756 72.4353 79.3203 88.6581 80.908 77.109 71.1724 66.2373 68.3706 
68.3706 69.8578 73.5756 71.0505 54.2465 55.1138 49.5327 122.609 141.83 
96.9498 88.5033 88.5033 76.7808 81.1741 73.6293 69.5245 63.5696 63.9121 
84.3903 39.8896 39.0436 38.4685 39.9908 74.2955 50.1031 45.6295 45.6509 
63.7177 46.9288 47.9229 45.3064 35.1653 40.0352 48.6538 46.7888 43.6834 
45.746 39.3332 40.2368 46.7973 66.4761 66.4761 68.0722 63.8318 63.8318 
55.836 52.7345 52.7345 50.346 62.5879 62.5879 61.3893 61.3893 55.7405 
42.6667 44.4597 43.2705 43.6877 43.6877 33.866 33.84 39.4698 41.5643 
37.1261 35.926 34.9044 35.2971 38.6146 45.0809 49.2795 52.533 43.8725 
48.5239 53.7013 52.3756 55.0901 57.1881 68.9971 32.995 33.2599 38.8221 
49.0198 42.2465 80.8312 169.107 
FIELD FieldData 7
DY_minmax 1 265 double
0.302568 0.0181558 0.00949086 0.195876 0.0715774 0.0141426 0.0432138 0.0330095 0.0277061 
0.127682 0.123227 0.205186 0.355627 0.0588306 0.0414127 0.016352 0.00210653 0.0263884 
0.0568414 0.169174 0.0709587 0.0550801 0.214867 0.117596 0.089477 0.089824 0.0482893 
0.104016 1 0.420895 0.396499 0.290125 0.134703 0.112235 0.0970314 0.0599791 
0.0841148 0.0608059 0.0710853 0.0902985 0.0924019 0.089672 0.0825331 0.0740333 0.0670894 
0.0577674 0.0562906 0.0907769 0.0621378 0.0625604 0.0625604 0.0779609 0.103913 0.110596 
0.118132 0.100266 0.119792 0.142763 0.136723 0.1183 0.118932 0.109103 0.130543 
0.134394 0.134394 0.1113 0.158475 0.156964 0.0927224 0.189347 0.0932293 0.0829491 
0.140152 0.110492 0.0556036 0.0677821 0.0702659 0.0906904 0.0776575 0.0577316 0.0286231 
0.0891857 0.0394034 0.0549068 0.0947419 0.131873 0.157623 0.194685 0.215116 0.226471 
0.201435 0.187046 0.154222 0.123419 0.136619 0.103124 0.0931085 0.117763 0.101649 
0.101649 0.123615 0.135787 0.135787 0.127568 0.116503 0.134389 0.107825 0.126188 
0.135076 0.122409 0.155564 0.177142 0.158049 0.174289 0.136165 0.180092 0.181123 
0.243873 0.229713 0.175997 0.0860263 0.0402536 0.0320377 0.0400937 0.0506002 0.0473441 
0.0511137 0.0395572 0.0286532 0.0252665 0.0141228 0.0175602 0.0105842 0.0632586 0.0730106 
0.0693222 0.0580286 0.0713929 0.113534 0.112192 0.114425 0.118439 0.11793 0.107624 
0.0493648 0.0694198 0.0693711 0.0650504 0.0248984 0.00731759 0.0206487 0.0179681 0.0156838 
0.0153719 0.0232005 0.0342367 0.0401576 0.0575096 0.0527624 0.106613 0.0767408 0.0566918 
0.0681387 0.0390928 0.0558825 0.0549752 0.0740924 0.056572 0.0628077 0.0321342 0.0702694 
0.0964321 0.127711 0.150005 0.180242 0.155146 0.142845 0.123622 0.107641 0.114549 
0.114549 0.119365 0.131403 0.123227 0.0688142 0.0716226 0.0535506 0.290177 0.352416 
0.207091 0.17974 0.17974 0.141782 0.156008 0.131577 0.118286 0.0990032 0.100112 
0.166422 0.0223253 0.0195858 0.0177236 0.0226531 0.133734 0.0553974 0.0409118 0.0409808 
0.0994827 0.045119 0.0483378 0.0398652 0.00702765 0.0227969 0.0507044 0.0446654 0.03461 
0.0412888 0.0205238 0.0234496 0.0446931 0.108415 0.108415 0.113583 0.0998523 0.0998523 
0.0739611 0.0639183 0.0639183 0.0561839 0.0958242 0.0958242 0.091943 0.091943 0.0736518 
0.0313179 0.0371238 0.0332731 0.034624 0.034624 0.00282034 0.00273622 0.0209661 0.0277481 
0.013377 0.00949086 0.0061828 0.00745461 0.0181967 0.0391352 0.0527307 0.0632656 0.0352223 
0.0502839 0.0670488 0.062756 0.0715459 0.0783393 0.116578 0 0.000857753 0.0188688 
0.0518896 0.0299572 0.154897 0.440743 
WidthEq 1 265 double
1.65784 5.8624 7.43056 4.76722 6.84593 13.8922 15.8268 13.7657 13.0148 
7.476 6.83387 4.11274 3.26471 11.9824 14.5644 15.5025 16.4313 11.5552 
11.5611 3.75844 11.211 9.71041 6.6605 6.97357 10.4698 9.96709 10.0566 
6.66499 1 2.86523 3.18784 4.74506 5.88568 7.45272 10.2089 9.95166 
9.55051 9.62232 8.91062 8.45168 8.21407 8.54453 8.94906 9.65515 10.024 
9.82178 10.0743 9.72191 12.2728 12.9968 12.9968 12.2293 8.60709 8.23651 
8.36808 9.60858 10.5904 9.31038 9.51657 8.47272 7.73633 7.88501 7.32003 
7.18425 7.18425 7.61542 6.89867 7.13937 9.3547 6.85351 9.18161 10.2445 
9.05145 9.94521 11.6127 11.0095 10.1194 9.08259 9.62906 10.2361 11.2732 
6.73877 9.75473 8.69882 6.60748 5.86689 5.47808 4.69176 4.64687 4.47575 
5.13303 5.3308 6.22232 6.80413 6.7096 8.12879 8.17031 7.80226 8.31787 
8.31787 7.48301 7.23867 7.23867 7.48834 7.51443 7.26532 7.40867 6.9848 
6.38082 6.92083 6.57859 6.40073 6.30199 6.1592 6.61674 5.41327 5.54288 
4.72093 5.32827 6.46946 8.94345 11.0614 10.2089 9.68797 9.40323 9.42792 
9.10924 9.78784 11.7033 13.1323 13.4622 13.7363 14.9406 9.59932 8.65338 
9.27166 10.5938 10.9798 9.77016 10.2962 10.228 9.53115 9.13392 10.4552 
12.4857 11.427 10.9806 10.8466 12.8251 15.3426 14.756 16.3595 15.9539 
15.9092 16.006 14.3633 11.9782 9.70873 9.96261 8.40932 11.965 14.1745 
13.6227 16.828 15.6049 15.4927 12.9213 13.564 13.143 15.7255 10.5593 
9.01274 7.19856 6.7772 6.31854 6.68772 7.05352 7.84714 9.14711 9.07642 
9.07642 8.581 7.91363 6.83387 11.7773 11.9025 13.6704 4.5672 4.13827 
6.60889 7.05409 7.05409 6.79376 6.42767 6.24588 6.51828 6.91242 6.84565 
5.35464 15.0152 15.9081 14.9047 15.5401 8.04463 12.8868 13.4187 12.3715 
9.15805 12.9104 12.994 12.9598 15.1479 13.7352 12.0363 10.2841 9.62036 
9.10419 8.83909 8.09036 7.30768 5.26039 5.26039 5.02951 5.0326 5.0326 
5.92664 6.20352 6.20352 5.75299 4.81547 4.81547 4.92431 4.92431 5.0152 
5.81976 5.74318 6.66135 7.10795 7.10795 8.65618 8.68115 8.4082 8.43849 
8.86546 7.43056 13.5694 12.5679 11.0976 9.56369 8.19752 7.91503 11.5972 
10.9602 10.6996 10.5629 9.32889 9.22622 8.15628 8.70163 9.11008 8.94232 
6.87763 7.46618 3.30454 1.35795 
rRFP 1 265 double
2295.23 2445.11 2501.01 2406.07 2480.17 2731.35 2800.31 2726.84 2700.07 
2502.63 2479.74 2382.74 2352.51 2663.27 2755.31 2788.75 2821.86 2648.04 
2648.25 2370.11 2635.77 2582.28 2473.56 2484.72 2609.35 2591.43 2594.62 
2473.72 2271.78 2338.27 2349.77 2405.28 2445.94 2501.8 2600.05 2590.88 
2576.58 2579.14 2553.77 2537.41 2528.94 2540.72 2555.14 2580.31 2593.46 
2586.25 2595.25 2582.69 2673.62 2699.43 2699.43 2672.07 2542.95 2529.74 
2534.43 2578.65 2613.65 2568.02 2575.37 2538.16 2511.91 2517.21 2497.07 
2492.23 2492.23 2507.6 2482.05 2490.63 2569.6 2480.44 2563.43 2601.32 
2558.79 2590.65 2650.09 2628.59 2596.86 2559.9 2579.38 2601.02 2637.99 
2476.35 2583.86 2546.22 2471.67 2445.27 2431.41 2403.38 2401.78 2395.68 
2419.11 2426.16 2457.94 2478.68 2475.31 2525.9 2527.38 2514.26 2532.64 
2532.64 2502.88 2494.17 2494.17 2503.07 2504 2495.12 2500.23 2485.12 
2463.59 2482.84 2470.64 2464.3 2460.78 2455.69 2472 2429.1 2433.72 
2404.42 2426.07 2466.75 2554.94 2630.44 2600.05 2581.48 2571.33 2572.21 
2560.85 2585.04 2653.32 2704.26 2716.02 2725.79 2768.72 2578.32 2544.6 
2566.64 2613.77 2627.53 2584.41 2603.16 2600.73 2575.89 2561.73 2608.83 
2681.21 2643.47 2627.56 2622.78 2693.31 2783.05 2762.14 2819.3 2804.84 
2803.25 2806.7 2748.14 2663.12 2582.22 2591.27 2535.9 2662.65 2741.41 
2721.74 2836 2792.4 2788.4 2696.74 2719.65 2704.64 2796.7 2612.54 
2557.41 2492.74 2477.72 2461.37 2474.53 2487.57 2515.86 2562.2 2559.68 
2559.68 2542.02 2518.23 2479.74 2655.96 2660.42 2723.44 2398.94 2383.65 
2471.72 2487.59 2487.59 2478.31 2465.26 2458.78 2468.49 2482.54 2480.16 
2427.01 2771.38 2803.21 2767.44 2790.09 2522.9 2695.51 2714.47 2677.14 
2562.59 2696.35 2699.33 2698.11 2776.11 2725.75 2665.19 2602.73 2579.07 
2560.67 2551.22 2524.53 2496.63 2423.65 2423.65 2415.42 2415.53 2415.53 
2447.4 2457.27 2457.27 2441.21 2407.79 2407.79 2411.67 2411.67 2414.91 
2443.59 2440.86 2473.59 2489.51 2489.51 2544.7 2545.59 2535.86 2536.94 
2552.16 2501.01 2719.84 2684.14 2631.73 2577.05 2528.35 2518.28 2649.54 
2626.83 2617.54 2612.67 2568.68 2565.02 2526.88 2546.32 2560.88 2554.9 
2481.3 2502.28 2353.93 2284.54 
rGFP 1 265 double
2547.62 2564.31 2604.96 2783.68 2715.22 2857.06 3071.43 2932.54 2878.79 
2879.47 2823.56 2734.32 2804.28 2951.07 3004.83 2927.8 2890.85 2813.44 
2922.41 2658.38 2953.59 2823.58 2999.74 2821.36 2972.77 2943.36 2819.8 
2772.02 2679.83 2804.98 2833.54 2919.72 2777.05 2842.23 2980.77 2850.7 
2901.22 2836.19 2827.63 2852.56 2843.43 2856.56 2861.38 2877.33 2876.44 
2837.3 2845.54 2931.33 2978.46 3017.94 3017.94 3035.95 2898.21 2891.09 
2919.4 2952.57 3079.23 3055.69 3053.83 2927.11 2877.42 2863.85 2874.64 
2873.23 2873.23 2851.04 2903.26 2919.65 2914.54 2964.9 2905.31 2938.46 
3028.43 3005.51 2920.58 2931.73 2891.49 2892.07 2886.65 2858.25 2809.62 
2745.96 2778.57 2772.53 2749.35 2770.52 2785.42 2774.9 2800.04 2798.72 
2826.69 2821.83 2839.67 2821.85 2842.48 2865.1 2842.52 2879.2 2873.57 
2873.57 2870.58 2880.4 2880.4 2880.1 2856.31 2879.26 2829.16 2840.67 
2814.72 2827.99 2871.12 2899.36 2853.54 2872.75 2834.57 2817.69 2830.94 
2849.33 2891.81 2903.1 2870.7 2840.49 2775.86 2777.62 2795.21 2786.93 
2782.36 2780.53 2827.72 2873.78 2840.91 2865.73 2879.81 2842.27 2818.64 
2842.42 2877.4 2942.37 3002.94 3034.47 3036.91 3001.11 2972.04 3030.48 
2940.32 2960.02 2935.56 2913.79 2859.79 2878.91 2918.98 2968.57 2941.68 
2938.46 2980.81 2963.79 2881.78 2830.78 2829.06 2892.35 3016.36 3053.86 
3074.15 3096.41 3122.2 3112.22 3060.01 3022.53 3026.59 3012.93 2915.56 
2903.79 2859.44 2875.58 2898.2 2879.1 2881.9 2896.51 2943.89 2958.57 
2958.57 2937.46 2920.26 2823.56 2976.89 2994 3015.14 2897.99 2924.94 
2978.74 2962.32 2962.32 2859.64 2859.77 2797.89 2791.19 2777.43 2775.53 
2789.89 2936.96 2959.12 2911.37 2959.47 2935.69 2983.68 2950.3 2902.78 
2921.54 2943.88 2960.72 2925.17 2870.69 2887.9 2923.62 2819.19 2758.26 
2754.49 2685.68 2663.54 2679.99 2687.7 2687.7 2680.38 2659.25 2659.25 
2668.93 2665.15 2665.15 2627.65 2639.4 2639.4 2640.31 2640.31 2617.56 
2586.32 2593.35 2626.25 2648.54 2648.54 2631.16 2631.78 2669.88 2688.75 
2667.15 2604.96 2811.64 2781.62 2766.54 2769.15 2741.98 2753.81 2846.81 
2869.84 2912.59 2891.25 2851.94 2865.64 2900.77 2625.12 2641.01 2685.17 
2675.15 2653.43 2605.12 2567.65 
bkstRFP 1 265 double
59.097 208.977 264.877 169.937 244.037 495.217 564.177 490.707 463.937 
266.497 243.607 146.607 116.377 427.137 519.177 552.617 585.727 411.907 
412.117 133.977 399.637 346.147 237.427 248.587 373.217 355.297 358.487 
237.587 35.647 102.137 113.637 169.147 209.807 265.667 363.917 354.747 
340.447 343.007 317.637 301.277 292.807 304.587 319.007 344.177 357.327 
350.117 359.117 346.557 437.487 463.297 463.297 435.937 306.817 293.607 
298.297 342.517 377.517 331.887 339.237 302.027 275.777 281.077 260.937 
256.097 256.097 271.467 245.917 254.497 333.467 244.307 327.297 365.187 
322.657 354.517 413.957 392.457 360.727 323.767 343.247 364.887 401.857 
240.217 347.727 310.087 235.537 209.137 195.277 167.247 165.647 159.547 
182.977 190.027 221.807 242.547 239.177 289.767 291.247 278.127 296.507 
296.507 266.747 258.037 258.037 266.937 267.867 258.987 264.097 248.987 
227.457 246.707 234.507 228.167 224.647 219.557 235.867 192.967 197.587 
168.287 189.937 230.617 318.807 394.307 363.917 345.347 335.197 336.077 
324.717 348.907 417.187 468.127 479.887 489.657 532.587 342.187 308.467 
330.507 377.637 391.397 348.277 367.027 364.597 339.757 325.597 372.697 
445.077 407.337 391.427 386.647 457.177 546.917 526.007 583.167 568.707 
567.117 570.567 512.007 426.987 346.087 355.137 299.767 426.517 505.277 
485.607 599.867 556.267 552.267 460.607 483.517 468.507 560.567 376.407 
321.277 256.607 241.587 225.237 238.397 251.437 279.727 326.067 323.547 
323.547 305.887 282.097 243.607 419.827 424.287 487.307 162.807 147.517 
235.587 251.457 251.457 242.177 229.127 222.647 232.357 246.407 244.027 
190.877 535.247 567.077 531.307 553.957 286.767 459.377 478.337 441.007 
326.457 460.217 463.197 461.977 539.977 489.617 429.057 366.597 342.937 
324.537 315.087 288.397 260.497 187.517 187.517 179.287 179.397 179.397 
211.267 221.137 221.137 205.077 171.657 171.657 175.537 175.537 178.777 
207.457 204.727 237.457 253.377 253.377 308.567 309.457 299.727 300.807 
316.027 264.877 483.707 448.007 395.597 340.917 292.217 282.147 413.407 
390.697 381.407 376.537 332.547 328.887 290.747 310.187 324.747 318.767 
245.167 266.147 117.797 48.407 
bkstGFP 1 265 double
209.61 226.3 266.95 445.67 377.21 519.05 733.42 594.53 540.78 
541.46 485.55 396.31 466.27 613.06 666.82 589.79 552.84 475.43 
584.4 320.37 615.58 485.57 661.73 483.35 634.76 605.35 481.79 
434.01 341.82 466.97 495.53 581.71 439.04 504.22 642.76 512.69 
563.21 498.18 489.62 514.55 505.42 518.55 523.37 539.32 538.43 
499.29 507.53 593.32 640.45 679.93 679.93 697.94 560.2 553.08 
581.39 614.56 741.22 717.68 715.82 589.1 539.41 525.84 536.63 
535.22 535.22 513.03 565.25 581.64 576.53 626.89 567.3 600.45 
690.42 667.5 582.57 593.72 553.48 554.06 548.64 520.24 471.61 
407.95 440.56 434.52 411.34 432.51 447.41 436.89 462.03 460.71 
488.68 483.82 501.66 483.84 504.47 527.09 504.51 541.19 535.56 
535.56 532.57 542.39 542.39 542.09 518.3 541.25 491.15 502.66 
476.71 489.98 533.11 561.35 515.53 534.74 496.56 479.68 492.93 
511.32 553.8 565.09 532.69 502.48 437.85 439.61 457.2 448.92 
444.35 442.52 489.71 535.77 502.9 527.72 541.8 504.26 480.63 
504.41 539.39 604.36 664.93 696.46 698.9 663.1 634.03 692.47 
602.31 622.01 597.55 575.78 521.78 540.9 580.97 630.56 603.67 
600.45 642.8 625.78 543.77 492.77 491.05 554.34 678.35 715.85 
736.14 758.4 784.19 774.21 722 684.52 688.58 674.92 577.55 
565.78 521.43 537.57 560.19 541.09 543.89 558.5 605.88 620.56 
620.56 599.45 582.25 485.55 638.88 655.99 677.13 559.98 586.93 
640.73 624.31 624.31 521.63 521.76 459.88 453.18 439.42 437.52 
451.88 598.95 621.11 573.36 621.46 597.68 645.67 612.29 564.77 
583.53 605.87 622.71 587.16 532.68 549.89 585.61 481.18 420.25 
416.48 347.67 325.53 341.98 349.69 349.69 342.37 321.24 321.24 
330.92 327.14 327.14 289.64 301.39 301.39 302.3 302.3 279.55 
248.31 255.34 288.24 310.53 310.53 293.15 293.77 331.87 350.74 
329.14 266.95 473.63 443.61 428.53 431.14 403.97 415.8 508.8 
531.83 574.58 553.24 513.93 527.63 562.76 287.11 303 347.16 
337.14 315.42 267.11 229.64 
tubeWidth 1 265 double
0.0969356 0.207959 0.248431 0.210671 0.206062 0.230921 0.206643 0.165676 0.191891 
0.143703 0.207165 0.205367 0.142053 0.173376 0.195571 0.182564 0.266634 0.285434 
0.135188 0.0284362 0.264003 0.221619 0.163449 0.13273 0.168233 0.090658 0.216286 
0.00488567 0.0504134 0.112386 0.112966 0.211814 0.121749 0.143051 0.143716 0.175449 
0.134542 0.203555 0.168882 0.187006 0.153471 0.157368 0.177308 0.161515 0.100303 
0.138578 0.130373 0.206473 0.190596 0.176331 0.168778 0.165779 0.109502 0.14221 
0.151227 0.172297 0.11816 0.150039 0.248773 0.261714 0.208049 0.199611 0.2182 
0.248748 0.254059 0.251319 0.223823 0.211322 0.20975 0.22486 0.186898 0.251555 
0.239689 0.231649 0.238825 0.251865 0.172917 0.162183 0.210771 0.205581 0.228372 
0.211377 0.209296 0.15396 0.172881 0.175753 0.175332 0.175593 0.178861 0.185353 
0.18704 0.205457 0.259863 0.218336 0.232709 0.24361 0.247358 0.258469 0.236006 
0.218393 0.221955 0.220441 0.250248 0.260353 0.280604 0.275884 0.281604 0.235968 
0.218846 0.230899 0.255504 0.24662 0.210624 0.247069 0.25188 0.251406 0.215363 
0.168082 0.198613 0.200336 0.156434 0.228581 0.178321 0.205379 0.202605 0.208875 
0.244982 0.268095 0.260665 0.245785 0.235301 0.156033 0.21894 0.192794 0.136767 
0.11334 0.161091 0.233604 0.233897 0.226534 0.246403 0.227194 0.185222 0.20189 
0.230489 0.246814 0.192067 0.180225 0.134439 0.213869 0.196755 0.128921 0.140548 
0.230146 0.256257 0.270331 0.201106 0.204092 0.146193 0.156366 0.205046 0.139846 
0.193824 0.225507 0.196308 0.134027 0.112493 0.121202 0.179454 0.221085 0.213281 
0.256176 0.197835 0.208799 0.168391 0.230791 0.228208 0.220918 0.217013 0.230963 
0.25383 0.284287 0.346907 0.284966 0.108038 0.119159 0.232143 0.252172 0.262241 
0.245509 0.254723 0.275679 0.249224 0.228432 0.202485 0.220721 0.210995 0.226396 
0.26672 0.296457 0.183762 0.185387 0.108877 0.265817 0.257402 0.289103 0.273498 
0.135135 0.117974 0.180728 0.233342 0.295823 0.285981 0.233901 0.177595 0.170695 
0.234688 0.279447 0.301515 0.265635 0.229451 0.193085 0.206179 0.220976 0.212302 
0.215774 0.222549 0.234645 0.210762 0.172093 0.206201 0.198277 0.195291 0.182491 
0.170313 0.218276 0.134196 0.134088 0.190658 0.218781 0.218445 0.222699 0.180456 
0.217127 0.285334 0.106313 0.0943018 0.15379 0.211138 0.239371 0.247411 0.223694 
0.143801 0.239076 0.211121 0.23604 0.247515 0.328521 0.26339 0.260444 0.271362 
0.251871 0.189538 0.188395 0.160453 
