# vtk DataFile Version 3.0
vtk output
ASCII
DATASET POLYDATA
POINTS 392 float
0.366686 0.682164 1.49271 0.353312 -0.734621 0.820003 0.424039 -1.05407 0.514598 
0.510151 0.679754 1.08822 1.27513 0.788482 0.950603 0.288688 1.44222 0.878802 
-0.53305 0.0839703 -0.0229208 0.0543167 0.973067 0.481033 0.429374 1.49796 0.422007 
0.290076 -1.01208 -0.551981 -0.643132 0.383119 -0.800467 1.97419 1.69467 0.142199 
-0.0512769 -0.436665 -1.40501 0.470332 -0.769195 -1.50831 0.236966 -0.920094 -1.80292 
0.371776 -0.788531 -1.74093 1.72212 2.1765 -0.657555 -0.243757 0.0412798 -1.77309 
0.0618815 0.324046 -2.06193 4.77041 0.018106 -1.69158 3.86097 0.393661 -1.49264 
6.96805 0.377496 -1.55169 5.14807 -0.600006 -1.84124 1.2798 0.101151 -2.38316 
6.96019 0.103166 -1.56501 5.166 -0.0854587 -2.30863 1.53937 -0.0572798 -3.2458 
4.98876 -0.0751316 -2.75516 5.42866 0.206127 -2.6008 6.54161 0.826954 -2.23967 
5.94842 0.219136 -2.73397 5.67157 0.495007 -2.7906 6.40216 1.09908 -2.38384 
6.86472 0.986468 -2.35372 6.04953 1.00804 -2.67623 6.28266 1.06635 -2.62381 
6.85637 1.16092 -2.51063 6.2948 2.0723 -2.29644 6.28365 2.01165 -2.28624 
6.27914 1.94223 -2.25435 6.28742 1.86526 -2.20735 6.2799 1.78906 -2.15451 
6.26674 1.72389 -2.13035 6.2557 1.66321 -2.12015 6.26012 1.60923 -2.13698 
6.28908 1.55021 -2.15192 6.32106 1.49797 -2.1878 6.32849 1.45077 -2.22559 
6.32538 1.4082 -2.27125 6.31748 1.35921 -2.2961 6.30936 1.30527 -2.30687 
6.31231 1.24534 -2.31013 6.34726 1.17865 -2.33455 6.87238 1.0725 -2.43479 
6.3385 1.08102 -2.50886 5.98878 0.967429 -2.69812 5.93948 0.924471 -2.71912 
5.91472 0.876476 -2.73822 5.88996 0.828481 -2.75732 5.83965 0.783263 -2.77134 
5.77647 0.736831 -2.77581 5.71319 0.683922 -2.77061 5.67045 0.610923 -2.77289 
5.755 0.437561 -2.77755 5.81109 0.372902 -2.7629 5.85581 0.313271 -2.74433 
5.90253 0.270721 -2.73173 6.79515 0.938953 -2.30838 6.7291 0.907793 -2.26511 
6.66418 0.876248 -2.23751 6.60315 0.856388 -2.22915 6.89598 0.92372 -2.19664 
6.9293 0.859015 -2.07134 6.96204 0.778165 -1.98278 6.9902 0.684902 -1.89301 
7.00301 0.583568 -1.77858 6.98841 0.479221 -1.64747 6.45694 0.990163 -2.30905 
6.50076 0.90144 -2.26073 5.5795 0.493207 -2.84766 5.50687 0.462956 -2.87183 
5.44981 0.402845 -2.83663 5.4239 0.31444 -2.73932 5.57944 0.356302 -2.69552 
5.49958 0.266255 -2.63007 5.88757 0.178547 -2.75587 5.83547 0.133696 -2.77002 
5.79694 0.078661 -2.76195 5.74834 0.0133617 -2.71935 5.70077 -0.0620147 -2.64844 
5.63563 -0.136144 -2.5718 5.56297 -0.201831 -2.50921 5.49282 -0.249842 -2.45626 
5.43074 -0.258696 -2.40519 5.37535 -0.236004 -2.35867 5.32049 -0.207267 -2.33369 
5.25665 -0.155166 -2.31815 6.0025 0.210113 -2.72911 6.05852 0.211992 -2.72044 
6.11873 0.237369 -2.70356 6.17926 0.264543 -2.68605 6.23749 0.279441 -2.67285 
6.29636 0.308932 -2.65483 6.34525 0.350114 -2.63446 6.36799 0.398417 -2.61556 
6.3791 0.449212 -2.59751 6.38833 0.500394 -2.57962 6.39745 0.551598 -2.56173 
6.40567 0.60052 -2.53685 6.41367 0.644557 -2.49787 6.4284 0.679811 -2.43719 
6.45704 0.709746 -2.36837 6.47378 0.744589 -2.30753 6.49531 0.785847 -2.2675 
5.34696 0.12335 -2.49791 5.26102 0.0301382 -2.39899 5.03519 -0.0759776 -2.6073 
5.09078 -0.0787053 -2.45872 1.47476 -0.0452046 -3.0783 1.42561 -0.026439 -2.93784 
1.40614 -0.00142739 -2.8304 1.39046 0.0277357 -2.73677 1.35898 0.0576746 -2.63731 
1.32785 0.0801446 -2.51664 5.10945 -0.228679 -2.15881 5.10418 -0.350773 -2.01835 
5.12578 -0.452179 -1.91447 5.14658 -0.534292 -1.85947 5.06619 -0.0815031 -2.14883 
4.98719 -0.0918766 -2.02996 4.92303 -0.0915741 -1.94873 4.86805 -0.0619014 -1.87631 
4.81825 -0.0217615 -1.78797 6.95321 0.27853 -1.51317 6.96435 0.207349 -1.52086 
6.96661 0.153178 -1.542 4.70462 0.0399768 -1.61145 4.64127 0.0540361 -1.54923 
4.58627 0.0867818 -1.49152 4.53343 0.121638 -1.44463 4.47768 0.134821 -1.41695 
4.41864 0.129506 -1.39573 4.35772 0.117026 -1.36925 4.30346 0.141951 -1.3297 
4.25287 0.180697 -1.30086 4.20042 0.202262 -1.29357 4.14705 0.215288 -1.29703 
4.09367 0.228211 -1.30053 4.04293 0.252603 -1.3078 3.99671 0.295609 -1.3241 
3.95099 0.331289 -1.36628 3.90563 0.362192 -1.42567 3.80414 0.362113 -1.54247 
3.75505 0.32404 -1.57757 3.72055 0.278046 -1.59742 3.68311 0.237587 -1.63163 
3.65249 0.195725 -1.6653 3.61516 0.155244 -1.6995 3.58053 0.104341 -1.70524 
3.53817 0.0525592 -1.70452 3.50164 -0.00288509 -1.69629 3.46207 -0.0527729 -1.70242 
3.43819 -0.103415 -1.71439 3.41253 -0.153694 -1.7265 3.36021 -0.203431 -1.72655 
3.29344 -0.257601 -1.70655 3.22556 -0.314013 -1.67956 3.16833 -0.370142 -1.65882 
3.12892 -0.422529 -1.65788 3.07671 -0.467359 -1.67204 3.01575 -0.507925 -1.69395 
2.95203 -0.550286 -1.70897 2.88649 -0.595449 -1.70945 2.8196 -0.63809 -1.68573 
2.75421 -0.668883 -1.65009 2.68631 -0.713785 -1.61939 2.61777 -0.765625 -1.59889 
2.54823 -0.819726 -1.5714 2.47933 -0.866881 -1.53371 2.41195 -0.902107 -1.48408 
2.34236 -0.949726 -1.43878 2.27379 -0.994991 -1.40043 2.20975 -1.02162 -1.37112 
2.14786 -1.04628 -1.36444 2.08815 -1.06208 -1.36242 2.02659 -1.08494 -1.35511 
1.96352 -1.10273 -1.31494 1.89745 -1.12722 -1.25378 1.82714 -1.16871 -1.18304 
1.76107 -1.19319 -1.12188 1.69802 -1.21089 -1.08168 1.63675 -1.23204 -1.07377 
1.57872 -1.23844 -1.06847 1.51969 -1.2471 -1.0562 1.45543 -1.27494 -1.02731 
1.39269 -1.29084 -0.986466 1.33162 -1.29743 -0.942383 1.27185 -1.30007 -0.904692 
1.21211 -1.30251 -0.86692 1.15469 -1.29872 -0.842526 1.10194 -1.27886 -0.835838 
1.05271 -1.24263 -0.831194 0.997967 -1.22718 -0.81049 0.937851 -1.22839 -0.764524 
0.880094 -1.21972 -0.722885 0.827848 -1.19027 -0.697297 0.775115 -1.1703 -0.690562 
0.716992 -1.16708 -0.658589 0.655916 -1.1669 -0.596591 0.593973 -1.16484 -0.518396 
0.532701 -1.17253 -0.474696 0.481125 -1.14607 -0.465692 0.435074 -1.1055 -0.490623 
0.391169 -1.05627 -0.520301 0.342455 -1.02727 -0.541496 3.82039 0.46493 -1.50685 
3.78182 0.540717 -1.53501 3.74425 0.618769 -1.57017 3.70568 0.694557 -1.59834 
3.66409 0.763564 -1.60556 3.62049 0.828054 -1.59882 3.57589 0.890282 -1.5851 
3.53229 0.954771 -1.57836 3.49071 1.02378 -1.58558 3.45213 1.09957 -1.61374 
3.41455 1.17752 -1.64894 3.37566 1.25151 -1.67773 3.33207 1.30931 -1.68886 
3.28367 1.3468 -1.69156 3.23509 1.38673 -1.68562 3.18637 1.42241 -1.68895 
3.14079 1.46902 -1.70399 3.09707 1.5159 -1.74225 3.05521 1.56986 -1.78583 
3.00983 1.60744 -1.82734 2.96142 1.63815 -1.84794 2.91323 1.67683 -1.85022 
2.86182 1.70086 -1.84984 2.81072 1.72658 -1.84887 2.76348 1.77401 -1.84031 
2.71522 1.81907 -1.82481 2.66079 1.83632 -1.80349 2.6017 1.83748 -1.76447 
2.54194 1.84163 -1.70886 2.48368 1.85761 -1.64134 2.42323 1.8613 -1.57812 
2.3641 1.86904 -1.52125 2.31017 1.90255 -1.46316 2.25918 1.94922 -1.40824 
2.20721 1.99373 -1.34631 2.15359 2.02903 -1.28758 2.09847 2.05249 -1.24077 
2.04788 2.09458 -1.203 1.99892 2.14587 -1.16201 1.94623 2.18884 -1.09543 
1.88514 2.20859 -0.990435 1.80965 2.19467 -0.840771 -0.0110109 0.261266 -2.01416 
-0.0859127 0.193964 -1.95242 -0.16383 0.119883 -1.86974 -0.2177 -0.0293693 -1.75291 
-0.20837 -0.104692 -1.70523 -0.18677 -0.183612 -1.62288 -0.152751 -0.253552 -1.52799 
-0.11008 -0.337936 -1.45486 -0.310464 0.0537862 -1.60575 -0.372149 0.0775909 -1.47333 
-0.426691 0.117197 -1.38978 -0.474432 0.167737 -1.34099 -0.511303 0.218513 -1.29843 
-0.533498 0.261347 -1.24061 -0.561286 0.299611 -1.16674 -0.577183 0.328653 -1.07056 
-0.597792 0.353422 -0.947634 1.76321 2.11319 -0.457335 1.79808 2.0512 -0.283776 
1.83183 1.99291 -0.137997 1.86618 1.93154 -0.0167092 1.9009 1.8618 0.0757356 
1.9393 1.80674 0.134158 1.96834 1.74945 0.151227 1.63678 2.18599 -0.601274 
1.56575 2.18283 -0.541791 1.50143 2.17367 -0.480674 1.43827 2.16365 -0.419657 
1.3745 2.15207 -0.354002 1.30972 2.13823 -0.281352 1.24294 2.11988 -0.194752 
1.17714 2.10368 -0.115162 1.11204 2.08804 -0.0431498 1.05029 2.0743 -0.00932649 
0.987725 2.04919 0.00497257 0.927699 2.03159 0.00634952 0.860927 1.98902 0.0301188 
0.791246 1.92992 0.0716762 0.728005 1.86033 0.134352 0.680657 1.78984 0.191162 
0.620586 1.72274 0.24462 0.559785 1.65518 0.297831 0.506262 1.57904 0.359785 
0.347016 -0.836526 -1.76003 0.29771 -0.879484 -1.78103 0.325881 -0.736945 -1.7387 
0.279769 -0.693334 -1.75479 0.238898 -0.63045 -1.78746 0.199033 -0.565302 -1.82713 
0.15493 -0.517172 -1.85718 0.106771 -0.470808 -1.83863 0.0510405 -0.443846 -1.75672 
-0.00762247 -0.445465 -1.60852 0.421556 -0.777734 -1.62811 -0.0697398 -0.481969 -1.14205 
-0.109159 -0.550195 -0.910475 -0.159466 -0.582313 -0.694981 -0.189499 -0.592548 -0.493058 
-0.207294 -0.592748 -0.31494 -0.227114 -0.577535 -0.179269 -0.256377 -0.543116 -0.0937594 
-0.274669 -0.496152 -0.0497554 -0.296882 -0.440985 -0.0272337 -0.313147 -0.384572 -0.0113137 
-0.345998 -0.324755 0.00332112 -0.388714 -0.262914 0.0171914 -0.434214 -0.202968 0.0379086 
-0.480369 -0.14463 0.0638993 -0.521964 -0.0825906 0.0819199 -0.540501 -0.00385875 0.0595545 
-0.612388 0.497727 -0.895163 -0.591668 0.585064 -0.958213 -0.590501 0.652365 -0.978165 
-0.619118 0.712202 -0.965534 -0.651203 0.764464 -0.929662 -0.663436 0.805253 -0.871073 
-0.674104 0.840788 -0.798238 -0.688923 0.874706 -0.718662 -0.674047 0.902531 -0.636784 
-0.664113 0.931374 -0.555299 -0.660256 0.96146 -0.474276 -0.646533 0.989522 -0.392488 
-0.608263 1.01255 -0.308807 -0.568127 1.03508 -0.225007 -0.541186 1.05857 -0.142797 
-0.500011 1.07196 -0.069668 -0.450593 1.07141 -0.00772923 -0.396184 1.08514 0.0516943 
-0.343695 1.09424 0.12506 -0.295744 1.08462 0.207438 -0.249251 1.07358 0.304847 
-0.203583 1.05115 0.382751 -0.15659 1.02601 0.436383 -0.106166 1.0066 0.460931 
-0.0550896 0.984112 0.468863 -0.00357557 0.960687 0.468694 -0.624042 0.286813 -0.574152 
-0.599213 0.206162 -0.364859 -0.564895 0.142218 -0.176959 0.338695 1.46639 0.64759 
0.446838 1.40552 0.428654 0.412922 1.34309 0.427137 0.363799 1.29303 0.422204 
0.324289 1.23977 0.425473 0.267168 1.18362 0.446222 0.201059 1.12684 0.473348 
0.143937 1.07069 0.494097 0.104627 1.01829 0.495049 0.081169 0.872057 0.593649 
0.109659 0.780242 0.709488 0.142709 0.707258 0.816357 0.178912 0.635074 0.884643 
0.224446 0.591604 0.908559 0.282659 0.605781 0.921526 0.3435 0.638099 0.948593 
0.400311 0.657936 0.994625 0.453625 0.661519 1.04275 1.17546 0.781264 0.97584 
1.09943 0.766109 1.00714 1.03175 0.735133 1.045 0.96754 0.716107 1.09509 
0.905138 0.705457 1.14553 0.843372 0.691617 1.17932 0.782829 0.671115 1.17968 
0.726158 0.662205 1.16078 0.670638 0.653001 1.12623 0.61693 0.657344 1.1042 
0.563892 0.668833 1.09242 0.438419 0.680959 1.29047 0.41973 -1.00011 0.531445 
0.40409 -0.943829 0.547413 0.411316 -0.892236 0.565153 0.432238 -0.845921 0.591018 
0.420451 -0.800292 0.635526 0.397234 -0.764647 0.714442 
LINES 35 462
17 37 38 39 40 41 42 43 44 45 46 47 48 49 50 51 52 32 
3 36 53 33 
3 35 54 32 
10 34 55 56 57 58 59 60 61 62 31 
6 31 63 64 65 66 30 
6 33 67 68 69 70 29 
4 32 77 78 29 
6 31 79 80 81 82 28 
4 31 83 84 28 
14 30 85 86 87 88 89 90 91 92 93 94 95 96 25 
19 30 97 98 99 100 101 102 103 104 105 106 107 108 109 110 111 112 113 29 
4 28 114 115 25 
4 27 116 117 25 
8 26 118 119 120 121 122 123 23 
6 25 124 125 126 127 22 
65 20 152 153 154 155 156 157 158 159 160 161 162 163 164 165 166 167 168 169 170 171 172 173 174 175 176 177 178 179 180 181 182 183 184 185 186 187 188 189 190 191 192 193 194 195 196 197 198 199 200 201 202 203 204 205 206 207 208 209 210 211 212 213 214 9 
44 20 215 216 217 218 219 220 221 222 223 224 225 226 227 228 229 230 231 232 233 234 235 236 237 238 239 240 241 242 243 244 245 246 247 248 249 250 251 252 253 254 255 256 16 
5 18 257 258 259 17 
7 17 260 261 262 263 264 12 
11 17 265 266 267 268 269 270 271 272 273 10 
9 16 274 275 276 277 278 279 280 11 
21 16 281 282 283 284 285 286 287 288 289 290 291 292 293 294 295 296 297 298 299 8 
4 15 300 301 14 
10 15 302 303 304 305 306 307 308 309 12 
3 15 310 13 
28 10 327 328 329 330 331 332 333 334 335 336 337 338 339 340 341 342 343 344 345 346 347 348 349 350 351 352 7 
3 8 356 5 
10 8 357 358 359 360 361 362 363 364 7 
11 7 365 366 367 368 369 370 371 372 373 3 
13 4 374 375 376 377 378 379 380 381 382 383 384 3 
3 3 385 0 
8 2 386 387 388 389 390 391 1 
12 33 71 72 73 74 75 76 21 133 134 135 24 
24 25 128 129 130 131 132 19 136 137 138 139 140 141 142 143 144 145 146 147 148 149 150 151 20 
22 12 311 312 313 314 315 316 317 318 319 320 321 322 323 324 325 326 6 355 354 353 10 

POINT_DATA 392
SCALARS DY_raw double
LOOKUP_TABLE default
94.8189 120.193 187.424 78.5776 49.4676 86.3482 83.9533 48.3423 76.1426 
91.1199 133.729 76.0653 80.4761 98.4064 212.909 70.2007 53.4371 85.1855 
78.1448 75.9697 88.2175 97.6271 516.316 86.0624 108.638 87.3297 84.288 
145.365 97.7229 100.301 141.831 132.152 84.5748 74.3253 137.53 113.718 
56.876 99.3053 110.809 122.599 114.529 117.482 118.085 99.9965 111.078 
96.4821 99.3568 121.162 113.222 95.8173 97.0957 116.122 100.517 75.1999 
101.2 128.681 127.886 131.977 131.977 145.79 138.764 124.6 132.229 
128.446 130.919 154.939 157.777 78.8202 83.3987 81.9537 96.6901 82.3226 
82.6055 102.984 116.029 102.248 89.8854 84.6542 84.6575 135.065 128.057 
125.335 115.421 125.928 115.041 150.32 134.185 137.828 130.507 95.2103 
85.2346 80.3471 85.2776 85.4788 96.6955 91.8141 84.5601 155.562 143.739 
139.467 139.467 151.224 144.473 127.094 118.795 118.795 103.608 105.427 
105.427 113.498 113.498 113.304 96.4238 106.24 74.217 68.0355 105.095 
87.5153 90.4512 94.8479 72.5843 71.8994 79.3787 87.0106 107.528 123.796 
163.155 276.959 85.1725 79.9398 74.2633 64.9528 65.3795 105.907 103.203 
106.22 96.0009 100.032 129.586 133.426 138.202 126.898 140.887 121.101 
111.554 111.554 104.592 87.8749 87.8749 96.0267 96.765 88.6446 82.8768 
89.4215 104.619 93.9018 102.716 76.2065 80.304 73.2112 60.1896 60.1896 
65.3901 59.9825 59.1371 62.6698 62.469 65.8126 62.2032 64.1152 70.4425 
74.8447 83.9654 78.5069 72.0539 68.2495 74.2787 67.3226 63.1316 67.8913 
72.7593 80.0496 85.4434 76.8468 77.4706 76.1049 72.4902 75.9947 73.8437 
77.494 84.1717 69.6499 70.7452 83.0114 99.3941 107.865 125.065 115.79 
125.904 127.987 91.975 91.975 80.2357 68.151 67.6572 69.9078 77.4518 
72.057 78.1815 83.0306 92.4216 116.091 93.0566 97.3779 91.1199 82.2618 
91.0417 113.265 103.541 105.229 85.3122 85.3122 85.8475 75.9598 75.9598 
96.2771 84.8511 81.1171 83.1729 83.1729 77.3471 88.0454 74.1467 81.3351 
85.8419 72.8932 86.3195 78.6231 78.6231 72.3087 72.3087 72.706 71.1428 
75.6647 71.237 57.9679 59.1887 52.3979 54.1523 62.8955 72.3277 66.9057 
56.1181 38.3505 41.3206 44.5668 43.4493 67.5393 66.9719 67.6472 82.3242 
86.7856 94.0286 88.2217 77.3309 58.347 64.1434 65.7146 73.7965 93.8297 
92.4846 88.4878 98.6705 106.489 62.668 66.3304 68.6992 68.1993 65.4315 
68.0458 76.0653 64.3254 78.1588 82.5479 73.0819 71.2102 63.6352 67.1956 
68.2176 59.8627 63.9068 59.8315 52.9007 56.915 55.6781 59.4086 56.7227 
60.7808 59.6362 62.7956 98.4148 160 96.6279 109.266 92.2776 89.6038 
83.2389 70.7713 75.9367 73.8549 85.4585 86.9784 108.1 84.0314 76.7495 
106.19 112.945 149.075 130.811 139.598 127.789 97.4459 113.684 107.214 
92.0428 100.411 93.6835 102.581 86.4371 72.1104 73.8789 86.6918 91.2327 
87.5295 95.534 86.5304 76.9061 69.5137 61.6966 58.6743 76.548 77.4105 
64.9692 57.2163 60.836 58.1707 56.3751 67.7841 75.514 67.6602 62.2906 
69.6924 53.1576 107.772 101.926 99.9257 102.497 65.5867 68.0483 61.9345 
60.2553 61.4174 52.5812 51.0986 44.2197 55.7437 56.3787 71.5524 77.7051 
89.041 77.5847 77.5847 70.1378 76.4159 49.9303 58.8067 64.6634 75.399 
88.1441 94.1371 84.9808 81.3303 81.3303 78.112 80.1197 98.7983 119.136 
104.186 104.186 96.2886 96.2886 104.998 
FIELD FieldData 7
DY_minmax 1 392 double
0.118143 0.171232 0.311891 0.0841632 0.0232592 0.100421 0.0954101 0.0209048 0.0790686 
0.110404 0.199551 0.0789069 0.0881352 0.125649 0.365212 0.0666369 0.0315641 0.0979882 
0.0832576 0.0787069 0.104332 0.124018 1 0.0998228 0.147056 0.102474 0.0961103 
0.223895 0.124219 0.129612 0.216501 0.196252 0.0967104 0.0752664 0.207504 0.157683 
0.0387589 0.12753 0.151598 0.176264 0.159381 0.165558 0.166821 0.128976 0.15216 
0.121623 0.127637 0.173258 0.156646 0.120232 0.122907 0.162713 0.130066 0.0770964 
0.131494 0.188989 0.187326 0.195886 0.195886 0.224786 0.210086 0.180451 0.196412 
0.188498 0.193671 0.243926 0.249864 0.0846706 0.0942498 0.0912266 0.122058 0.0919984 
0.0925902 0.135227 0.162518 0.133687 0.107821 0.0968765 0.0968834 0.202347 0.187684 
0.181989 0.161248 0.183229 0.160453 0.234263 0.200506 0.208127 0.192809 0.118962 
0.0980909 0.0878652 0.0981808 0.0986017 0.122069 0.111857 0.0966798 0.24523 0.220495 
0.211556 0.211556 0.236155 0.222029 0.185669 0.168307 0.168307 0.136531 0.140338 
0.140338 0.157224 0.157224 0.156817 0.121501 0.142037 0.0750398 0.0621069 0.139643 
0.102863 0.109005 0.118204 0.0716239 0.0701909 0.0858392 0.101807 0.144733 0.17877 
0.261117 0.499217 0.097961 0.0870132 0.0751367 0.0556573 0.05655 0.141343 0.135685 
0.141996 0.120616 0.12905 0.190882 0.198918 0.20891 0.185259 0.214528 0.17313 
0.153157 0.153157 0.138591 0.103615 0.103615 0.12067 0.122215 0.105225 0.093158 
0.106851 0.138646 0.116224 0.134665 0.0792023 0.0877751 0.0729356 0.0456916 0.0456916 
0.0565722 0.0452583 0.0434896 0.0508808 0.0504607 0.0574562 0.0499046 0.0539049 0.0671428 
0.076353 0.0954355 0.0840151 0.0705143 0.0625547 0.0751689 0.0606155 0.0518471 0.0618052 
0.0719901 0.0872428 0.0985277 0.080542 0.0818471 0.0789898 0.0714271 0.0787591 0.0742588 
0.081896 0.0958671 0.0654845 0.0677761 0.0934395 0.127716 0.145439 0.181425 0.16202 
0.183179 0.187538 0.112193 0.112193 0.0876322 0.0623486 0.0613155 0.066024 0.0818077 
0.0705208 0.0833344 0.0934797 0.113128 0.162649 0.114456 0.123497 0.110404 0.0918711 
0.110241 0.156737 0.136392 0.139924 0.0982534 0.0982534 0.0993731 0.0786862 0.0786862 
0.121194 0.0972884 0.0894763 0.0937774 0.0937774 0.0815886 0.103972 0.0748929 0.0899325 
0.0993615 0.0722703 0.100361 0.0842584 0.0842584 0.0710473 0.0710473 0.0718785 0.068608 
0.0780688 0.068805 0.0410434 0.0435976 0.0293899 0.0330604 0.051353 0.071087 0.0597431 
0.0371733 0 0.00621388 0.0130057 0.0106677 0.0610688 0.0598816 0.0612944 0.0920018 
0.101336 0.11649 0.104341 0.0815547 0.0418366 0.0539639 0.0572512 0.07416 0.116074 
0.113259 0.104897 0.126201 0.14256 0.050877 0.0585394 0.0634955 0.0624495 0.0566588 
0.0621284 0.0789069 0.0543446 0.0832868 0.0924697 0.0726651 0.0687491 0.0529005 0.0603496 
0.0624879 0.0450077 0.0534689 0.0449425 0.0304418 0.0388405 0.0362528 0.0440576 0.0384382 
0.0469287 0.044534 0.051144 0.125667 0.254515 0.121928 0.148369 0.112826 0.107232 
0.0939154 0.0678308 0.0786378 0.0742822 0.0985593 0.101739 0.145929 0.0955735 0.0803384 
0.141934 0.156067 0.231657 0.193445 0.21183 0.187123 0.123639 0.157613 0.144077 
0.112335 0.129844 0.115768 0.134384 0.100607 0.0706325 0.0743325 0.10114 0.11064 
0.102892 0.119639 0.100802 0.0806661 0.0651996 0.0488446 0.0425215 0.0799168 0.0817214 
0.0556916 0.0394711 0.0470441 0.0414678 0.037711 0.0615809 0.0777535 0.0613217 0.0500875 
0.0655734 0.0309793 0.145244 0.133012 0.128828 0.134207 0.0569835 0.0621336 0.0493424 
0.0458292 0.0482605 0.0297734 0.0266715 0.0122796 0.03639 0.0377185 0.0694651 0.0823376 
0.106055 0.0820857 0.0820857 0.0665053 0.0796404 0.0242272 0.0427985 0.0550519 0.0775129 
0.104178 0.116717 0.0975599 0.0899224 0.0899224 0.0831891 0.0873895 0.126469 0.169019 
0.13774 0.13774 0.121218 0.121218 0.139441 
WidthEq 1 392 double
2.23844 3.06786 1.22501 4.60622 5.9335 2.82665 4.7863 7.70497 5.92514 
4.35894 3.46257 7.50008 7.47161 5.32288 1.76501 6.15344 12.5942 7.57108 
2.27982 6.07131 5.56143 7.77926 1 2.64745 5.29846 11.3669 4.97196 
4.02674 7.01602 8.11487 4.16861 4.84439 9.65248 8.81458 4.47208 7.4077 
10.7507 3.58799 3.29527 3.55318 4.90501 5.33731 5.19165 7.30102 6.85328 
7.7499 7.41314 5.65116 5.9178 6.42249 6.79367 6.35036 7.71066 8.68094 
8.92645 4.43031 4.50359 4.211 4.211 4.1128 4.41905 4.87147 4.62014 
4.93386 4.741 4.04332 3.95106 8.86659 8.41088 8.64386 7.65751 9.10134 
9.56566 8.28774 7.4115 7.75825 8.00604 9.15095 9.43645 4.65608 4.6714 
5.13597 6.16572 4.91779 5.50955 4.21783 4.64697 4.92298 5.11787 6.99058 
7.7156 8.45352 8.38962 8.42556 8.25712 9.48619 11.1145 3.86602 3.95296 
4.06939 4.06939 3.99523 4.3745 4.80908 4.99309 4.99309 5.77733 6.00146 
6.00146 6.63637 6.63637 6.994 8.4067 7.61069 10.0339 12.5882 8.19738 
10.855 6.02132 6.09371 7.5035 6.62156 5.69064 3.08912 9.44569 8.65677 
5.93033 2.36828 11.0924 10.0421 9.67108 8.74459 7.54374 7.30228 7.04412 
6.31809 5.20772 4.95677 4.1681 4.09002 4.09672 4.05496 3.85539 4.07534 
4.15076 4.15076 4.29225 4.56952 4.56952 4.37843 4.53269 4.79731 5.17052 
5.17634 4.37223 4.39817 4.0523 4.65532 4.52675 5.03688 6.30784 6.30784 
5.72114 6.00702 5.82403 5.72646 5.89566 5.46728 5.92021 5.76518 5.09914 
5.37401 4.96664 5.57067 5.74911 6.01171 5.90528 5.89098 5.903 5.74987 
5.06624 5.1204 5.36971 5.56726 5.75632 5.98235 6.19609 6.39579 6.60498 
5.73317 5.48196 5.51524 5.23012 5.10648 4.71835 4.56547 4.36185 4.60242 
4.354 4.16367 5.10243 5.10243 5.41388 5.99956 5.90515 5.70646 5.28517 
5.32795 4.83946 4.55851 4.28326 3.66518 4.1109 4.20379 4.35894 5.09965 
4.68671 4.05028 4.25972 4.51029 5.60712 5.60712 5.68166 6.627 6.627 
5.75772 6.1294 6.25177 6.79532 6.79532 6.77836 6.33441 6.69977 6.74267 
6.86175 7.66321 7.59221 8.09095 8.09095 8.12082 8.12082 8.3657 8.24547 
7.93112 8.85153 10.0362 10.4332 10.0553 8.56337 8.21118 6.91984 7.55969 
8.54477 10.5426 11.2732 12.3151 12.407 4.4455 5.38743 6.75203 8.27686 
8.06362 7.39175 7.67131 8.16473 9.93 9.76992 8.71992 7.11397 6.14534 
5.56359 5.26961 4.48144 4.16076 10.8497 9.84053 9.25725 9.23802 9.08135 
8.70966 7.50008 11.4099 9.0244 7.71269 6.53234 6.72103 7.50742 7.7256 
8.40936 8.45846 7.7628 7.97566 8.64462 8.45289 8.4167 8.55325 8.32482 
7.42251 7.12865 6.79038 5.22417 2.43029 5.46184 5.19089 5.57953 5.62572 
5.72696 6.26152 6.30467 6.69483 5.72671 8.17359 7.49287 7.83798 6.52703 
4.731 4.52472 3.70087 4.44816 4.18721 4.55623 5.26606 4.84022 4.96171 
5.52195 5.04232 4.72278 3.94005 4.4064 4.87843 4.9674 4.44259 4.26301 
4.71619 4.51207 5.18507 5.49158 6.39465 6.4883 6.72672 5.71962 5.90186 
6.22166 6.52044 6.44135 6.33112 5.39894 5.06839 4.8454 5.21911 5.72937 
5.50284 6.9978 4.00156 3.93145 4.20568 3.24807 6.78089 6.31252 6.50842 
6.08371 5.76328 7.03209 7.24141 8.03388 6.67889 6.93996 6.07549 5.64951 
5.22822 5.72595 5.72595 5.75405 4.73784 6.06638 6.2147 6.03689 5.68875 
4.71632 4.5804 4.62394 4.42905 4.42905 4.38058 4.44892 3.65113 2.89499 
3.75921 3.75921 5.18178 5.18178 4.77289 
rRFP 1 392 double
2383.27 2448.81 2303.19 2570.37 2675.25 2429.75 2584.6 2815.23 2674.59 
2550.83 2480 2799.04 2796.79 2627 2345.86 2692.63 3201.57 2804.65 
2386.54 2686.14 2645.85 2821.1 2285.41 2415.59 2625.07 3104.59 2599.27 
2524.58 2760.79 2847.62 2535.79 2589.19 2969.12 2902.91 2559.77 2791.74 
3055.9 2489.91 2466.78 2487.16 2593.98 2628.14 2616.63 2783.31 2747.93 
2818.78 2792.17 2652.94 2674.01 2713.89 2743.22 2708.19 2815.68 2892.35 
2911.75 2556.47 2562.26 2539.14 2539.14 2531.38 2555.58 2591.33 2571.47 
2596.26 2581.02 2525.89 2518.6 2907.02 2871.01 2889.42 2811.48 2925.57 
2962.26 2861.28 2792.04 2819.44 2839.02 2929.49 2952.05 2574.31 2575.52 
2612.23 2693.6 2594.99 2641.75 2539.68 2573.59 2595.4 2610.8 2758.78 
2816.07 2874.38 2869.33 2872.17 2858.86 2955.98 3084.65 2511.88 2518.75 
2527.95 2527.95 2522.09 2552.06 2586.4 2600.94 2600.94 2662.91 2680.62 
2680.62 2730.79 2730.79 2759.05 2870.68 2807.78 2999.26 3201.1 2854.14 
3064.14 2682.19 2687.91 2799.31 2729.62 2656.06 2450.49 2952.78 2890.44 
2675 2393.53 3082.9 2999.91 2970.59 2897.38 2802.49 2783.41 2763.01 
2705.64 2617.9 2598.07 2535.75 2529.58 2530.11 2526.81 2511.04 2528.42 
2534.38 2534.38 2545.56 2567.47 2567.47 2552.37 2564.56 2585.47 2614.96 
2615.42 2551.88 2553.93 2526.6 2574.25 2564.09 2604.4 2704.83 2704.83 
2658.47 2681.06 2666.6 2658.89 2672.26 2638.41 2674.2 2661.95 2609.32 
2631.04 2598.85 2646.58 2660.68 2681.43 2673.02 2671.89 2672.84 2660.74 
2606.72 2611 2630.7 2646.31 2661.25 2679.11 2696 2711.78 2728.31 
2659.42 2639.57 2642.2 2619.67 2609.9 2579.23 2567.15 2551.06 2570.07 
2550.44 2535.4 2609.58 2609.58 2634.19 2680.47 2673.01 2657.31 2624.02 
2627.4 2588.8 2566.6 2544.85 2496.01 2531.23 2538.57 2550.83 2609.36 
2576.73 2526.44 2542.99 2562.79 2649.46 2649.46 2655.35 2730.05 2730.05 
2661.36 2690.73 2700.4 2743.35 2743.35 2742.01 2706.93 2735.8 2739.19 
2748.6 2811.93 2806.32 2845.73 2845.73 2848.09 2848.09 2867.44 2857.94 
2833.1 2905.83 2999.44 3030.81 3000.95 2883.06 2855.23 2753.19 2803.75 
2881.59 3039.46 3097.19 3179.52 3186.78 2557.67 2632.1 2739.93 2860.42 
2843.57 2790.48 2812.57 2851.56 2991.05 2978.4 2895.43 2768.53 2691.99 
2646.02 2622.79 2560.51 2535.17 3063.72 2983.98 2937.89 2936.37 2923.99 
2894.62 2799.04 3107.99 2919.49 2815.84 2722.57 2737.48 2799.62 2816.86 
2870.89 2874.77 2819.8 2836.62 2889.48 2874.33 2871.47 2882.26 2864.21 
2792.91 2769.69 2742.96 2619.2 2398.43 2637.98 2616.57 2647.28 2650.93 
2658.93 2701.17 2704.58 2735.41 2658.91 2852.26 2798.47 2825.74 2722.15 
2580.23 2563.93 2498.83 2557.88 2537.26 2566.42 2622.51 2588.86 2598.46 
2642.73 2604.83 2579.58 2517.73 2554.58 2591.88 2598.91 2557.44 2543.25 
2579.06 2562.93 2616.11 2640.33 2711.69 2719.09 2737.93 2658.35 2672.75 
2698.02 2721.63 2715.38 2706.67 2633.01 2606.89 2589.27 2618.8 2659.12 
2641.22 2759.35 2522.59 2517.05 2538.72 2463.05 2742.21 2705.2 2720.68 
2687.12 2661.8 2762.06 2778.6 2841.22 2734.15 2754.78 2686.47 2652.81 
2619.52 2658.85 2658.85 2661.07 2580.77 2685.75 2697.47 2683.42 2655.91 
2579.07 2568.33 2571.77 2556.37 2556.37 2552.54 2557.94 2494.9 2435.15 
2503.44 2503.44 2615.85 2615.85 2583.54 
rGFP 1 392 double
2571.84 2728.33 2589.19 2721.54 2653.11 2603.67 2761.42 2732.07 2810.75 
2756.78 2822.64 2930.09 2960.88 2883.4 2735.38 2791.57 3032.59 3004.54 
2537.75 2820.83 2850.21 3119.06 2875.91 2587.44 2935.21 3352.26 2778.67 
2944.94 3045.22 3173.52 2950.83 2999.79 3175.95 3014.74 2974.64 3201.98 
2971.05 2715.9 2724.74 2795.21 2921.36 2986.63 2972.65 3089.67 3120.84 
3107.32 3096.14 3044.3 3029.62 2974.98 3019.23 3097.01 3134.65 3012.4 
3262.95 2929.69 2935.54 2915.35 2915.35 2959.2 2972.8 2966.58 2970.51 
2993.33 2980.28 2986.06 2982.98 3058.46 3061.05 3067.99 3100 3108.84 
3149.77 3213.1 3219.54 3152.86 3079.22 3134.26 3158.46 2988.47 2957.8 
3003.31 3071.25 2978.88 2993.42 2993.62 2983.15 3038.12 3027.51 3025.17 
3017.23 3038.81 3075.04 3079.8 3158.02 3230.56 3299.44 2961 2927.79 
2927.14 2927.14 2963.77 2991.59 2970.8 2952.75 2952.75 2958.17 2992.31 
2992.31 3112.81 3112.81 3152.04 3170.2 3168.15 3104.28 3216.04 3221.1 
3309.57 2904.23 2937.57 2904.23 2835.68 2811.31 2628.38 3375.27 3431.27 
3327.16 3015.51 3304.36 3162.36 3077.8 2927.58 2852.8 3132.96 3086.57 
3030.7 2859.54 2855.43 2899.72 2905.31 2925.77 2874.16 2902.77 2853.12 
2822.63 2822.63 2808.53 2761.14 2761.14 2780.04 2798.2 2784.85 2788.11 
2822.47 2817.01 2772.59 2775.83 2714.36 2723.11 2728.35 2739.26 2739.26 
2733.7 2719.91 2704.01 2718.47 2727.89 2719.41 2727.85 2729.23 2718.79 
2761.81 2776.62 2796.93 2773.84 2769.89 2798.23 2756.19 2732.26 2749.96 
2728.21 2769.48 2818.4 2787.42 2805.54 2814.88 2808.75 2845.64 2847.33 
2803.88 2821.02 2743.73 2729.6 2783.49 2828.57 2852.05 2905.11 2892.51 
2907.78 2892.49 2828.89 2828.89 2793.98 2768.47 2759.12 2758.52 2768.94 
2743.51 2737.95 2738.09 2755.46 2785.09 2742.14 2768.95 2756.78 2779.1 
2786.28 2818.35 2800.65 2834.21 2837.95 2837.95 2847.35 2862.98 2862.98 
2913.93 2879.68 2866.72 2924.78 2924.78 2883.88 2917.31 2856.36 2908.01 
2948.62 2918.19 3014.95 2995.73 2995.73 2946.8 2946.8 2967.83 2946.2 
2959.7 2990.15 2941.37 2977.12 2886.47 2823.32 2876.04 2860.09 2865.38 
2839.11 2763.91 2825.41 2908.44 2898.67 2659.84 2720.4 2816.35 3040.98 
3059.4 3054.63 3036.37 2990.98 2938.98 2986.27 2932.62 2884.58 2936.21 
2874.14 2825.89 2801.78 2802.67 3039.52 3012.32 2995.56 2989.62 2953.8 
2952.25 2930.09 3093.54 3064.93 2996.26 2836.99 2838.2 2837.33 2878.72 
2933.26 2865.94 2855.69 2836.79 2816.9 2840.69 2828.22 2867.73 2831.8 
2810.74 2784.72 2786 2873.73 2748.44 2887.36 2926.78 2874.46 2863.68 
2836.3 2802.73 2838.35 2854.04 2848.99 3070.52 3169.57 3018.23 2860.54 
2861.98 2870.64 2911.3 2941.46 2944.12 2941.83 2872.75 2909.85 2891.56 
2867.85 2865.9 2802.04 2763.77 2740.47 2711.38 2726.58 2744.73 2748.52 
2772.4 2790.65 2808.26 2781.93 2804.11 2759.9 2754.28 2797.42 2816.46 
2763.81 2732.67 2751.46 2727.88 2663.96 2703.15 2725.49 2712.72 2716.48 
2743.1 2731.58 2790.85 2760.31 2779.85 2692.51 2804.33 2789.15 2762.69 
2726.17 2713.56 2729.35 2729.62 2714.85 2731.9 2750.86 2794.31 2798.59 
2825.12 2803.84 2803.84 2763.17 2721.64 2662.49 2725.06 2749.96 2788.52 
2775.31 2790.78 2752.54 2719.81 2719.81 2701.77 2716.04 2720.32 2704.49 
2751.25 2751.25 2858.54 2858.54 2860.74 
bkstRFP 1 392 double
176.879 242.419 96.799 363.979 468.859 223.359 378.209 608.839 468.199 
344.439 273.609 592.649 590.399 420.609 139.469 486.239 995.179 598.259 
180.149 479.749 439.459 614.709 79.019 209.199 418.679 898.199 392.879 
318.189 554.399 641.229 329.399 382.799 762.729 696.519 353.379 585.349 
849.509 283.519 260.389 280.769 387.589 421.749 410.239 576.919 541.539 
612.389 585.779 446.549 467.619 507.499 536.829 501.799 609.289 685.959 
705.359 350.079 355.869 332.749 332.749 324.989 349.189 384.939 365.079 
389.869 374.629 319.499 312.209 700.629 664.619 683.029 605.089 719.179 
755.869 654.889 585.649 613.049 632.629 723.099 745.659 367.919 369.129 
405.839 487.209 388.599 435.359 333.289 367.199 389.009 404.409 552.389 
609.679 667.989 662.939 665.779 652.469 749.589 878.259 305.489 312.359 
321.559 321.559 315.699 345.669 380.009 394.549 394.549 456.519 474.229 
474.229 524.399 524.399 552.659 664.289 601.389 792.869 994.709 647.749 
857.749 475.799 481.519 592.919 523.229 449.669 244.099 746.389 684.049 
468.609 187.139 876.509 793.519 764.199 690.989 596.099 577.019 556.619 
499.249 411.509 391.679 329.359 323.189 323.719 320.419 304.649 322.029 
327.989 327.989 339.169 361.079 361.079 345.979 358.169 379.079 408.569 