# vtk DataFile Version 3.0
vtk output
ASCII
DATASET POLYDATA
POINTS 281 float
1.35324 -1.4214 1.84652 2.59961 -1.37275 -1.31611 1.20941 -0.909458 1.53162 
1.61877 -0.602361 1.35419 0.96326 -0.480121 1.52064 5.26487 -0.329286 -0.439901 
3.28079 -0.957909 -1.20403 1.67965 0.0138056 1.6855 1.44946 -0.374059 1.72476 
0.51305 -0.46386 1.67665 0.39246 -0.6129 1.61754 4.97579 -0.295263 -0.825747 
4.7727 -0.260465 -0.594448 4.55088 -0.150877 -0.118354 0.847855 -1.27609 -1.39457 
2.17274 -0.113171 0.991279 1.26471 0.0268145 2.02116 0.338662 -0.321374 1.89348 
3.65078 -0.315021 -0.753804 2.60606 -0.0582666 0.678736 2.10713 0.408618 1.38208 
2.00557 0.0945251 1.51842 0.853751 -0.2018 1.28901 2.89741 0.285321 0.464317 
2.53446 0.38868 0.783971 2.33342 0.367292 0.838628 4.74655 0.747469 -0.0986569 
-0.604561 0.38291 1.32855 3.28171 0.651218 -0.847717 -0.671772 0.674589 0.946411 
0.69665 0.277804 -1.78546 0.762951 0.289286 -1.78966 0.814811 0.292013 -1.81246 
0.859942 0.290661 -1.84394 0.90501 0.289271 -1.87551 0.955755 0.291322 -1.89975 
1.01527 0.29869 -1.91269 1.06719 0.301456 -1.93542 1.12016 0.304855 -1.9568 
1.18659 0.316414 -1.96083 1.25266 0.335513 -1.96582 1.3074 0.363238 -1.98639 
1.36115 0.413614 -2.00972 1.41058 0.469138 -2.0391 1.47112 0.523628 -2.05368 
1.54148 0.560826 -2.05412 1.61558 0.584788 -2.04877 1.69099 0.601852 -2.04104 
1.76486 0.61899 -2.03216 1.8293 0.63658 -2.01616 1.8736 0.655134 -1.98499 
1.91644 0.673757 -1.95273 1.97001 0.698743 -1.93179 2.01951 0.73079 -1.911 
2.07975 0.769198 -1.90155 2.14131 0.793801 -1.88662 2.18686 0.80542 -1.85316 
2.23364 0.803237 -1.81416 2.2897 0.807485 -1.78539 2.3338 0.819173 -1.75084 
2.37935 0.830791 -1.71738 2.44484 0.834588 -1.69572 2.51302 0.824505 -1.66961 
2.56268 0.815308 -1.62955 2.61369 0.799172 -1.58727 2.68187 0.789088 -1.56116 
2.74996 0.779009 -1.53499 2.79531 0.783771 -1.49815 2.82981 0.795918 -1.45636 
2.86138 0.808205 -1.41237 2.88895 0.806942 -1.3589 2.91498 0.785134 -1.29457 
2.95855 0.755602 -1.24022 2.98592 0.726855 -1.17366 3.01751 0.704781 -1.11352 
3.05706 0.675451 -1.05614 3.09797 0.646046 -0.999789 3.13772 0.623582 -0.945792 
3.17498 0.621855 -0.899622 3.21899 0.633546 -0.865003 -0.67449 0.600827 1.03877 
-0.681981 0.51542 1.12233 -0.672531 0.441805 1.2078 -0.641098 0.398395 1.2755 
4.79969 0.743218 -0.119323 4.86332 0.722129 -0.124822 4.91658 0.656959 -0.138247 
4.94728 0.544555 -0.162001 4.96067 0.414074 -0.182377 4.98498 0.282312 -0.213371 
5.01452 0.163991 -0.2549 5.04558 0.0456488 -0.297445 5.07649 -0.065095 -0.340846 
5.11425 -0.171677 -0.375423 5.16355 -0.248023 -0.396609 5.21567 -0.299396 -0.415637 
2.05425 0.260548 1.45796 2.15741 0.518494 1.33053 2.20026 0.563192 1.28989 
2.24045 0.547162 1.25261 2.27345 0.505509 1.20758 2.30767 0.474292 1.16352 
2.3363 0.455182 1.11127 2.37439 0.449562 1.07072 2.42396 0.450903 1.04496 
2.48219 0.457487 1.03035 2.52484 0.454656 0.995753 2.54486 0.438616 0.933583 
2.54888 0.415953 0.860408 2.39212 0.342601 0.824858 2.46121 0.352157 0.812961 
2.61308 0.397452 0.763871 2.68211 0.40697 0.751893 2.73426 0.409341 0.727797 
2.77928 0.407893 0.696088 2.8225 0.402777 0.662244 2.85992 0.386055 0.620374 
2.88264 0.345453 0.553963 2.54951 0.208745 0.756342 2.57645 0.0604505 0.721577 
2.9481 0.129075 0.406816 2.98904 -0.0114077 0.363249 3.02863 -0.130527 0.329629 
3.07199 -0.215663 0.301016 3.10849 -0.276505 0.26186 3.14833 -0.304319 0.225034 
3.18584 -0.325801 0.184714 3.21129 -0.362335 0.129353 3.24077 -0.41968 0.0806575 
3.28499 -0.475852 0.05145 3.32757 -0.517502 0.0191417 3.35713 -0.536047 -0.0319101 
3.39038 -0.529107 -0.079689 3.4249 -0.529135 -0.12533 3.45341 -0.548318 -0.177737 
3.48623 -0.572634 -0.224102 3.51094 -0.578613 -0.282391 3.53319 -0.555087 -0.34582 
3.54172 -0.516619 -0.42841 3.54549 -0.481036 -0.517132 3.55543 -0.44947 -0.597418 
3.57756 -0.418249 -0.661488 3.60324 -0.377141 -0.72149 1.53902 0.245619 1.64641 
1.4472 0.418393 1.57458 1.37924 0.513749 1.51002 1.30353 0.554005 1.47566 
1.22563 0.557678 1.46011 1.14887 0.547554 1.45016 1.07343 0.530532 1.44259 
0.999107 0.514183 1.43644 0.932971 0.495046 1.44134 0.88508 0.471473 1.47074 
0.849407 0.424303 1.51786 0.818808 0.356946 1.57299 0.789932 0.27509 1.63115 
0.752978 0.202873 1.67495 0.705751 0.134719 1.68824 0.661168 0.0757107 1.67908 
0.608227 -0.000859273 1.68191 0.561692 -0.10942 1.69207 0.537235 -0.268168 1.69275 
1.60316 0.161039 1.76335 1.53983 0.255234 1.79936 1.48957 0.288662 1.82708 
1.44719 0.275813 1.8636 1.40422 0.22084 1.9056 1.34381 0.131704 1.95021 
1.7282 0.259827 1.67527 1.76647 0.420713 1.63589 1.81698 0.487753 1.60891 
1.86892 0.47763 1.5871 1.91932 0.401966 1.56734 1.96252 0.267662 1.54174 
2.83573 0.107727 0.506805 2.78607 -0.030772 0.548848 2.74888 -0.114687 0.597406 
2.71002 -0.145683 0.63934 2.66204 -0.122809 0.665665 0.910946 -0.337245 1.39335 
1.94869 -0.012016 1.54116 1.89125 -0.0826319 1.56113 1.83338 -0.0977391 1.58185 
1.76001 -0.0638946 1.60836 2.06284 -0.0486978 0.954402 1.97034 -0.0116519 0.928398 
1.89328 -0.0189588 0.919191 1.83062 -0.0566366 0.929947 1.78564 -0.101705 0.964579 
1.74177 -0.146092 1.00064 1.69172 -0.201983 1.02922 1.6537 -0.263474 1.07421 
1.6324 -0.345508 1.14374 1.62718 -0.457063 1.24306 2.22293 -0.091441 0.921805 
2.26067 -0.078847 0.864262 2.28792 -0.0814149 0.806858 2.3232 -0.0784322 0.761923 
2.36336 -0.0673004 0.723052 2.40435 -0.0479152 0.684751 2.45492 -0.038213 0.659794 
2.52509 -0.0398872 0.661557 0.38208 -0.327694 1.85986 0.422267 -0.348616 1.81966 
0.459681 -0.396761 1.75787 0.45434 -0.537657 1.62986 1.07332 -0.560088 1.53168 
1.14497 -0.707751 1.52742 2.20371 -0.296603 1.15712 2.20921 -0.44817 1.27318 
2.17109 -0.56365 1.32252 2.11337 -0.652595 1.3431 2.05559 -0.720927 1.36221 
2.00375 -0.770142 1.38801 1.93896 -0.796215 1.39514 1.86933 -0.791604 1.39396 
1.80513 -0.744615 1.39836 1.72834 -0.674784 1.39115 0.891813 -1.27816 -1.42756 
0.938224 -1.28649 -1.4569 0.99411 -1.30457 -1.47304 1.06853 -1.33467 -1.46383 
1.1454 -1.37105 -1.45096 1.21327 -1.40511 -1.45017 1.28483 -1.41369 -1.44611 
1.35371 -1.4084 -1.44649 1.41354 -1.40084 -1.45903 1.48107 -1.38861 -1.46164 
1.54861 -1.37638 -1.46424 1.60849 -1.36879 -1.47671 1.67714 -1.35588 -1.47788 
1.75153 -1.3395 -1.47165 1.82831 -1.32941 -1.46185 1.90778 -1.3332 -1.44761 
1.99022 -1.35844 -1.42805 2.06827 -1.3941 -1.41366 2.13626 -1.4281 -1.41272 
2.20894 -1.436 -1.40723 2.28467 -1.42655 -1.39877 2.36111 -1.4147 -1.3894 
2.43864 -1.40732 -1.37615 2.51804 -1.40142 -1.35016 4.53732 -0.190711 -0.160453 
4.55059 -0.227391 -0.208918 4.58612 -0.241256 -0.24896 4.62624 -0.237835 -0.28721 
4.65808 -0.223993 -0.337294 4.6769 -0.225826 -0.403751 4.69721 -0.235008 -0.469377 
4.73352 -0.245324 -0.523516 4.79959 -0.283054 -0.681213 4.82948 -0.297266 -0.743631 
4.8812 -0.295156 -0.768281 4.93079 -0.293834 -0.794104 0.615408 -0.602018 1.66498 
0.702046 -0.728844 1.67351 0.780448 -0.809998 1.68764 0.835745 -0.810447 1.66517 
0.884709 -0.69256 1.6024 1.53368 -0.408533 1.74733 1.59815 -0.369202 1.74064 
1.63762 -0.223095 1.7038 3.20692 -0.975047 -1.21292 3.14102 -0.992566 -1.22781 
3.08867 -1.01073 -1.25291 3.0322 -1.02871 -1.27491 2.97985 -1.04687 -1.30001 
2.91538 -1.07134 -1.31274 2.84699 -1.10936 -1.31606 2.79009 -1.1737 -1.3159 
2.74644 -1.25075 -1.32021 2.68445 -1.32588 -1.31363 0.980787 -0.738293 1.54973 
1.03217 -0.90035 1.56217 1.10467 -0.945271 1.55097 1.54634 -0.738346 1.40141 
1.49371 -0.829735 1.44419 1.43859 -0.875006 1.46782 1.38611 -0.887349 1.49392 
1.31809 -0.892633 1.5185 1.29459 -1.16731 1.6875 
LINES 27 334
51 30 31 32 33 34 35 36 37 38 39 40 41 42 43 44 45 46 47 48 49 50 51 52 53 54 55 56 57 58 59 60 61 62 63 64 65 66 67 68 69 70 71 72 73 74 75 76 77 78 79 28 
6 29 80 81 82 83 27 
14 26 84 85 86 87 88 89 90 91 92 93 94 95 5 
4 25 109 110 24 
9 24 111 112 113 114 115 116 117 23 
4 24 118 119 19 
25 23 120 121 122 123 124 125 126 127 128 129 130 131 132 133 134 135 136 137 138 139 140 141 142 18 
21 7 143 144 145 146 147 148 149 150 151 152 153 154 155 156 157 158 159 160 161 9 
8 7 162 163 164 165 166 167 16 
8 7 168 169 170 171 172 173 21 
7 23 174 175 176 177 178 19 
3 22 179 4 
6 21 180 181 182 183 7 
12 15 184 185 186 187 188 189 190 191 192 193 3 
10 15 194 195 196 197 198 199 200 201 19 
5 17 202 203 204 9 
3 9 205 10 
4 4 206 207 2 
12 15 208 209 210 211 212 213 214 215 216 217 3 
7 9 254 255 256 257 258 4 
5 8 259 260 261 7 
5 4 272 273 274 2 
7 3 275 276 277 278 279 2 
3 2 280 0 
16 21 96 20 97 98 99 100 101 102 103 104 105 106 107 108 24 
37 14 218 219 220 221 222 223 224 225 226 227 228 229 230 231 232 233 234 235 236 237 238 239 240 241 1 271 270 269 268 267 266 265 264 263 262 6 
15 13 242 243 244 245 246 247 248 249 12 250 251 252 253 11 

POINT_DATA 281
SCALARS DY_raw double
LOOKUP_TABLE default
59.9422 39.8588 34.9842 26.681 32.1293 35.3448 37.4324 29.9153 22.8691 
22.4498 30.8639 98.87 20.2174 13.0178 20.883 28.0358 24.1688 0 
68.6278 30.1659 32.6269 27.2158 22.2129 34.0273 25.3677 24.2747 36.0583 
19.3503 36.4568 25.2715 32.7073 29.7675 29.7675 29.2346 40.3993 40.3993 
50.7187 44.1229 44.1229 38.4427 46.5827 43.4665 53.8714 44.2033 41.187 
35.737 35.737 36.0891 44.2581 53.9436 42.059 37.3997 32.7688 34.5309 
31.1947 38.2377 31.4484 41.3928 32.2027 34.6501 34.6501 32.15 40.1104 
40.1104 42.0193 46.3801 52.1202 39.296 34.7332 34.7332 33.565 35.2167 
32.8032 33.5498 34.3182 32.3085 31.5997 31.2677 33.0259 36.4568 26.6897 
23.3066 18.6978 19.3558 32.1376 29.0824 34.4503 35.5531 31.4497 28.6216 
15.6378 16.2844 14.9541 15.6347 23.7902 25.4953 25.5196 35.1484 29.9956 
27.1687 26.4153 20.397 20.9029 22.7533 22.7533 25.3144 25.3144 22.4231 
22.6516 23.7536 26.0232 28.968 34.4928 38.5432 39.9349 36.9038 39.9079 
32.7903 31.1529 34.3263 27.4099 28.3454 38.5241 30.1843 33.7328 32.2743 
26.4207 34.8438 38.0684 30.1079 35.3451 32.843 28.2454 31.298 26.1619 
30.6093 28.6099 33.7613 29.5593 27.0572 35.8563 36.3808 58.7074 35.3554 
40.9559 29.4251 23.0343 26.5497 35.03 26.5242 28.8534 29.9054 27.2083 
24.4401 36.4625 32.4636 31.3074 32.0375 30.3642 30.9739 19.1524 19.1485 
31.6931 29.1071 25.3333 24.1433 23.7108 23.623 34.8571 31.5274 29.139 
29.139 23.9989 22.393 24.567 22.0442 25.846 26.6297 30.1885 17.7353 
29.9669 40.8402 44.2588 35.9114 32.9478 37.3909 40.3523 35.6946 24.5766 
30.5389 33.3362 29.8635 27.9532 26.1626 28.3822 34.3903 35.7781 38.698 
34.1167 41.5799 41.5799 36.9575 10.6871 16.0481 22.0207 34.9702 35.0025 
39.6617 32.4074 36.3709 48.3861 41.7255 35.2446 38.1712 36.3762 25.0772 
24.9872 23.3902 19.1969 20.3729 22.3999 20.4799 21.8486 20.4265 23.5289 
24.4023 21.6203 17.7137 18.9946 16.0981 22.0476 18.3088 19.973 22.7033 
21.4463 27.1947 31.3194 24.6306 36.4541 33.9777 39.177 43.907 17.7324 
18.3413 22.0991 23.7687 26.7424 25.7804 22.2676 17.2705 26.0893 44.9016 
68.6433 85.551 26.9989 32.7684 41.7471 37.4001 38.3585 23.2475 25.5321 
28.393 25.2979 21.1104 14.5706 15.9489 13.9145 15.5083 21.8358 29.2075 
37.9957 43.4873 49.1486 43.8789 42.9207 32.4025 31.3691 25.1394 25.7791 
28.1813 42.545 
FIELD FieldData 7
DY_minmax 1 281 double
0.606273 0.403144 0.35384 0.269859 0.324965 0.357488 0.378603 0.302572 0.231305 
0.227064 0.312166 1 0.204485 0.131666 0.211217 0.283563 0.24445 0 
0.694121 0.305107 0.329998 0.275269 0.224668 0.344162 0.256577 0.245521 0.364704 
0.195714 0.368734 0.255603 0.330811 0.301077 0.301077 0.295687 0.408611 0.408611 
0.512984 0.446272 0.446272 0.388821 0.471151 0.439633 0.544871 0.447085 0.416578 
0.361454 0.361454 0.365016 0.44764 0.545602 0.425397 0.378271 0.331434 0.349256 
0.315512 0.386747 0.318079 0.418659 0.325708 0.350462 0.350462 0.325175 0.405688 
0.405688 0.424995 0.469101 0.527159 0.397451 0.351302 0.351302 0.339486 0.356192 
0.331781 0.339333 0.347105 0.326778 0.319608 0.31625 0.334034 0.368734 0.269948 
0.23573 0.189115 0.195771 0.325049 0.294148 0.34844 0.359595 0.318091 0.289487 
0.158165 0.164705 0.15125 0.158134 0.240621 0.257867 0.258113 0.355502 0.303384 
0.274792 0.267172 0.206301 0.211418 0.230134 0.230134 0.256037 0.256037 0.226793 
0.229105 0.240251 0.263206 0.29299 0.348871 0.389837 0.403914 0.373256 0.403641 
0.331651 0.31509 0.347186 0.277232 0.286694 0.389644 0.305293 0.341183 0.326432 
0.267226 0.35242 0.385035 0.30452 0.357491 0.332183 0.285682 0.316557 0.264609 
0.309591 0.289369 0.341472 0.298972 0.273665 0.362661 0.367966 0.593784 0.357595 
0.41424 0.297614 0.232976 0.268531 0.354304 0.268273 0.291832 0.302472 0.275193 
0.247195 0.368792 0.328346 0.316652 0.324037 0.307113 0.313279 0.193713 0.193673 
0.320553 0.294398 0.256229 0.244192 0.239818 0.23893 0.352555 0.318877 0.294721 
0.294721 0.242732 0.226489 0.248478 0.222961 0.261414 0.269341 0.305335 0.17938 
0.303093 0.41307 0.447646 0.363218 0.333244 0.378183 0.408135 0.361026 0.248575 
0.30888 0.337172 0.302048 0.282727 0.264616 0.287066 0.347833 0.36187 0.391403 
0.345066 0.420551 0.420551 0.373799 0.108092 0.162315 0.222724 0.353699 0.354026 
0.40115 0.327778 0.367866 0.489391 0.422024 0.356474 0.386075 0.36792 0.253638 
0.252728 0.236575 0.194163 0.206057 0.226559 0.207139 0.220983 0.206599 0.237978 
0.246812 0.218674 0.179162 0.192117 0.162821 0.222996 0.18518 0.202013 0.229628 
0.216914 0.275055 0.316773 0.249121 0.368708 0.343661 0.396247 0.444088 0.179351 
0.18551 0.223517 0.240403 0.27048 0.26075 0.225221 0.174679 0.263875 0.454148 
0.694278 0.865288 0.273074 0.331429 0.422243 0.378275 0.387969 0.235132 0.25824 
0.287175 0.25587 0.213517 0.147371 0.161312 0.140735 0.156855 0.220854 0.295413 
0.384299 0.439843 0.497103 0.443804 0.434113 0.327729 0.317276 0.254267 0.260737 
0.285034 0.430312 
WidthEq 1 281 double
1.53481 4.51293 4.99169 7.11817 3.66613 2.11912 3.67596 7.49483 4.40376 
7.72835 2.49872 1 4.26958 2.64945 3.24618 6.25378 6.40538 1.53205 
1.43892 5.37594 8.5022 7.33324 1.95787 6.13478 6.61509 5.49132 4.66245 
5.70379 5.90782 8.45339 4.12661 6.93139 6.93139 7.82976 6.51644 6.51644 
5.03187 5.29816 5.29816 5.08913 4.40979 4.92356 4.26423 4.85009 5.11569 
5.68655 5.68655 5.86936 5.33506 4.98669 5.40336 5.8685 6.26327 6.45074 
6.57836 6.53335 6.89414 6.5637 7.0109 6.9157 6.9157 7.10731 6.97675 
6.97675 6.17169 5.73415 5.17726 6.4228 6.63717 6.63717 6.51006 6.26948 
6.58198 7.30167 7.24338 7.82579 7.95324 7.85028 6.99934 5.90782 10.0125 
9.98729 8.87162 7.53674 5.57789 7.1913 7.49225 6.95916 6.7015 7.66764 
8.51272 8.07397 8.26799 7.48018 4.32994 4.22784 8.73485 7.59038 7.50277 
7.30547 7.28253 7.80458 7.54537 6.3683 6.3683 5.39732 5.39732 5.88367 
6.7748 6.35778 6.31052 6.43366 6.00009 5.63757 5.76588 6.92639 6.64855 
6.98469 5.99077 5.41509 5.88436 5.62101 4.76662 5.39784 5.32627 5.33334 
5.51046 4.85854 4.72833 5.02825 4.71833 4.64848 4.79335 4.68177 4.99772 
4.65969 4.95633 4.77973 4.98117 5.75484 4.77266 4.36219 2.53597 7.22096 
6.28017 7.5721 7.84873 6.90328 4.90408 5.52477 5.15225 4.545 4.7956 
5.14604 4.28303 4.98651 5.29971 5.2014 5.74294 6.46608 8.39165 8.39441 
9.20516 9.97625 10.112 8.96233 8.46322 8.15986 8.64845 9.76326 9.47904 
9.47904 9.46834 8.92422 6.44849 6.98279 6.18083 5.15139 4.8651 3.241 
6.76014 5.40129 5.00669 6.11115 6.27568 5.67758 5.00393 4.97134 6.30966 
5.44354 5.58341 6.33415 6.40641 6.45005 6.41986 5.80658 5.52909 5.26798 
5.66878 5.01204 5.01204 5.70655 4.68884 5.87919 6.74048 4.52327 4.5331 
4.93978 5.73018 6.46643 6.0877 7.0554 6.98434 6.11874 6.17876 6.17255 
6.01268 7.01021 5.5384 7.69455 7.55002 8.94147 7.5959 8.47185 7.50398 
7.84597 8.50082 8.54704 8.35871 9.53095 9.26949 9.8319 9.13083 7.27339 
7.63022 6.86017 5.88454 6.43021 5.27073 5.63222 4.96133 4.40841 3.79306 
4.19163 4.73368 3.9043 4.39789 4.46774 4.98393 4.58122 3.53747 2.64979 
2.02875 1.53464 7.03918 6.61613 5.49235 5.71362 4.93684 4.10367 4.74265 
5.34886 4.8344 5.79192 6.13426 5.95714 6.0958 6.31018 5.98146 5.82762 
5.23797 4.55949 3.5999 3.67078 3.75063 7.72594 7.93169 8.99424 7.64264 
7.10507 3.86015 
rRFP 1 281 double
2345.21 2517.89 2545.65 2668.95 2468.79 2379.09 2469.36 2690.79 2511.56 
2704.33 2401.1 2314.2 2503.78 2409.84 2444.44 2618.83 2627.62 2345.05 
2339.65 2567.93 2749.2 2681.42 2369.74 2611.93 2639.78 2574.62 2526.56 
2586.94 2598.77 2746.37 2495.49 2658.12 2658.12 2710.21 2634.06 2634.06 
2547.98 2563.42 2563.42 2551.3 2511.91 2541.7 2503.47 2537.44 2552.84 
2585.94 2585.94 2596.54 2565.56 2545.36 2569.52 2596.49 2619.38 2630.25 
2637.65 2635.04 2655.96 2636.8 2662.73 2657.21 2657.21 2668.32 2660.75 
2660.75 2614.07 2588.7 2556.41 2628.63 2641.06 2641.06 2633.69 2619.74 
2637.86 2679.59 2676.21 2709.98 2717.37 2711.4 2662.06 2598.77 2836.77 
2835.31 2770.62 2693.22 2579.64 2673.19 2690.64 2659.73 2644.79 2700.81 
2749.81 2724.37 2735.62 2689.94 2507.28 2501.36 2762.69 2696.33 2691.25 
2679.81 2678.48 2708.75 2693.72 2625.47 2625.47 2569.17 2569.17 2597.37 
2649.04 2624.86 2622.12 2629.26 2604.12 2583.1 2590.54 2657.83 2641.72 
2661.21 2603.58 2570.2 2597.41 2582.14 2532.6 2569.2 2565.05 2565.46 
2575.73 2537.93 2530.38 2547.77 2529.8 2525.75 2534.15 2527.68 2546 
2526.4 2543.6 2533.36 2545.04 2589.9 2532.95 2509.15 2403.26 2674.91 
2620.36 2695.27 2711.31 2656.49 2540.57 2576.56 2554.96 2519.75 2534.28 
2554.6 2504.56 2545.35 2563.51 2557.81 2589.21 2631.14 2742.79 2742.95 
2789.96 2834.67 2842.54 2775.88 2746.94 2729.35 2757.68 2822.32 2805.84 
2805.84 2805.22 2773.67 2630.12 2661.1 2614.6 2554.91 2538.31 2444.14 
2648.19 2569.4 2546.52 2610.56 2620.1 2585.42 2546.36 2544.47 2622.07 
2571.85 2579.96 2623.49 2627.68 2630.21 2628.46 2592.9 2576.81 2561.67 
2584.91 2546.83 2546.83 2587.1 2528.09 2597.11 2647.05 2518.49 2519.06 
2542.64 2588.47 2631.16 2609.2 2665.31 2661.19 2611 2614.48 2614.12 
2604.85 2662.69 2577.35 2702.37 2693.99 2774.67 2696.65 2747.44 2691.32 
2711.15 2749.12 2751.8 2740.88 2808.85 2793.69 2826.3 2785.65 2677.95 
2698.64 2653.99 2597.42 2629.06 2561.83 2582.79 2543.89 2511.83 2476.15 
2499.26 2530.69 2482.6 2511.22 2515.27 2545.2 2521.85 2461.33 2409.86 
2373.85 2345.2 2664.37 2639.84 2574.68 2587.51 2542.47 2494.16 2531.21 
2566.36 2536.53 2592.05 2611.9 2601.63 2609.67 2622.1 2603.04 2594.12 
2559.93 2520.59 2464.95 2469.06 2473.69 2704.19 2716.12 2777.73 2699.36 
2668.19 2480.04 
rGFP 1 281 double
2537.14 2625.02 2619.77 2635.06 2562.93 2520.04 2582.74 2669.35 2545.85 
2618.64 2522.26 2544.01 2531.46 2479.63 2512.93 2620.47 2599.95 2445.14 
2543.89 2607.31 2722.54 2644.72 2488.63 2653.89 2612.95 2578.44 2613.26 
2555.51 2660.52 2658.77 2580.11 2651.47 2651.47 2674.04 2708.4 2708.4 
2700.35 2678.91 2678.91 2640.78 2650.56 2659.15 2674.86 2659.53 2655.84 
2648.36 2648.36 2656.96 2681.26 2714.14 2672.4 2664.62 2650.38 2667.89 
2650.35 2694.96 2661.95 2716.83 2670.91 2684.77 2684.77 2673.64 2724.98 
2724.98 2704.47 2711.09 2714.98 2697.53 2675.67 2675.67 2663.65 2665.93 
2661.05 2690.11 2693.72 2697.98 2696.46 2690.6 2676.3 2660.52 2712.37 
2677.91 2611.02 2591.02 2624.4 2654.28 2703.25 2692.56 2655.9 2664.6 
2578.26 2576.62 2568.78 2562.09 2548.15 2552.93 2668.05 2711.93 2670.19 
2643.62 2637.51 2604.33 2602.86 2590.04 2590.04 2581.77 2581.77 2577.07 
2598.6 2596.16 2609.36 2631.51 2652.1 2662.43 2675.4 2700.75 2710.47 
2674.17 2631.77 2631.02 2606.43 2604.47 2628.77 2608.07 2624.81 2617.27 
2590.73 2614.43 2625.14 2596.53 2611.91 2597.81 2580.53 2591.67 2575.89 
2587.77 2586.94 2606.51 2592.38 2600.85 2616.27 2603.84 2594.02 2700.44 
2702.35 2667.95 2625.93 2628.42 2616.93 2591.68 2593.8 2581.06 2575.62 
2570.91 2601.31 2607.02 2611.06 2611.78 2619.52 2645.42 2605.86 2605.88 
2736.88 2735.52 2701.31 2661.52 2645.81 2637.9 2746.6 2752.95 2721.35 
2721.35 2672.37 2644.98 2603.56 2599.07 2604.89 2582.32 2592.01 2502.62 
2647.72 2665.73 2666.73 2664.6 2651.91 2657.43 2647.06 2622.59 2600.21 
2611.38 2631.27 2634.3 2624.22 2613.89 2627.35 2644.83 2642.96 2649 
2638.54 2653.54 2653.54 2656.04 2495.25 2539.49 2593.57 2603.32 2603.81 
2641.06 2630.84 2680.33 2739.7 2739.53 2691.3 2678.7 2669.9 2599.93 
2595.38 2609.11 2551.46 2601.9 2614.26 2628.26 2611.1 2618.19 2621.7 
2636.6 2628.93 2596.54 2603.91 2598.57 2649.51 2625.15 2627.51 2610.27 
2608.78 2631.7 2629.44 2603.52 2637.28 2636.51 2639.51 2638.7 2512.4 
2522.02 2549.75 2537.94 2562.75 2560.32 2556.12 2524.26 2537.43 2564.12 
2584.4 2576.43 2635.19 2661.94 2674.43 2658.83 2634.51 2540.54 2566.23 
2597.01 2567.44 2567.41 2534.52 2540.15 2529.96 2543 2575.75 2615.35 
2644.16 2643.42 2622.07 2606.21 2606.12 2695.48 2693.95 2671.25 2642.16 
2645.37 2609.37 
bkstRFP 1 281 double
88.993 261.673 289.433 412.733 212.573 122.873 213.143 434.573 255.343 
448.113 144.883 57.983 247.563 153.623 188.223 362.613 371.403 88.833 
83.433 311.713 492.983 425.203 113.523 355.713 383.563 318.403 270.343 
330.723 342.553 490.153 239.273 401.903 401.903 453.993 377.843 377.843 
291.763 307.203 307.203 295.083 255.693 285.483 247.253 281.223 296.623 
329.723 329.723 340.323 309.343 289.143 313.303 340.273 363.163 374.033 
381.433 378.823 399.743 380.583 406.513 400.993 400.993 412.103 404.533 
404.533 357.853 332.483 300.193 372.413 384.843 384.843 377.473 363.523 
381.643 423.373 419.993 453.763 461.153 455.183 405.843 342.553 580.553 
579.093 514.403 437.003 323.423 416.973 434.423 403.513 388.573 444.593 
493.593 468.153 479.403 433.723 251.063 245.143 506.473 440.113 435.033 
423.593 422.263 452.533 437.503 369.253 369.253 312.953 312.953 341.153 
392.823 368.643 365.903 373.043 347.903 326.883 334.323 401.613 385.503 
404.993 347.363 313.983 341.193 325.923 276.383 312.983 308.833 309.243 
319.513 281.713 274.163 291.553 273.583 269.533 277.933 271.463 289.783 
270.183 287.383 277.143 288.823 333.683 276.733 252.933 147.043 418.693 
364.143 439.053 455.093 400.273 284.353 320.343 298.743 263.533 278.063 
298.383 248.343 289.133 307.293 301.593 332.993 374.923 486.573 486.733 
533.743 578.453 586.323 519.663 490.723 473.133 501.463 566.103 549.623 
549.623 549.003 517.453 373.903 404.883 358.383 298.693 282.093 187.923 
391.973 313.183 290.303 354.343 363.883 329.203 290.143 288.253 365.853 
315.633 323.743 367.273 371.463 373.993 372.243 336.683 320.593 305.453 
328.693 290.613 290.613 330.883 271.873 340.893 390.833 262.273 262.843 
286.423 332.253 374.943 352.983 409.093 404.973 354.783 358.263 357.903 
348.633 406.473 321.133 446.153 437.773 518.453 440.433 491.223 435.103 
454.933 492.903 495.583 484.663 552.633 537.473 570.083 529.433 421.733 
442.423 397.773 341.203 372.843 305.613 326.573 287.673 255.613 219.933 
243.043 274.473 226.383 255.003 259.053 288.983 265.633 205.113 153.643 
117.633 88.983 408.153 383.623 318.463 331.293 286.253 237.943 274.993 
310.143 280.313 335.833 355.683 345.413 353.453 365.883 346.823 337.903 
303.713 264.373 208.733 212.843 217.473 447.973 459.903 521.513 443.143 
411.973 223.823 
bkstGFP 1 281 double
92 179.88 174.63 189.92 117.79 74.9 137.6 224.21 100.71 
173.5 77.12 98.87 86.32 34.49 67.79 175.33 154.81 0 
98.75 162.17 277.4 199.58 43.49 208.75 167.81 133.3 168.12 
110.37 215.38 213.63 134.97 206.33 206.33 228.9 263.26 263.26 
255.21 233.77 233.77 195.64 205.42 214.01 229.72 214.39 210.7 
203.22 203.22 211.82 236.12 269 227.26 219.48 205.24 222.75 
205.21 249.82 216.81 271.69 225.77 239.63 239.63 228.5 279.84 
279.84 259.33 265.95 269.84 252.39 230.53 230.53 218.51 220.79 
215.91 244.97 248.58 252.84 251.32 245.46 231.16 215.38 267.23 
232.77 165.88 145.88 179.26 209.14 258.11 247.42 210.76 219.46 
133.12 131.48 123.64 116.95 103.01 107.79 222.91 266.79 225.05 
198.48 192.37 159.19 157.72 144.9 144.9 136.63 136.63 131.93 
153.46 151.02 164.22 186.37 206.96 217.29 230.26 255.61 265.33 
229.03 186.63 185.88 161.29 159.33 183.63 162.93 179.67 172.13 
145.59 169.29 180 151.39 166.77 152.67 135.39 146.53 130.75 
142.63 141.8 161.37 147.24 155.71 171.13 158.7 148.88 255.3 
257.21 222.81 180.79 183.28 171.79 146.54 148.66 135.92 130.48 
125.77 156.17 161.88 165.92 166.64 174.38 200.28 160.72 160.74 
291.74 290.38 256.17 216.38 200.67 192.76 301.46 307.81 276.21 
276.21 227.23 199.84 158.42 153.93 159.75 137.18 146.87 57.48 
202.58 220.59 221.59 219.46 206.77 212.29 201.92 177.45 155.07 
166.24 186.13 189.16 179.08 168.75 182.21 199.69 197.82 203.86 
193.4 208.4 208.4 210.9 50.11 94.35 148.43 158.18 158.67 
195.92 185.7 235.19 294.56 294.39 246.16 233.56 224.76 154.79 
150.24 163.97 106.32 156.76 169.12 183.12 165.96 173.05 176.56 
191.46 183.79 151.4 158.77 153.43 204.37 180.01 182.37 165.13 
163.64 186.56 184.3 158.38 192.14 191.37 194.37 193.56 67.26 
76.88 104.61 92.8 117.61 115.18 110.98 79.12 92.29 118.98 
139.26 131.29 190.05 216.8 229.29 213.69 189.37 95.4 121.09 
151.87 122.3 122.27 89.38 95.01 84.82 97.86 130.61 170.21 
199.02 198.28 176.93 161.07 160.98 250.34 248.81 226.11 197.02 
200.23 164.23 
tubeWidth 1 281 double
0.024056 0.182249 0.16732 0.179019 0.12139 0.0236341 0.225188 0.111234 0.153558 
0.294029 0.079094 0.0660603 0.11131 0.199853 0.180655 0.266962 0.168703 0.0861549 
0.114572 0.127652 0.20782 0.130952 0.0425175 0.176312 0.200376 0.0387249 0.143816 
0.17662 0.154868 0.231717 0.234436 0.298554 0.289031 0.24612 0.221697 0.18748 
0.191146 0.209257 0.181369 0.206649 0.185986 0.21266 0.218834 0.222799 0.220583 
0.22983 0.235991 0.243105 0.220457 0.200759 0.204635 0.200104 0.207039 0.204437 
0.231473 0.244999 0.235157 0.239919 0.219511 0.212515 0.214469 0.212189 0.222543 
0.254618 0.193571 0.223508 0.185315 0.223184 0.243819 0.278024 0.257715 0.213251 
0.232001 0.242183 0.22629 0.245955 0.257815 0.270694 0.239588 0.185465 0.233563 
0.257105 0.27527 0.238223 0.187883 0.238355 0.283726 0.215126 0.217445 0.173971 
0.191737 0.227658 0.268694 0.294243 0.261445 0.122212 0.166994 0.0871815 0.184698 
0.19212 0.170617 0.226004 0.224488 0.164576 0.138016 0.171077 0.157211 0.138663 
0.171027 0.102462 0.113724 0.170126 0.177858 0.193376 0.19423 0.2042 0.195161 
0.174362 0.0945759 0.140932 0.209448 0.249918 0.172355 0.182894 0.177328 0.233127 
0.245287 0.222699 0.223724 0.237367 0.23208 0.231023 0.227569 0.210089 0.219208 
0.222681 0.225389 0.250701 0.255521 0.280394 0.279812 0.288181 0.240145 0.100975 
0.188916 0.22595 0.201691 0.179112 0.193874 0.214693 0.165523 0.22477 0.223501 
0.255204 0.218301 0.224652 0.221076 0.170202 0.159168 0.216702 0.196738 0.273605 
0.156488 0.220429 0.209815 0.214897 0.25406 0.208211 0.133581 0.247518 0.259823 
0.273877 0.21452 0.130735 0.110349 0.200532 0.221583 0.200053 0.138951 0.105942 
0.140994 0.113776 0.137036 0.198527 0.146298 0.148049 0.154023 0.180808 0.218424 
0.202097 0.224954 0.198178 0.193473 0.124644 0.232651 0.197528 0.1946 0.223207 
0.227875 0.184203 0.174026 0.228168 0.142925 0.199828 0.262604 0.163546 0.125188 
0.0659097 0.187931 0.225041 0.204613 0.241932 0.25466 0.1716 0.150384 0.170943 
0.199938 0.137201 0.269526 0.26838 0.252114 0.276354 0.244507 0.247824 0.275276 
0.245694 0.23283 0.227623 0.234525 0.247773 0.263681 0.279936 0.256303 0.249421 
0.267352 0.25808 0.228233 0.209362 0.214559 0.214365 0.205685 0.143882 0.155781 
0.174201 0.243812 0.232562 0.201203 0.164609 0.179147 0.209786 0.207412 0.193166 
0.193211 0.133932 0.236116 0.188845 0.210361 0.249271 0.201042 0.152694 0.123721 
0.122546 0.228856 0.192954 0.213734 0.208915 0.245443 0.217435 0.20789 0.228352 
0.205234 0.233568 0.0617489 0.0998568 0.122726 0.281586 0.275558 0.238526 0.217316 
0.193318 0.157868 
