# vtk DataFile Version 3.0
vtk output
ASCII
DATASET POLYDATA
POINTS 327 float
2.04281 1.00193 0.837105 1.92263 1.02887 0.637215 3.25251 1.11966 0.395232 
0.0548397 -0.1409 0.0975753 5.04118 0.379135 0.0114204 3.57093 1.72108 0.122838 
3.55596 1.47673 0.0989066 -0.15246 -0.329307 -0.124359 -0.37383 -0.345152 -0.32971 
5.89056 0.120249 -0.404697 5.65255 0.257626 -0.394419 1.16545 -0.985118 -0.572998 
0.182146 -0.819601 -0.636584 -0.637411 0.156682 -0.485313 -0.644604 -0.0971675 -0.858026 
3.98308 0.968968 -0.882719 4.11774 0.864887 -1.19501 7.37946 -0.605268 -1.25982 
7.09834 -0.367114 -1.24031 0.230273 -0.652992 -1.35662 -0.471014 -0.308728 -1.3992 
4.48751 0.263544 -1.74858 0.502451 -0.679912 -1.75764 -0.23896 -0.251694 -1.70947 
4.65549 0.696097 -1.97234 4.5543 0.653311 -1.9778 4.61509 0.155652 -2.15933 
3.82039 0.718265 -2.18191 5.12276 -0.584242 -2.49262 5.3323 -0.391047 -2.67211 
6.08067 -0.152294 -2.89977 6.72635 -0.340298 -3.05112 5.58292 -0.367578 -3.06851 
5.65469 -0.399439 -3.04091 5.72627 -0.432731 -2.99857 5.79785 -0.466025 -2.95622 
5.86962 -0.497886 -2.92862 5.94177 -0.526882 -2.9305 6.01392 -0.555877 -2.93239 
6.08603 -0.584773 -2.93427 6.15743 -0.612001 -2.93599 6.22524 -0.62711 -2.96636 
6.28655 -0.625139 -3.01004 6.34908 -0.626017 -3.05397 6.40392 -0.611729 -3.0742 
6.4507 -0.580467 -3.07801 6.49082 -0.533649 -3.08038 6.53703 -0.499186 -3.09877 
6.58732 -0.472291 -3.13272 6.63772 -0.445901 -3.15184 6.68504 -0.407929 -3.12521 
5.6111 -0.30315 -2.98746 5.64122 -0.238595 -2.94359 5.68041 -0.190532 -2.93841 
5.73652 -0.178276 -2.96627 5.79137 -0.163079 -2.99386 5.843 -0.141306 -3.0134 
5.89437 -0.122645 -3.00348 5.95024 -0.118272 -2.96513 6.01674 -0.139702 -2.92169 
5.52553 -0.386208 -2.96686 5.46224 -0.390142 -2.8713 5.40031 -0.397218 -2.77603 
6.6448 -0.287147 -3.04701 6.58978 -0.240911 -3.04323 6.52745 -0.206293 -3.04067 
6.45701 -0.176498 -3.03868 6.38496 -0.147459 -3.03679 6.31276 -0.11928 -3.02754 
6.24119 -0.0944486 -3.00372 6.17501 -0.0850493 -2.95901 6.12421 -0.111583 -2.91758 
6.80524 -0.326523 -2.98922 6.86633 -0.311842 -2.94236 6.92288 -0.303714 -2.9185 
6.98473 -0.310331 -2.90346 7.04448 -0.312212 -2.88799 7.1061 -0.320354 -2.85821 
7.1617 -0.31534 -2.8198 7.21696 -0.312374 -2.75926 7.27716 -0.323761 -2.67772 
7.33101 -0.324031 -2.5654 7.38078 -0.316683 -2.43752 7.43041 -0.310194 -2.30228 
7.48269 -0.316034 -2.16076 7.53261 -0.353404 -2.00744 7.55038 -0.416528 -1.84215 
7.52836 -0.485669 -1.67797 7.48322 -0.534056 -1.52695 7.43172 -0.570883 -1.38977 
5.298 -0.346049 -2.66818 5.25134 -0.306949 -2.65753 5.21873 -0.262585 -2.63876 
5.19679 -0.214388 -2.61204 5.18433 -0.16083 -2.59955 5.17858 -0.10308 -2.60146 
5.15435 -0.0517954 -2.61912 5.1486 0.00662626 -2.62839 5.13455 0.0608671 -2.63075 
5.10183 0.10586 -2.61936 5.04412 0.138931 -2.59456 4.98425 0.169064 -2.54775 
4.93643 0.203618 -2.4929 4.87472 0.232853 -2.44621 4.80471 0.257499 -2.41246 
4.73708 0.266814 -2.36529 4.6768 0.233333 -2.28001 5.30222 -0.461619 -2.6719 
5.26547 -0.524026 -2.64867 5.20706 -0.565614 -2.58648 5.04438 -0.552618 -2.3938 
4.9924 -0.510477 -2.32339 4.9409 -0.47416 -2.28331 4.89501 -0.436645 -2.25049 
4.83365 -0.406469 -2.21113 4.76655 -0.37804 -2.17946 4.71832 -0.33893 -2.17628 
4.7092 -0.280581 -2.2005 4.69721 -0.222764 -2.23226 4.67762 -0.169519 -2.24966 
4.65626 -0.11837 -2.25241 4.63476 -0.068065 -2.24532 4.61478 -0.015704 -2.23057 
4.60451 0.0524228 -2.20175 3.8849 0.694002 -2.07924 3.93889 0.695265 -1.98166 
3.98353 0.717451 -1.87473 4.01715 0.761289 -1.73234 4.05057 0.80329 -1.55664 
4.09241 0.828998 -1.36878 4.55186 0.218428 -1.95557 4.61409 0.654166 -1.98439 
4.59571 0.695243 -1.96575 4.51062 0.608733 -1.88593 4.48626 0.54784 -1.82518 
4.48108 0.485347 -1.79907 4.46577 0.416442 -1.78859 4.45884 0.341985 -1.77358 
4.69584 0.729242 -1.87184 4.75618 0.718471 -1.79768 4.82596 0.688166 -1.74763 
4.89529 0.652797 -1.69063 4.95188 0.610458 -1.61958 4.97426 0.552308 -1.53563 
4.97352 0.485732 -1.46767 4.99264 0.429579 -1.42078 5.02414 0.381487 -1.40272 
5.01796 0.320784 -1.40125 4.98773 0.260956 -1.40001 4.94639 0.215646 -1.38262 
4.90116 0.176085 -1.34239 4.83867 0.176862 -1.29846 4.76859 0.198204 -1.27496 
4.70232 0.217651 -1.30866 4.64514 0.220092 -1.40343 4.58 0.228936 -1.55972 
-0.326479 -0.251345 -1.67956 -0.403958 -0.265883 -1.5666 -0.172324 -0.302527 -1.67758 
-0.145196 -0.367114 -1.62024 -0.0966118 -0.412776 -1.57194 -0.0392765 -0.450521 -1.54883 
0.0075826 -0.490887 -1.5447 0.0668879 -0.52599 -1.5399 0.125908 -0.563242 -1.51299 
0.172108 -0.609294 -1.44989 0.429485 -0.664961 -1.6306 0.36058 -0.657628 -1.51913 
0.297942 -0.662128 -1.43106 -0.558241 -0.277676 -1.33529 -0.603773 -0.239705 -1.25217 
-0.628305 -0.199072 -1.14558 -0.641598 -0.155621 -1.00322 -0.429917 -0.397461 -1.20386 
-0.402575 -0.470948 -1.03946 -0.379632 -0.53394 -0.916265 -0.346248 -0.587064 -0.836643 
-0.2877 -0.62722 -0.780246 -0.218039 -0.661205 -0.737997 -0.147507 -0.694206 -0.68075 
-0.0809847 -0.71877 -0.615289 -0.0219661 -0.729924 -0.551104 0.0358113 -0.754639 -0.532916 
0.0928889 -0.790203 -0.565407 0.19657 -0.703511 -1.1362 0.18894 -0.76357 -0.896508 
4.07536 0.913434 -1.03455 7.02486 -0.348144 -1.13521 6.95157 -0.327743 -1.04486 
6.87847 -0.30591 -0.969248 6.80556 -0.282644 -0.908384 6.73274 -0.25866 -0.854894 
6.66007 -0.234063 -0.808789 6.58791 -0.212565 -0.748086 6.51949 -0.201661 -0.673474 
6.45671 -0.206776 -0.578029 6.38819 -0.197252 -0.488671 6.31782 -0.175677 -0.420493 
6.25827 -0.142823 -0.403188 6.22247 -0.0957538 -0.428849 6.18864 -0.0458238 -0.476533 
6.14087 -0.00178747 -0.524969 6.09588 0.0413962 -0.551125 6.03479 0.0750715 -0.548641 
5.96375 0.0998047 -0.495056 3.9941 1.07554 -0.874705 3.98373 1.14362 -0.845898 
3.96146 1.19141 -0.791925 3.92821 1.23111 -0.723989 3.8808 1.26381 -0.646999 
3.84722 1.30168 -0.561872 3.82265 1.34268 -0.4689 3.79807 1.38436 -0.383288 
3.76263 1.42144 -0.298272 3.70209 1.44655 -0.199861 3.6301 1.46345 -0.0651688 
-0.66556 -0.0288897 -0.723271 -0.678277 0.0301887 -0.630238 -0.663646 0.0915441 -0.553382 
3.92165 0.885598 -0.722906 3.86558 0.836943 -0.594387 3.80963 0.816946 -0.495325 
3.75458 0.83006 -0.407927 3.71786 0.863042 -0.308445 3.68038 0.897792 -0.208791 
3.61965 0.922153 -0.10301 3.54824 0.942674 -0.00517587 3.47673 0.963153 0.092643 
3.41458 0.989241 0.173775 3.36713 1.02362 0.248446 3.30997 1.06286 0.318512 
0.268937 -0.862348 -0.540374 0.332685 -0.869351 -0.465808 0.390163 -0.867327 -0.425171 
0.456252 -0.881428 -0.430653 0.523213 -0.895476 -0.453481 0.585147 -0.895898 -0.489941 
0.652203 -0.90923 -0.520144 0.718545 -0.920895 -0.550194 0.775562 -0.912637 -0.563537 
0.832483 -0.905094 -0.569516 0.898445 -0.919624 -0.570078 0.965121 -0.935821 -0.570792 
1.02662 -0.939916 -0.570397 1.0941 -0.957991 -0.571283 5.5804 0.286621 -0.392532 
5.50825 0.315618 -0.390646 5.43615 0.344512 -0.388768 5.36475 0.37174 -0.387043 
5.29718 0.389099 -0.378782 5.2353 0.390329 -0.349689 5.16768 0.399364 -0.275257 
5.1001 0.401718 -0.149367 -0.308049 -0.367704 -0.264064 -0.248911 -0.37379 -0.204349 
-0.192866 -0.370766 -0.15868 -0.115673 -0.294061 -0.0609167 -0.082059 -0.307651 -0.0320316 
-0.0975837 -0.337287 -0.0574375 3.52363 1.52257 0.102943 3.48997 1.56772 0.106895 
3.49599 1.62756 0.112786 3.5268 1.6851 0.118773 3.52646 1.40979 0.0622503 
3.49204 1.35151 0.0486995 3.44663 1.31518 0.0669209 3.39632 1.28771 0.105775 
3.34529 1.25654 0.174042 3.29636 1.2064 0.272736 0.08726 -0.0976641 0.265934 
0.126097 -0.0647363 0.396168 0.16353 -0.0219572 0.475231 0.203464 0.0196658 0.517007 
0.236839 0.0775613 0.552834 0.266065 0.143279 0.604248 0.294483 0.209946 0.6632 
0.322996 0.277331 0.714766 0.352507 0.345196 0.744067 0.386167 0.40524 0.757779 
0.426616 0.450353 0.762684 0.465802 0.498415 0.767858 0.511683 0.53083 0.771599 
0.561522 0.553992 0.774491 0.612074 0.575485 0.777231 0.662669 0.596878 0.779962 
0.713169 0.617555 0.790067 0.76348 0.6368 0.814911 0.813547 0.653795 0.861861 
0.864286 0.669223 0.908677 0.918511 0.679315 0.932683 0.975372 0.688877 0.912018 
1.02136 0.726679 0.871621 1.07314 0.749976 0.837344 1.13287 0.750013 0.838118 
1.18299 0.767826 0.877702 1.22388 0.805359 0.933984 1.27474 0.820495 0.980763 
1.34033 0.804009 1.00233 1.41089 0.778751 1.00079 1.47856 0.763026 0.977807 
1.53993 0.765814 0.926771 1.60212 0.769468 0.853493 1.65386 0.799455 0.767767 
1.6948 0.852811 0.699043 1.73675 0.900967 0.652165 1.77626 0.951087 0.635216 
1.82224 0.984218 0.631582 1.87208 1.00738 0.634475 3.16626 1.11152 0.425583 
3.08974 1.12444 0.448178 3.02208 1.1373 0.465928 2.96491 1.12799 0.489094 
2.90826 1.1151 0.531765 2.84631 1.11368 0.582937 2.78972 1.10069 0.625598 
2.73336 1.08994 0.646153 2.67126 1.09451 0.653242 2.61118 1.09434 0.659897 
2.54818 1.09914 0.681878 2.48763 1.0954 0.725386 2.425 1.09557 0.776704 
2.36912 1.0809 0.819211 2.31744 1.05923 0.838766 2.26595 1.03899 0.843581 
2.21068 1.02851 0.841852 2.14947 1.03193 0.841394 2.09421 1.02146 0.839665 

LINES 28 383
20 32 33 34 35 36 37 38 39 40 41 42 43 44 45 46 47 48 49 50 31 
5 32 60 61 62 29 
20 31 72 73 74 75 76 77 78 79 80 81 82 83 84 85 86 87 88 89 17 
19 29 90 91 92 93 94 95 96 97 98 99 100 101 102 103 104 105 106 26 
3 26 130 21 
3 25 131 24 
3 25 132 24 
7 25 133 134 135 136 137 21 
20 24 138 139 140 141 142 143 144 145 146 147 148 149 150 151 152 153 154 155 21 
5 22 166 167 168 19 
13 20 173 174 175 176 177 178 179 180 181 182 183 12 
4 19 184 185 12 
20 18 187 188 189 190 191 192 193 194 195 196 197 198 199 200 201 202 203 204 9 
13 15 205 206 207 208 209 210 211 212 213 214 215 6 
14 15 219 220 221 222 223 224 225 226 227 228 229 230 2 
16 12 231 232 233 234 235 236 237 238 239 240 241 242 243 244 11 
10 10 245 246 247 248 249 250 251 252 4 
5 8 253 254 255 7 
5 7 256 257 258 7 
6 6 259 260 261 262 5 
8 6 263 264 265 266 267 268 2 
41 3 269 270 271 272 273 274 275 276 277 278 279 280 281 282 283 284 285 286 287 288 289 290 291 292 293 294 295 296 297 298 299 300 301 302 303 304 305 306 307 1 
21 2 308 309 310 311 312 313 314 315 316 317 318 319 320 321 322 323 324 325 326 0 
21 32 51 52 53 54 55 56 57 58 59 30 71 70 69 68 67 66 65 64 63 31 
20 29 107 108 109 28 110 111 112 113 114 115 116 117 118 119 120 121 122 123 26 
10 27 124 125 126 127 128 129 16 186 15 
13 20 157 156 23 158 159 160 161 162 163 164 165 19 
10 20 169 170 171 172 14 216 217 218 13 

POINT_DATA 327
SCALARS DY_raw double
LOOKUP_TABLE default
43.1135 31.3424 28.2535 0 68.033 61.6203 34.0267 18.9065 14.9606 
47.6334 53.1484 47.3083 11.2432 16.4937 10.4675 29.366 33.2825 31.7195 
100.176 16.0793 16.1211 43.5947 22.9109 25.8136 50.9333 48.3015 50.9086 
23.5122 56.3535 49.8384 77.2038 41.1968 58.3676 71.1325 80.8008 89.9429 
102.341 111.803 88.2168 80.0151 72.8098 72.7257 74.5722 74.5861 84.588 
84.588 84.1551 71.8891 64.1526 57.7702 52.0883 63.058 57.0339 79.9618 
90.2213 90.2213 90.6289 92.2157 85.26 77.2038 53.6614 53.8024 48.5587 
46.3247 57.188 69.8843 81.5304 81.5304 83.891 76.1431 75.247 73.2031 
45.6118 60.3121 67.4114 71.8416 66.1451 66.1451 60.4375 45.8158 45.3795 
41.7464 37.2581 34.6429 32.7506 30.186 28.7317 31.0729 32.2923 36.3647 
53.1218 53.1218 52.0987 54.9336 54.9336 53.3724 50.1323 53.2598 50.7506 
50.7506 50.8129 52.8546 51.4146 47.559 42.724 38.258 43.1049 47.5049 
54.8837 54.4629 54.1696 60.6012 57.1675 60.506 68.5914 77.5808 89.8905 
84.8509 85.3839 75.5945 78.8473 69.0753 65.0304 62.8251 24.8175 24.6486 
27.252 27.4937 35.7417 37.8977 52.5616 50.9333 49.3416 47.4361 49.1192 
45.2995 47.7729 41.4577 50.6685 58.98 59.6573 55.7504 53.117 63.6267 
60.6822 54.4718 56.8491 55.1755 48.4529 48.975 54.152 47.6928 47.6928 
52.8281 57.494 53.0203 21.2671 11.4505 25.6095 22.5068 18.8937 18.8543 
21.7175 19.4285 19.5851 15.5862 22.1126 21.6765 16.9213 14.9004 17.6708 
14.0888 14.7359 24.6852 18.971 17.376 16.3364 22.6375 24.4985 14.1418 
11.4351 13.526 13.1056 13.5123 18.5003 13.5088 33.4364 84.4092 88.1316 
73.4079 74.8003 67.4689 67.1926 49.2327 48.5909 42.5542 49.2984 46.6907 
38.8656 38.8656 46.181 47.202 46.9675 43.0856 44.3003 29.0916 28.2584 
30.5609 28.1238 29.1933 26.7198 26.6404 32.049 28.1649 31.963 35.1215 
13.0996 13.4374 14.8368 27.6599 36.1343 34.5878 31.0544 30.6998 32.1972 
36.0421 42.6582 41.4127 33.3797 34.5161 34.3784 13.4856 15.7747 19.9505 
19.3663 18.1098 14.8377 13.4572 14.7162 22.5444 25.0377 27.7001 27.5019 
37.3584 47.3083 51.982 45.1402 44.4389 41.9791 37.7457 47.4711 52.1842 
62.5637 18.7808 23.1326 23.9673 13.6661 12.2448 17.4746 34.0267 31.7615 
40.3564 42.3474 36.1693 34.3162 34.3162 34.3415 32.8627 33.9688 27.9769 
17.4947 16.0691 9.67688 13.4119 10.7964 10.4738 12.6912 11.8449 24.9027 
24.149 24.149 19.8198 14.0348 14.0348 8.75003 10.5743 15.5576 20.6662 
24.695 20.9144 15.3286 13.4758 7.02387 7.81967 9.0281 11.3756 17.192 
17.6547 15.9717 18.1831 22.9163 31.08 26.5521 22.9574 30.0356 20.6924 
24.4469 31.8058 27.5833 23.7707 26.6679 22.7211 26.6835 25.8409 21.971 
19.903 19.903 19.1235 25.7006 24.3658 25.9252 24.8088 26.348 22.2364 
22.5027 22.5027 43.1135 
FIELD FieldData 7
DY_minmax 1 327 double
0.385619 0.280336 0.252707 0 0.608506 0.551149 0.304344 0.169105 0.133812 
0.426047 0.475374 0.423139 0.100563 0.147524 0.0936244 0.262657 0.297688 0.283708 
0.896006 0.143818 0.144191 0.389924 0.204922 0.230884 0.455562 0.432022 0.455341 
0.2103 0.504042 0.445769 0.690533 0.368476 0.522056 0.636229 0.722705 0.804475 
0.915365 1 0.789036 0.715678 0.651231 0.650479 0.666995 0.667119 0.756579 
0.756579 0.752707 0.642997 0.573799 0.516713 0.465893 0.564008 0.510127 0.715201 
0.806965 0.806965 0.81061 0.824804 0.76259 0.690533 0.479962 0.481224 0.434323 
0.414341 0.511505 0.625065 0.729231 0.729231 0.750345 0.681045 0.67303 0.654749 
0.407965 0.539448 0.602947 0.642572 0.59162 0.59162 0.54057 0.409789 0.405887 
0.373392 0.333247 0.309856 0.292931 0.269992 0.256985 0.277925 0.288832 0.325256 
0.475136 0.475136 0.465986 0.491341 0.491341 0.477378 0.448397 0.47637 0.453928 
0.453928 0.454485 0.472746 0.459866 0.425381 0.382135 0.342191 0.385543 0.424897 
0.490895 0.487131 0.484508 0.542034 0.511322 0.541183 0.613501 0.693905 0.804006 
0.75893 0.763697 0.676138 0.705232 0.617829 0.581651 0.561925 0.221975 0.220464 
0.243749 0.245911 0.319684 0.338968 0.470126 0.455562 0.441326 0.424281 0.439336 
0.405172 0.427294 0.37081 0.453193 0.527534 0.533592 0.498647 0.475094 0.569095 
0.542759 0.487211 0.508474 0.493505 0.433376 0.438046 0.484351 0.426578 0.426578 
0.472509 0.514243 0.474228 0.190219 0.102417 0.229058 0.201307 0.168991 0.168638 
0.194247 0.173774 0.175175 0.139407 0.197781 0.193881 0.151349 0.133274 0.158053 
0.126015 0.131802 0.220791 0.169682 0.155416 0.146117 0.202477 0.219122 0.126488 
0.102279 0.120981 0.11722 0.120858 0.165472 0.120826 0.299065 0.75498 0.788274 
0.656581 0.669035 0.60346 0.600989 0.440351 0.434611 0.380617 0.440938 0.417615 
0.347625 0.347625 0.413056 0.422188 0.420091 0.38537 0.396234 0.260204 0.252751 
0.273345 0.251547 0.261113 0.238989 0.238279 0.286655 0.251914 0.285886 0.314137 
0.117167 0.120188 0.132705 0.247398 0.323195 0.309363 0.277759 0.274587 0.28798 
0.322371 0.381547 0.370406 0.298558 0.308722 0.30749 0.120619 0.141093 0.178443 
0.173218 0.161979 0.132713 0.120365 0.131626 0.201643 0.223944 0.247757 0.245985 
0.334144 0.423139 0.464941 0.403747 0.397474 0.375473 0.337608 0.424595 0.466751 
0.559587 0.167981 0.206904 0.21437 0.122233 0.109521 0.156298 0.304344 0.284084 
0.360959 0.378767 0.323508 0.306934 0.306934 0.30716 0.293933 0.303827 0.250233 
0.156478 0.143727 0.0865528 0.11996 0.0965657 0.093681 0.113513 0.105944 0.222737 
0.215995 0.215995 0.177274 0.125531 0.125531 0.0782627 0.0945793 0.139151 0.184844 
0.220879 0.187064 0.137104 0.120532 0.0628234 0.0699413 0.0807499 0.101746 0.15377 
0.157909 0.142855 0.162634 0.20497 0.277988 0.23749 0.205338 0.268646 0.185079 
0.21866 0.28448 0.246713 0.212612 0.238525 0.203224 0.238665 0.231128 0.196515 
0.178018 0.178018 0.171046 0.229873 0.217935 0.231882 0.221897 0.235664 0.198889 
0.201271 0.201271 0.385619 
WidthEq 1 327 double
1.60785 1.6106 4.61713 1 1.44621 1.98506 3.40909 2.86092 2.31474 
2.61896 2.20063 2.55029 4.47114 1.74976 3.95318 6.82355 6.14587 6.45408 
1.66536 6.07179 3.89242 5.91631 4.11332 4.03741 3.54051 4.29593 5.37297 
6.97212 3.61859 4.60348 3.19984 5.99197 4.83162 3.6051 2.95406 2.60065 
2.31491 2.01577 2.84028 3.02555 3.17787 3.3207 3.15024 3.43281 3.17645 
3.17645 3.12435 3.50248 4.32032 4.8049 5.04278 4.21628 4.07337 3.01631 
3.03121 3.03121 3.17471 3.17928 3.10521 3.19984 4.91061 4.79142 5.0685 
5.49598 4.69487 3.92921 3.06193 3.06193 2.96671 3.34042 3.31296 3.22473 
5.51063 4.78959 4.30684 3.97374 3.75251 3.75251 3.81485 5.22614 5.33435 
6.34546 8.04657 8.59224 9.90058 10.0894 9.85705 9.05418 8.08985 6.998 
4.40064 4.40064 3.95077 3.80186 3.80186 3.71896 3.89051 3.79179 3.76882 
3.76882 4.51559 4.37351 4.60589 4.87731 5.81477 6.44675 6.07703 4.49111 
3.75667 3.76183 3.86379 3.41858 3.50689 3.43106 3.22664 3.03013 2.38791 
2.50934 2.50984 2.80457 3.02014 3.6647 3.94569 4.17699 7.34924 8.44875 
7.85264 7.30422 6.13122 6.58483 4.89787 3.54051 4.02135 4.28977 4.69104 
5.46893 5.59836 6.50277 3.90499 2.9588 2.93258 3.0685 3.12668 3.25602 
3.80112 3.86695 3.70806 4.11632 4.13804 3.6488 3.65637 3.95426 3.95426 
3.85022 3.95676 4.34438 4.46465 4.14304 3.26676 3.20392 3.0571 3.25602 
4.12755 4.42187 4.81897 6.07012 4.57476 4.81489 5.4984 4.04083 3.87927 
3.70648 3.51862 2.94873 2.47746 2.35669 2.32365 2.4212 2.61322 2.92043 
2.8054 3.26851 3.82051 4.34196 5.13342 4.87091 6.40588 2.05215 2.07054 
2.42794 2.56403 2.69221 2.92026 3.49199 3.82026 4.75488 4.39873 4.1308 
3.99505 3.99505 3.74959 3.79454 3.93953 3.80661 3.4984 6.46681 6.42145 
6.11632 5.50672 5.32827 4.89038 4.88206 4.85351 4.66432 4.40572 3.99413 
3.85355 3.46644 2.60972 7.14066 5.96359 5.31171 4.87274 3.95052 3.76058 
3.23538 3.45162 3.60252 4.11807 4.11199 4.15144 4.0102 3.75475 3.04253 
2.5627 2.92659 3.84157 3.85297 3.99355 3.36048 3.10612 2.77111 2.9707 
2.76645 2.55029 2.36851 3.25386 3.56557 4.01128 4.11199 3.23039 3.11761 
2.6664 2.62129 2.77444 2.77044 2.52815 2.19522 2.61122 3.40909 3.43056 
3.35982 2.85259 3.35174 3.14632 3.14632 3.49432 3.8533 4.37784 1.26676 
1.83999 2.41146 2.68372 2.88922 3.0288 2.48238 2.38591 1.83707 1.42033 
1.62533 1.62533 1.75733 1.99646 1.99646 2.12914 2.2375 2.25806 2.30908 
2.46082 2.7493 2.8039 2.80873 3.28024 3.59478 3.66411 3.81343 3.69125 
3.46252 3.34467 2.96155 2.76354 2.6863 2.96021 2.43102 1.79554 1.83691 
1.60552 1.44879 5.00774 5.19884 5.16164 5.04994 3.89792 3.17404 3.08315 
2.63477 2.63477 2.70452 2.81705 3.00749 3.10354 2.8635 3.04311 2.67939 
2.3135 2.3135 1.60785 
rRFP 1 327 double
2452.05 2452.38 2813.6 2379.02 2432.63 2497.37 2668.46 2602.6 2536.98 
2573.53 2523.27 2565.28 2796.06 2469.1 2733.83 3078.69 2997.27 3034.3 
2458.96 2988.37 2726.53 2969.69 2753.07 2743.95 2684.25 2775.01 2904.41 
3096.54 2693.63 2811.96 2643.32 2978.78 2839.37 2692.01 2613.79 2571.33 
2537 2501.06 2600.12 2622.38 2640.68 2657.84 2637.36 2671.31 2640.51 
2640.51 2634.25 2679.68 2777.94 2836.16 2864.74 2765.44 2748.27 2621.27 
2623.06 2623.06 2640.3 2640.85 2631.95 2643.32 2848.86 2834.54 2867.83 
2919.19 2822.94 2730.95 2626.75 2626.75 2615.31 2660.21 2656.91 2646.31 
2920.95 2834.32 2776.32 2736.3 2709.72 2709.72 2717.21 2886.77 2899.77 
3021.25 3225.63 3291.19 3448.38 3471.07 3443.15 3346.69 3230.83 3099.65 
2787.59 2787.59 2733.54 2715.65 2715.65 2705.69 2726.3 2714.44 2711.68 
2711.68 2801.4 2784.33 2812.25 2844.86 2957.49 3033.42 2989 2798.46 
2710.22 2710.84 2723.09 2669.6 2680.21 2671.1 2646.54 2622.93 2545.77 
2560.36 2560.42 2595.83 2621.73 2699.17 2732.93 2760.72 3141.85 3273.95 
3202.33 3136.44 2995.51 3050.01 2847.33 2684.25 2742.02 2774.27 2822.48 
2915.94 2931.49 3040.15 2728.04 2614.36 2611.21 2627.54 2634.53 2650.07 
2715.56 2723.47 2704.38 2753.43 2756.04 2697.26 2698.17 2733.96 2733.96 
2721.46 2734.26 2780.83 2795.28 2756.64 2651.36 2643.81 2626.17 2650.07 
2754.78 2790.14 2837.85 2988.17 2808.51 2837.36 2919.48 2744.36 2724.95 
2704.19 2681.62 2613.15 2556.53 2542.02 2538.05 2549.77 2572.84 2609.75 
2595.93 2651.57 2717.89 2780.54 2875.63 2844.09 3028.51 2505.43 2507.64 
2550.58 2566.93 2582.33 2609.73 2678.42 2717.86 2830.15 2787.36 2755.17 
2738.86 2738.86 2709.37 2714.77 2732.19 2716.22 2679.19 3035.83 3030.38 
2993.72 2920.48 2899.04 2846.43 2845.43 2842 2819.27 2788.2 2738.75 
2721.86 2675.35 2572.42 3116.79 2975.37 2897.05 2844.31 2733.51 2710.69 
2647.59 2673.57 2691.7 2753.64 2752.91 2757.65 2740.68 2709.99 2624.42 
2566.77 2610.49 2720.42 2721.79 2738.68 2662.62 2632.06 2591.81 2615.79 
2591.25 2565.28 2543.44 2649.81 2687.26 2740.81 2752.91 2646.99 2633.44 
2579.23 2573.81 2592.21 2591.73 2562.62 2522.62 2572.6 2668.46 2671.04 
2662.54 2601.6 2661.57 2636.89 2636.89 2678.7 2721.83 2784.85 2411.07 
2479.94 2548.6 2581.31 2606 2622.77 2557.12 2545.53 2479.59 2429.52 
2454.15 2454.15 2470.01 2498.74 2498.74 2514.68 2527.7 2530.17 2536.3 
2554.53 2589.19 2595.75 2596.33 2652.98 2690.77 2699.1 2717.04 2702.36 
2674.88 2660.72 2614.69 2590.9 2581.62 2614.53 2550.95 2474.6 2479.57 
2451.77 2432.94 2860.53 2883.49 2879.02 2865.6 2727.19 2640.22 2629.3 
2575.43 2575.43 2583.81 2597.33 2620.21 2631.75 2602.91 2624.49 2580.79 
2536.83 2536.83 2452.05 
rGFP 1 327 double
2396.09 2377.25 2457.22 2326.77 2425.16 2449.09 2442.77 2380.86 2361.4 
2451.52 2443.73 2447.42 2377.04 2355.63 2368.15 2527.15 2531.32 2531.49 
2493.6 2424.4 2389.52 2584.69 2421.01 2430.99 2507.1 2534.27 2600.3 
2490.7 2530.69 2556.2 2573.81 2573.62 2608.78 2583.21 2565.46 2560.68 
2563.68 2552.14 2577.33 2568.86 2558.15 2568.27 2561.69 2582.81 2595.46 
2595.46 2589.7 2578.56 2603.93 2604.35 2589.44 2592.64 2559.09 2567.96 
2600.25 2600.25 2614.49 2619.95 2591.52 2573.81 2590.28 2584.56 2572.89 
2581.37 2595.26 2601.36 2576.41 2576.41 2575.65 2581.12 2576.06 2562.83 
2578.12 2615.64 2617.1 2612.25 2574.98 2574.98 2557.33 2566.21 2568.84 
2591.67 2626.57 2624.43 2651.02 2631.33 2609.98 2608.11 2588.01 2581.25 
2560.54 2560.54 2532.6 2535.62 2535.62 2525.26 2521.81 2528.72 2518.04 
2518.04 2556.22 2557.93 2563.58 2558.73 2575.2 2573.41 2588.72 2540.12 
2532.95 2531.65 2536.07 2533.94 2527.25 2534.37 2548.09 2561.85 2541.42 
2539.69 2541.07 2538.78 2564.9 2579.91 2583.36 2589.19 2509.16 2535.02 
2540.77 2527.59 2545.91 2576.32 2584.21 2507.1 2525.19 2530.26 2557.19 
2574.51 2594.22 2596.36 2524.63 2501.28 2501.72 2497.84 2492.85 2533.94 
2557.43 2537.41 2537.57 2553.89 2527.27 2505.47 2524.77 2515.36 2515.36 
2530.17 2554.26 2557.11 2421.72 2374.21 2410.43 2398.88 2384.53 2388.16 
2416.41 2412.68 2421.15 2421.38 2427.93 2431.14 2419.81 2386.98 2395.32 
2378.99 2378.62 2399.56 2373.77 2367.72 2364.73 2381.58 2390.79 2368.07 
2358.85 2370.98 2376.84 2385.44 2421.74 2392.57 2540.96 2499.99 2509.25 
2505 2518.56 2508.41 2522.99 2498.69 2512.4 2529.11 2543.62 2519.64 
2482.04 2482.04 2499.93 2505.88 2511.8 2490.78 2481.75 2514.9 2508.23 
2513.69 2481.64 2482.32 2457.44 2456.83 2482.32 2458.14 2467.59 2467.05 
2377.25 2373.35 2365.49 2524.28 2542.26 2510.49 2478.09 2448.05 2447.85 
2443.38 2474.01 2475.96 2464.23 2468.7 2469.49 2380.85 2386 2387.47 
2376.4 2379.77 2383.77 2378.62 2385.54 2402.53 2404.54 2403.53 2408.47 
2430.12 2447.42 2449.89 2473.65 2485.22 2495.16 2481.98 2480.12 2489.46 
2493.59 2376 2390.95 2393.17 2361.32 2353.65 2372.4 2442.77 2435.73 
2462.36 2447.57 2448 2434.74 2434.74 2446.77 2453.4 2475.48 2362.21 
2358.96 2365.52 2352.74 2365.52 2359.47 2352.77 2357.05 2348.53 2362.14 
2366.02 2366.02 2361.6 2354.79 2354.79 2345.4 2350.43 2361.9 2374.49 
2387.54 2384.27 2369.75 2364.62 2349.81 2354.88 2359.85 2370.15 2390.23 
2387.9 2380.19 2380.62 2390.1 2410.26 2405.37 2382.58 2380.7 2364.78 
2366.02 2372.85 2464.9 2450.35 2464.42 2441.51 2430.78 2408.79 2394.51 
2379.21 2379.21 2378.49 2399.17 2400.05 2407.23 2397.81 2406.95 2386.35 
2378.83 2378.83 2396.09 
bkstRFP 1 327 double
193.175 193.505 554.725 120.145 173.755 238.495 409.585 343.725 278.105 
314.655 264.395 306.405 537.185 210.225 474.955 819.815 738.395 775.425 
200.085 729.495 467.655 710.815 494.195 485.075 425.375 516.135 645.535 
837.665 434.755 553.085 384.445 719.905 580.495 433.135 354.915 312.455 
278.125 242.185 341.245 363.505 381.805 398.965 378.485 412.435 381.635 
381.635 375.375 420.805 519.065 577.285 605.865 506.565 489.395 362.395 
364.185 364.185 381.425 381.975 373.075 384.445 589.985 575.665 608.955 
660.315 564.065 472.075 367.875 367.875 356.435 401.335 398.035 387.435 
662.075 575.445 517.445 477.425 450.845 450.845 458.335 627.895 640.895 
762.375 966.755 1032.32 1189.51 1212.2 1184.28 1087.82 971.955 840.775 
528.715 528.715 474.665 456.775 456.775 446.815 467.425 455.565 452.805 
452.805 542.525 525.455 553.375 585.985 698.615 774.545 730.125 539.585 
451.345 451.965 464.215 410.725 421.335 412.225 387.665 364.055 286.895 
301.485 301.545 336.955 362.855 440.295 474.055 501.845 882.975 1015.07 
943.455 877.565 736.635 791.135 588.455 425.375 483.145 515.395 563.605 
657.065 672.615 781.275 469.165 355.485 352.335 368.665 375.655 391.195 
456.685 464.595 445.505 494.555 497.165 438.385 439.295 475.085 475.085 
462.585 475.385 521.955 536.405 497.765 392.485 384.935 367.295 391.195 
495.905 531.265 578.975 729.295 549.635 578.485 660.605 485.485 466.075 
445.315 422.745 354.275 297.655 283.145 279.175 290.895 313.965 350.875 
337.055 392.695 459.015 521.665 616.755 585.215 769.635 246.555 248.765 
291.705 308.055 323.455 350.855 419.545 458.985 571.275 528.485 496.295 
479.985 479.985 450.495 455.895 473.315 457.345 420.315 776.955 771.505 
734.845 661.605 640.165 587.555 586.555 583.125 560.395 529.325 479.875 
462.985 416.475 313.545 857.915 716.495 638.175 585.435 474.635 451.815 
388.715 414.695 432.825 494.765 494.035 498.775 481.805 451.115 365.545 
307.895 351.615 461.545 462.915 479.805 403.745 373.185 332.935 356.915 
332.375 306.405 284.565 390.935 428.385 481.935 494.035 388.115 374.565 
320.355 314.935 333.335 332.855 303.745 263.745 313.725 409.585 412.165 
403.665 342.725 402.695 378.015 378.015 419.825 462.955 525.975 152.195 
221.065 289.725 322.435 347.125 363.895 298.245 286.655 220.715 170.645 
195.275 195.275 211.135 239.865 239.865 255.805 268.825 271.295 277.425 
295.655 330.315 336.875 337.455 394.105 431.895 440.225 458.165 443.485 
416.005 401.845 355.815 332.025 322.745 355.655 292.075 215.725 220.695 
192.895 174.065 601.655 624.615 620.145 606.725 468.315 381.345 370.425 
316.555 316.555 324.935 338.455 361.335 372.875 344.035 365.615 321.915 
277.955 277.955 193.175 
bkstGFP 1 327 double
69.32 50.48 130.45 0 98.39 122.32 116 54.09 34.63 
124.75 116.96 120.65 50.27 28.86 41.38 200.38 204.55 204.72 
166.83 97.63 62.75 257.92 94.24 104.22 180.33 207.5 273.53 
163.93 203.92 229.43 247.04 246.85 282.01 256.44 238.69 233.91 
236.91 225.37 250.56 242.09 231.38 241.5 234.92 256.04 268.69 
268.69 262.93 251.79 277.16 277.58 262.67 265.87 232.32 241.19 
273.48 273.48 287.72 293.18 264.75 247.04 263.51 257.79 246.12 
254.6 268.49 274.59 249.64 249.64 248.88 254.35 249.29 236.06 
251.35 288.87 290.33 285.48 248.21 248.21 230.56 239.44 242.07 
264.9 299.8 297.66 324.25 304.56 283.21 281.34 261.24 254.48 
233.77 233.77 205.83 208.85 208.85 198.49 195.04 201.95 191.27 
191.27 229.45 231.16 236.81 231.96 248.43 246.64 261.95 213.35 
206.18 204.88 209.3 207.17 200.48 207.6 221.32 235.08 214.65 
212.92 214.3 212.01 238.13 253.14 256.59 262.42 182.39 208.25 
214 200.82 219.14 249.55 257.44 180.33 198.42 203.49 230.42 
247.74 267.45 269.59 197.86 174.51 174.95 171.07 166.08 207.17 
230.66 210.64 210.8 227.12 200.5 178.7 198 188.59 188.59 
203.4 227.49 230.34 94.95 47.44 83.66 72.11 57.76 61.39 
89.64 85.91 94.38 94.61 101.16 104.37 93.04 60.21 68.55 
52.22 51.85 72.79 47 40.95 37.96 54.81 64.02 41.3 
32.08 44.21 50.07 58.67 94.97 65.8 214.19 173.22 182.48 
178.23 191.79 181.64 196.22 171.92 185.63 202.34 216.85 192.87 
155.27 155.27 173.16 179.11 185.03 164.01 154.98 188.13 181.46 
186.92 154.87 155.55 130.67 130.06 155.55 131.37 140.82 140.28 
50.48 46.58 38.72 197.51 215.49 183.72 151.32 121.28 121.08 
116.61 147.24 149.19 137.46 141.93 142.72 54.08 59.23 60.7 
49.63 53 57 51.85 58.77 75.76 77.77 76.76 81.7 
103.35 120.65 123.12 146.88 158.45 168.39 155.21 153.35 162.69 
166.82 49.23 64.18 66.4 34.55 26.88 45.63 116 108.96 
135.59 120.8 121.23 107.97 107.97 120 126.63 148.71 35.44 
32.19 38.75 25.97 38.75 32.7 26 30.28 21.76 35.37 
39.25 39.25 34.83 28.02 28.02 18.63 23.66 35.13 47.72 
60.77 57.5 42.98 37.85 23.04 28.11 33.08 43.38 63.46 
61.13 53.42 53.85 63.33 83.49 78.6 55.81 53.93 38.01 
39.25 46.08 138.13 123.58 137.65 114.74 104.01 82.02 67.74 
52.44 52.44 51.72 72.4 73.28 80.46 71.04 80.18 59.58 
52.06 52.06 69.32 
tubeWidth 1 327 double
0.070133 0.0866642 0.264962 0.0785998 0.0464916 0.113862 0.0648565 0.0892697 0.097579 
0.127963 0.120276 0.196165 0.170165 0.157868 0.200039 0.132781 0.221734 0.203462 
0.0401119 0.223368 0.20987 0.196185 0.234763 0.167349 0.0695959 0.097777 0.137388 
0.242637 0.211182 0.181134 0.113759 0.149954 0.146333 0.217321 0.154145 0.149538 
0.168711 0.152523 0.14477 0.177105 0.182717 0.17088 0.177066 0.227816 0.201817 
0.159287 0.177051 0.20862 0.202095 0.188211 0.137702 0.1906 0.204036 0.201022 
0.188557 0.156773 0.145739 0.17577 0.190563 0.166049 0.190041 0.198036 0.269293 
0.132812 0.141488 0.140736 0.155136 0.149967 0.149979 0.170434 0.170222 0.168172 
0.290253 0.230162 0.219215 0.182371 0.166399 0.165074 0.213338 0.254189 0.244838 
0.277065 0.263007 0.234344 0.241284 0.20598 0.267265 0.27014 0.288618 0.299043 
0.115277 0.0831147 0.09093 0.14767 0.175176 0.194981 0.175519 0.196471 0.209234 
0.213249 0.219481 0.219524 0.201625 0.164491 0.155129 0.200196 0.208759 0.150854 
0.178771 0.23542 0.212991 0.212232 0.203863 0.213342 0.227607 0.157616 0.143989 
0.146213 0.149684 0.172553 0.185123 0.179705 0.139906 0.144994 0.293194 0.226808 