# vtk DataFile Version 3.0
vtk output
ASCII
DATASET POLYDATA
POINTS 268 float
1.4983 1.04862 -0.171882 1.66228 1.0698 -0.281351 1.93608 1.09552 -0.280719 
2.37343 1.15105 -0.55433 3.11117 0.550688 -0.569359 3.25063 0.637404 -0.693686 
-1 1.42841e-007 8.51198e-008 -0.429552 -0.23088 1.58361 -1.03419 -0.241405 0.703424 
-0.393271 -0.414584 1.31686 -0.906264 -0.424211 0.58336 -0.447915 -0.613575 1.17807 
-0.502961 -0.612961 1.0681 -0.100375 -0.787322 1.27821 0.222584 -0.644225 -0.863084 
-0.157122 -1.02755 1.06994 1.44281 -1.44916 0.848796 3.20013 -0.602773 -0.152705 
3.91128 -0.521526 -0.425683 -0.00735681 -1.19714 1.58695 -0.613003 -1.18752 0.322295 
3.16436 -0.81252 -0.0534505 5.9013 -0.535232 -0.431599 5.47699 -1.20668 0.101606 
-0.266898 -1.33249 -0.12681 5.81396 -1.2418 -0.32764 5.5947 -1.40519 0.261631 
5.75691 -1.34832 -0.528901 3.96972 -1.73991 -0.104147 5.01759 -1.92439 0.177183 
5.99699 -2.14843 -0.185923 5.36031 -2.44353 0.461185 5.30979 -2.48975 0.293668 
5.2869 -2.82561 -0.0543243 5.2863 -2.79884 0.00215558 5.29364 -2.75089 0.0598343 
5.31382 -2.6777 0.120735 5.31704 -2.58629 0.194471 5.19566 -2.28718 0.287116 
5.10419 -2.0981 0.246814 5.34654 -2.46524 0.389086 5.39489 -2.39074 0.298634 
5.45635 -2.30881 0.302766 5.5076 -2.24456 0.305999 5.55733 -2.18602 0.308826 
5.60175 -2.09259 0.311603 5.62803 -1.93341 0.306717 5.61967 -1.69457 0.283705 
5.90384 -1.70564 -0.240546 5.0669 -1.72136 0.135631 5.11167 -1.56017 0.125565 
5.15753 -1.44933 0.130282 5.21169 -1.36789 0.142729 5.30437 -1.29252 0.150061 
4.93391 -1.89937 0.165705 4.86786 -1.88304 0.161997 4.81081 -1.87835 0.159768 
4.75572 -1.88041 0.147727 4.70089 -1.88403 0.11863 4.64607 -1.88793 0.0946966 
4.59123 -1.89155 0.0656001 4.53644 -1.89607 0.0534601 4.48168 -1.90111 0.0514065 
4.42623 -1.89888 0.0515579 4.36939 -1.88192 0.0524844 4.31047 -1.84278 0.0527569 
4.25083 -1.79574 0.0434412 4.19185 -1.75527 0.0184978 4.13497 -1.73759 0.00558369 
4.07948 -1.73454 -0.0100332 4.02462 -1.73753 -0.0512433 5.71693 -1.30971 -0.232991 
5.64382 -1.31945 -0.178665 5.5704 -1.27337 -0.0841725 5.53459 -1.31738 0.184507 
5.79456 -1.29531 -0.446383 5.6882 -1.39475 0.230291 5.75573 -1.37852 0.184211 
5.80555 -1.34129 0.132187 5.82652 -1.27701 0.0808355 5.78548 -1.21147 0.0360504 
5.67887 -1.18384 0.028494 5.5025 -1.37945 0.315583 5.45795 -1.31451 0.276093 
5.55561 -1.29312 0.185723 1.28194 -1.50664 0.831414 1.19379 -1.5557 0.838376 
1.13553 -1.58096 0.843974 1.08033 -1.58418 0.833645 1.02342 -1.5657 0.805822 
0.965138 -1.53278 0.783827 0.90684 -1.49958 0.756669 0.849972 -1.482 0.745692 
0.794516 -1.47968 0.744026 0.739756 -1.48481 0.74368 0.684992 -1.48985 0.741626 
0.630203 -1.49437 0.729596 0.57468 -1.49073 0.702814 0.517813 -1.47316 0.691947 
0.458893 -1.43401 0.69211 0.39928 -1.38748 0.692551 0.339637 -1.34034 0.681297 
0.280622 -1.29927 0.64467 0.22161 -1.25828 0.609861 0.164076 -1.23386 0.609348 
0.109383 -1.24031 0.634217 0.0574243 -1.27553 0.644234 0.00612796 -1.31749 0.642059 
-0.0464797 -1.34399 0.626938 -0.0986221 -1.35416 0.585445 -0.13962 -1.35523 0.532464 
-0.153662 -1.35366 0.477617 -0.155836 -1.35097 0.422688 -0.156199 -1.34812 0.367763 
-0.157461 -1.35278 0.312446 -0.165474 -1.37292 0.256336 -0.176546 -1.41565 0.199051 
-0.156866 -1.46292 0.141446 -0.144939 -1.50349 0.0842142 -0.155674 -1.51647 0.0284866 
-0.196616 -1.49513 -0.0253641 -0.241921 -1.42963 -0.0768893 5.8892 -0.879839 -0.385706 
5.77959 -0.99788 -0.24199 5.74468 -0.893281 -0.168434 5.65829 -0.982686 -0.0711136 
-0.331311 -1.23537 -0.105521 -0.394164 -1.15428 -0.0599108 -0.452988 -1.09571 -0.00365582 
-0.497167 -1.0656 0.0530033 -0.510923 -1.06978 0.107895 -0.51015 -1.10232 0.161264 
-0.508684 -1.14222 0.214135 -0.520367 -1.16839 0.265827 -0.560427 -1.18174 0.306429 
-0.217084 -1.2952 -0.180062 -0.177799 -1.25147 -0.232839 -0.1529 -1.21663 -0.284221 
-0.110132 -1.21034 -0.327143 -0.0545968 -1.23338 -0.356453 0.0025013 -1.25547 -0.400899 
0.053269 -1.24791 -0.453778 0.0798749 -1.19796 -0.506196 0.0717398 -1.12152 -0.557245 
0.081739 -1.02111 -0.607086 0.0965464 -0.92024 -0.656914 0.129962 -0.817629 -0.706701 
0.173699 -0.736326 -0.757631 0.209557 -0.67806 -0.809747 1.61744 -1.39999 0.820204 
1.71732 -1.38477 0.791 1.77928 -1.38193 0.760635 1.83494 -1.38206 0.748246 
1.88969 -1.37671 0.744408 1.94441 -1.37084 0.730694 1.99907 -1.36375 0.693701 
2.05376 -1.35709 0.664757 2.10851 -1.35191 0.664245 2.1632 -1.34524 0.635191 
2.21716 -1.33068 0.59666 2.26977 -1.3021 0.572204 2.3203 -1.25114 0.54354 
2.37014 -1.19308 0.520526 2.42064 -1.14161 0.482005 2.47321 -1.11222 0.442211 
2.5272 -1.09826 0.415043 2.58185 -1.09096 0.374086 2.63651 -1.08367 0.333129 
2.69119 -1.07707 0.305574 2.74584 -1.06978 0.264616 2.8005 -1.06248 0.223659 
2.85518 -1.05589 0.196104 2.90914 -1.04123 0.155535 2.96172 -1.01184 0.115741 
3.01225 -0.961057 0.0904116 3.06204 -0.902099 0.0502312 3.11251 -0.849995 -0.000313006 
3.23098 -0.934516 -0.0230159 3.29614 -1.03994 -0.0267678 3.35845 -1.1145 -0.0559018 
3.41872 -1.16765 -0.0707907 3.47693 -1.19912 -0.0765666 3.53373 -1.21534 -0.0916544 
3.587 -1.19332 -0.131736 3.63608 -1.12649 -0.181395 3.68169 -1.02274 -0.231043 
3.72661 -0.911607 -0.280303 3.77292 -0.815309 -0.328522 3.81994 -0.726902 -0.367151 
3.86632 -0.631925 -0.390154 3.17104 -0.71241 -0.103298 -0.00557849 -1.19409 1.53203 
0.00353118 -1.18291 1.47752 0.0155918 -1.14916 1.42418 -0.00858217 -1.07425 1.37309 
-0.0442448 -0.948394 1.3247 -0.128993 -0.967994 0.96367 -0.0882939 -0.894096 0.906403 
-0.0416566 -0.815463 0.89551 0.00523739 -0.750583 0.910574 0.0433758 -0.743373 0.951778 
0.0433144 -0.797287 1.00084 -0.0201094 -0.902316 1.04277 -0.322942 -0.914797 1.02204 
-0.426824 -0.775632 1.02343 -0.332068 -0.823464 1.14201 -0.0886481 -0.907507 1.19204 
-0.164207 -0.696727 1.28317 -0.230015 -0.59893 1.28914 -0.303657 -0.502076 1.29904 
-0.486988 -0.614353 1.12306 -0.557753 -0.615216 1.01305 -0.610734 -0.617301 0.957999 
-0.65366 -0.618441 0.902976 -0.679679 -0.617993 0.847992 -0.711539 -0.610661 0.793384 
-0.739636 -0.588121 0.739563 -0.786716 -0.545078 0.686866 -0.845238 -0.488243 0.63492 
-0.436347 -0.511644 1.24377 -0.969884 -0.336486 0.643198 -0.914672 -0.355238 0.53192 
-0.932224 -0.294556 0.48007 -0.963474 -0.250025 0.427409 -0.977682 -0.226181 0.37362 
-0.982361 -0.216297 0.319074 -0.994492 -0.214545 0.264122 -1.02217 -0.20682 0.209523 
-1.03434 -0.182784 0.155739 -1.02869 -0.134788 0.103164 -1.00742 -0.0704603 0.051403 
-0.414997 -0.324291 1.40276 -0.425662 -0.261808 1.47039 -0.428963 -0.235362 1.52822 
3.04969 0.476278 -0.492096 2.99396 0.430621 -0.432058 2.9384 0.425658 -0.389824 
2.87994 0.459151 -0.3758 2.81961 0.513444 -0.382691 2.75855 0.575998 -0.406261 
2.69684 0.645128 -0.414524 2.63445 0.721214 -0.41435 2.57065 0.812543 -0.423487 
2.50609 0.912661 -0.459169 2.44011 1.02812 -0.50598 3.18847 0.596199 -0.6353 
3.03064 0.682192 -0.616473 2.96081 0.788779 -0.64308 2.89741 0.869228 -0.680577 
2.83604 0.934963 -0.718108 2.77498 0.997449 -0.74038 2.71392 1.06001 -0.764159 
2.65362 1.11379 -0.761184 2.59478 1.15141 -0.731842 2.53801 1.16701 -0.705061 
2.48267 1.16699 -0.661889 2.42805 1.15907 -0.609018 2.31881 1.14314 -0.501679 
2.26416 1.13585 -0.460822 2.20944 1.12998 -0.447007 2.15468 1.12473 -0.445097 
2.09993 1.11958 -0.445004 2.04528 1.11434 -0.443093 1.99259 1.10865 -0.429273 
1.95184 1.10267 -0.388384 1.93808 1.09859 -0.335529 1.60763 1.06251 -0.240394 
1.55295 1.05592 -0.212839 
LINES 37 346
6 33 34 35 36 37 32 
4 32 38 39 29 
3 32 40 31 
9 32 41 42 43 44 45 46 47 26 
3 30 48 25 
7 29 49 50 51 52 53 23 
19 29 54 55 56 57 58 59 60 61 62 63 64 65 66 67 68 69 70 28 
5 25 71 72 73 23 
3 23 74 26 
3 27 75 25 
8 26 76 77 78 79 80 81 23 
4 26 82 83 23 
3 26 84 23 
3 25 122 22 
5 25 123 124 125 23 
11 24 126 127 128 129 130 131 132 133 134 20 
16 24 135 136 137 138 139 140 141 142 143 144 145 146 147 148 14 
15 21 177 178 179 180 181 182 183 184 185 186 187 188 189 18 
3 21 190 17 
7 19 191 192 193 194 195 13 
9 15 196 197 198 199 200 201 202 15 
4 15 203 204 12 
3 15 205 11 
3 15 206 13 
5 13 207 208 209 9 
3 12 210 11 
10 12 211 212 213 214 215 216 217 218 10 
3 11 219 9 
3 10 220 8 
12 10 221 222 223 224 225 226 227 228 229 230 6 
5 9 231 232 233 7 
13 4 234 235 236 237 238 239 240 241 242 243 244 3 
3 5 245 4 
13 4 246 247 248 249 250 251 252 253 254 255 256 3 
11 3 257 258 259 260 261 262 263 264 265 2 
4 1 266 267 0 
68 24 121 120 119 118 117 116 115 114 113 112 111 110 109 108 107 106 105 104 103 102 101 100 99 98 97 96 95 94 93 92 91 90 89 88 87 86 85 16 149 150 151 152 153 154 155 156 157 158 159 160 161 162 163 164 165 166 167 168 169 170 171 172 173 174 175 176 21 

POINT_DATA 268
SCALARS DY_raw double
LOOKUP_TABLE default
2.71527 19.5082 0 24.754 28.9386 26.8016 48.6377 154.893 84.9063 
42.6734 35.0179 30.0231 33.1982 39.4972 39.6464 45.9009 50.148 65.1899 
58.1545 184.97 46.808 46.0429 31.6844 39.1002 29.9606 38.4865 39.3917 
37.6496 66.7051 39.9551 34.8414 62.6795 38.97 55.8306 40.5869 35.8782 
34.1372 32.8716 43.6146 45.5626 38.6908 35.9669 38.549 39.5521 39.7216 
46.848 49.7864 49.0678 33.0087 45.807 48.8732 49.3702 53.173 50.7763 
40.9131 36.3168 33.6889 34.1978 41.4046 45.6628 50.4414 50.4414 54.1646 
57.7093 57.2393 55.0595 54.9714 58.1457 63.3102 63.3102 63.1162 42.5226 
39.1221 33.3802 36.2536 31.5606 37.8875 33.2472 32.3982 36.0606 39.9594 
39.8843 50.6964 48.7181 36.2536 53.904 54.0601 47.8803 46.3458 59.3782 
53.6814 70.2718 76.412 76.412 55.0844 52.1881 52.1881 44.1589 44.1589 
44.7867 43.6352 47.2079 54.7197 49.163 49.163 46.7646 45.1637 40.3692 
36.6499 34.2051 35.4375 35.1804 37.6995 39.3461 41.666 41.5329 39.0064 
34.5746 31.5025 30.7965 27.1828 33.9343 50.834 51.4047 42.3578 47.8835 
31.3527 36.1527 38.0218 36.3599 36.0468 36.4797 35.5338 37.4612 46.808 
29.4219 33.0259 33.3402 33.496 27.7119 23.5706 16.9987 16.4231 15.5146 
21.6242 30.2497 33.2602 28.8526 32.267 33.8007 36.9023 37.9667 46.7613 
56.209 56.209 71.9813 72.8881 59.0369 55.6745 55.6745 47.415 51.6355 
62.7778 71.0071 66.0229 68.4269 65.0103 74.2066 67.525 57.5931 57.5931 
46.2829 39.3308 43.034 43.5498 48.4303 48.6657 44.8682 56.7443 58.7475 
58.4148 46.3319 37.0092 29.5291 30.3112 31.6043 29.1463 27.7723 31.2272 
41.1916 57.8834 82.2532 82.2532 56.5092 35.7519 39.5015 50.9769 55.0489 
56.9052 52.1184 44.2399 44.2399 44.1101 55.2546 44.3451 44.2627 35.4729 
45.2751 41.1981 40.6788 32.5388 35.6991 37.5261 37.1038 35.3833 35.8694 
38.0316 39.1441 27.3962 33.7307 47.0271 38.7215 42.9833 47.4825 46.4916 
44.5783 44.5783 35.0326 39.5359 35.9464 46.7481 52.6344 69.3379 106.457 
28.4411 26.3188 32.7818 27.7126 20.8241 19.3176 28.0671 28.2017 27.0981 
24.5856 22.6298 26.5076 35.663 26.2823 24.3422 27.0232 35.9708 43.9501 
28.4004 23.0318 25.6306 26.7774 25.9932 22.3524 22.4849 20.4605 17.9528 
23.3388 18.1214 14.8806 10.1606 9.63322 20.8873 2.71527 
FIELD FieldData 7
DY_minmax 1 268 double
0.0146795 0.105467 0 0.133827 0.15645 0.144897 0.262949 0.837394 0.459027 
0.230705 0.189317 0.162314 0.179479 0.213533 0.21434 0.248153 0.271114 0.352435 
0.3144 1 0.253057 0.248921 0.171295 0.211387 0.161975 0.208069 0.212963 
0.203544 0.360627 0.216008 0.188362 0.338863 0.210683 0.301836 0.219424 0.193968 
0.184555 0.177713 0.235793 0.246324 0.209174 0.194447 0.208407 0.21383 0.214746 
0.253274 0.26916 0.265275 0.178455 0.247646 0.264222 0.266909 0.287468 0.274511 
0.221188 0.196339 0.182132 0.184883 0.223845 0.246866 0.272701 0.272701 0.292829 
0.311993 0.309452 0.297667 0.297191 0.314352 0.342273 0.342273 0.341224 0.229889 
0.211505 0.180463 0.195997 0.170626 0.20483 0.179744 0.175154 0.194954 0.216032 
0.215626 0.274079 0.263384 0.195997 0.29142 0.292264 0.258855 0.250559 0.321015 
0.290217 0.379909 0.413105 0.413105 0.297802 0.282144 0.282144 0.238735 0.238735 
0.24213 0.235904 0.255219 0.29583 0.265789 0.265789 0.252823 0.244168 0.218247 
0.19814 0.184922 0.191585 0.190195 0.203814 0.212716 0.225258 0.224538 0.21088 
0.18692 0.170311 0.166494 0.146958 0.183458 0.274823 0.277908 0.228998 0.258872 
0.169502 0.195452 0.205557 0.196572 0.194879 0.19722 0.192106 0.202526 0.253057 
0.159063 0.178547 0.180247 0.181089 0.149818 0.127429 0.0918999 0.088788 0.0838766 
0.116907 0.163539 0.179814 0.155985 0.174445 0.182736 0.199504 0.205258 0.252805 
0.303882 0.303882 0.389151 0.394053 0.31917 0.300992 0.300992 0.256339 0.279156 
0.339395 0.383884 0.356939 0.369935 0.351464 0.401182 0.365059 0.311365 0.311365 
0.250219 0.212633 0.232654 0.235442 0.261828 0.2631 0.24257 0.306776 0.317606 
0.315807 0.250483 0.200082 0.159643 0.163871 0.170862 0.157573 0.150145 0.168823 
0.222694 0.312934 0.444684 0.444684 0.305505 0.193285 0.213556 0.275595 0.29761 
0.307646 0.281767 0.239173 0.239173 0.238472 0.298722 0.239742 0.239297 0.191777 
0.24477 0.222729 0.219921 0.175914 0.192999 0.202877 0.200594 0.191292 0.19392 
0.20561 0.211624 0.148112 0.182358 0.254242 0.209339 0.23238 0.256704 0.251346 
0.241003 0.241003 0.189396 0.213742 0.194336 0.252734 0.284556 0.37486 0.575537 
0.153761 0.142287 0.177227 0.149822 0.112581 0.104436 0.151738 0.152466 0.1465 
0.132917 0.122343 0.143307 0.192804 0.14209 0.131601 0.146095 0.194468 0.237606 
0.15354 0.124517 0.138566 0.144766 0.140526 0.120844 0.12156 0.110615 0.097058 
0.126176 0.0979691 0.0804487 0.0549311 0.0520799 0.112923 0.0146795 
WidthEq 1 268 double
1.61678 1.5127 1.20077 3.91533 4.68405 3.20055 4.45272 1.12355 2.40171 
6.46468 5.33498 6.67785 6.23498 6.77769 1.58274 5.83148 5.27419 1.73294 
2.58105 1 4.92224 3.30388 2.26989 9.32552 8.8473 8.47153 9.21056 
6.27576 2.79934 7.21861 6.9317 3.33139 6.62227 3.9224 5.02034 5.92142 
6.94257 7.07602 6.81445 6.49524 6.68013 8.78781 8.44249 7.76393 7.70412 
7.11855 7.78525 8.17113 8.11088 6.96465 6.73027 7.288 6.81511 6.97727 
7.37196 7.84844 7.76665 7.09636 6.06792 4.40008 4.20289 4.20289 4.0652 
4.11164 3.941 4.21236 4.55419 4.34787 3.45157 3.45157 3.00446 7.71543 
7.65833 8.2477 9.92838 8.43107 9.12518 8.65186 8.35385 7.19512 7.1465 
7.55936 7.26048 7.77514 9.92838 4.89853 4.83795 4.84186 4.57366 3.67475 
4.08913 3.55577 3.51542 3.51542 4.73582 5.10289 5.10289 5.47387 5.47387 
5.18859 4.671 4.52298 3.9547 3.78699 3.78699 4.15678 4.67056 5.00555 
5.10506 5.4755 5.72163 6.0602 6.38072 6.28881 6.53722 6.5878 6.91245 
7.54195 7.70162 8.29153 9.30845 8.67883 4.12578 5.99984 6.57659 6.12111 
8.02801 8.20104 7.28898 6.54375 6.55647 5.96057 6.07956 5.97765 4.92224 
8.83697 9.51041 8.85567 8.69297 9.10115 9.72315 10.3196 10.4487 9.83909 
7.26962 5.8665 4.39986 3.35706 2.99315 6.95399 6.25923 6.00843 4.68144 
3.85116 3.85116 2.60998 2.64392 2.44271 2.38224 2.38224 2.65338 3.2346 
3.06972 3.18489 3.08984 2.95454 2.56713 2.42553 2.42977 3.03491 3.03491 
3.50302 4.06933 3.82256 3.47441 3.22753 3.00294 3.24417 2.82566 3.68748 
3.87128 5.53075 7.17228 7.98602 8.22997 8.11915 7.92175 6.63826 5.35238 
4.30937 2.50296 2.42629 2.42629 3.42351 5.7499 5.33574 5.71652 5.30801 
5.16912 5.2657 6.03866 6.03866 6.77215 4.62206 5.63016 5.30627 7.221 
6.03997 6.53646 7.0248 6.29741 5.66681 5.71869 5.33422 5.24852 6.09935 
5.46571 5.14356 5.70042 6.93996 4.51123 5.47061 5.00054 4.60107 4.82131 
5.33825 5.33825 6.58301 5.85442 6.26489 4.63163 5.1453 3.59024 2.19506 
4.58878 4.21638 3.4147 3.39665 3.64049 3.85867 4.02322 4.25825 4.35788 
4.73854 4.62488 4.19126 3.45484 3.35586 3.54652 3.86519 3.84061 3.46734 
3.66333 3.53815 3.49856 3.91337 3.85486 4.00941 3.72739 3.68856 3.10648 
3.00315 2.67143 2.41791 2.01169 1.54881 1.69433 1.61678 
rRFP 1 268 double
2397.78 2388.21 2359.53 2609.12 2679.8 2543.4 2658.53 2352.43 2469.95 
2843.52 2739.65 2863.12 2822.4 2872.3 2394.65 2785.3 2734.06 2408.46 
2486.44 2341.07 2701.7 2552.9 2457.83 3106.56 3062.59 3028.04 3095.99 
2826.15 2506.51 2912.84 2886.46 2555.43 2858.01 2609.77 2710.72 2793.57 
2887.46 2899.73 2875.68 2846.33 2863.33 3057.12 3025.37 2962.98 2957.48 
2903.64 2964.94 3000.42 2994.88 2889.49 2867.94 2919.22 2875.74 2890.65 
2926.94 2970.75 2963.23 2901.6 2807.04 2653.69 2635.56 2635.56 2622.9 
2627.17 2611.48 2636.43 2667.86 2648.89 2566.48 2566.48 2525.37 2958.52 
2953.27 3007.46 3161.99 3024.32 3088.14 3044.62 3017.22 2910.68 2906.21 
2944.17 2916.69 2964.01 3161.99 2699.52 2693.95 2694.31 2669.65 2587 
2625.1 2576.06 2572.35 2572.35 2684.56 2718.31 2718.31 2752.42 2752.42 
2726.19 2678.6 2664.99 2612.74 2597.32 2597.32 2631.32 2678.56 2709.36 
2718.51 2752.57 2775.2 2806.33 2835.8 2827.35 2850.19 2854.84 2884.69 
2942.57 2957.25 3011.49 3104.99 3047.1 2628.47 2800.78 2853.81 2811.93 
2987.26 3003.17 2919.31 2850.79 2851.96 2797.17 2808.11 2798.74 2701.7 
3061.64 3123.56 3063.36 3048.4 3085.93 3143.12 3197.96 3209.83 3153.78 
2917.53 2788.52 2653.67 2557.79 2524.33 2888.51 2824.63 2801.57 2679.56 
2603.22 2603.22 2489.1 2492.22 2473.72 2468.16 2468.16 2493.09 2546.53 
2531.37 2541.96 2533.22 2520.78 2485.16 2472.14 2472.53 2528.17 2528.17 
2571.21 2623.28 2600.59 2568.58 2545.88 2525.23 2547.41 2508.93 2588.17 
2605.07 2757.65 2908.58 2983.4 3005.83 2995.64 2977.49 2859.48 2741.25 
2645.35 2479.26 2472.21 2472.21 2563.9 2777.8 2739.72 2774.73 2737.17 
2724.4 2733.28 2804.35 2804.35 2871.79 2674.1 2766.79 2737.01 2913.06 
2804.47 2850.12 2895.02 2828.14 2770.16 2774.93 2739.58 2731.7 2809.93 
2751.67 2722.05 2773.25 2887.22 2663.91 2752.12 2708.9 2672.17 2692.42 
2739.95 2739.95 2854.4 2787.41 2825.15 2674.98 2722.21 2579.23 2450.95 
2671.04 2636.8 2563.09 2561.43 2583.85 2603.91 2619.04 2640.65 2649.81 
2684.81 2674.36 2634.49 2566.78 2557.68 2575.21 2604.51 2602.25 2567.93 
2585.95 2574.44 2570.8 2608.94 2603.56 2617.77 2591.84 2588.27 2534.75 
2525.25 2494.75 2471.44 2434.09 2391.53 2404.91 2397.78 
rGFP 1 268 double
2439.41 2464.53 2435.02 2531.94 2570.57 2520.8 2651.59 2609.05 2638.94 
2710.89 2621.84 2635.51 2642.01 2702.72 2497.77 2702.69 2699.51 2547.99 
2585.12 2619.99 2665.42 2587.14 2506.94 2799.65 2700.09 2761.06 2797.84 
2671.3 2621.75 2723.44 2676.53 2643.83 2693.09 2654.01 2638.78 2647.47 
2672.02 2667.62 2732.23 2730.96 2693.48 2751.09 2760.47 2742.1 2741.04 
2768.51 2822.62 2835.96 2702.75 2754.05 2763.95 2794.83 2797.4 2789.3 
2736.63 2720.05 2696.67 2677.7 2686.26 2635.94 2647.02 2647.02 2655.21 
2672.3 2660.6 2666.95 2685.37 2687.83 2653.54 2653.54 2624.65 2763.1 
2734.63 2710.33 2794.96 2701.11 2780.75 2722.67 2705.67 2694.48 2720.59 
2736.52 2803.1 2813.81 2794.96 2699.07 2696.56 2666.85 2646.99 2653.22 
2654.53 2684.89 2703.64 2703.64 2695.89 2701.33 2701.33 2676.74 2676.74 
2667.4 2638.84 2648.54 2651.42 2621.2 2621.2 2629.41 2645.96 2637.09 
2622.12 2622.31 2637.78 2648.22 2675.57 2682.46 2707.4 2708.63 2704.65 
2695.78 2677.64 2690.37 2688.05 2729.53 2644.75 2743.44 2713.59 2728.12 
2686.72 2731.51 2712.16 2672.95 2671.36 2652.46 2651.05 2658.95 2665.42 
2695.02 2749.11 2730.27 2726.2 2687.23 2664.2 2610.44 2606.62 2587.67 
2592.22 2612.48 2581.36 2531.88 2531.6 2670.07 2666 2663.14 2653.93 
2651.49 2651.49 2622.89 2627.73 2579.23 2567.65 2567.65 2560.83 2602.04 
2627.73 2661.17 2639.02 2637.19 2601.91 2615.01 2599.09 2609.81 2609.81 
2597.15 2595.07 2599.52 2586.33 2591.33 2581.16 2580.58 2595.36 2651.65 
2661.16 2691.27 2700.46 2670.84 2684.48 2691.62 2665.91 2619.38 2602.16 
2612.53 2579.9 2634.59 2634.59 2628.48 2640.59 2645.79 2726.43 2727.22 
2729.17 2709.46 2702.17 2702.17 2733.74 2690.41 2684.69 2669.89 2691.17 
2708.48 2704.31 2720.78 2639.93 2637.32 2649.62 2632.94 2620.73 2653.8 
2642.89 2636.36 2591.19 2669.11 2647.17 2646.85 2649.96 2653.49 2659.17 
2672.99 2672.99 2665.64 2666.48 2660.22 2651.54 2705.84 2683.96 2668.7 
2565.53 2545.99 2546.96 2529.15 2510.83 2509.56 2547.94 2555.11 2553.11 
2551.52 2539.68 2546.12 2558.23 2523.22 2521.35 2539.47 2573.17 2587.41 
2539.06 2516.51 2524.69 2539.81 2535.22 2524.64 2518.83 2510.49 2490.79 
2505.11 2483.43 2471 2455.46 2449.94 2470.41 2439.41 
bkstRFP 1 268 double
148.655 139.085 110.405 359.995 430.675 294.275 409.405 103.305 220.825 
594.395 490.525 613.995 573.275 623.175 145.525 536.175 484.935 159.335 
237.315 91.945 452.575 303.775 208.705 857.435 813.465 778.915 846.865 
577.025 257.385 663.715 637.335 306.305 608.885 360.645 461.595 544.445 
638.335 650.605 626.555 597.205 614.205 807.995 776.245 713.855 708.355 
654.515 715.815 751.295 745.755 640.365 618.815 670.095 626.615 641.525 
677.815 721.625 714.105 652.475 557.915 404.565 386.435 386.435 373.775 
378.045 362.355 387.305 418.735 399.765 317.355 317.355 276.245 709.395 
704.145 758.335 912.865 775.195 839.015 795.495 768.095 661.555 657.085 
695.045 667.565 714.885 912.865 450.395 444.825 445.185 420.525 337.875 
375.975 326.935 323.225 323.225 435.435 469.185 469.185 503.295 503.295 
477.065 429.475 415.865 363.615 348.195 348.195 382.195 429.435 460.235 
469.385 503.445 526.075 557.205 586.675 578.225 601.065 605.715 635.565 
693.445 708.125 762.365 855.865 797.975 379.345 551.655 604.685 562.805 
738.135 754.045 670.185 601.665 602.835 548.045 558.985 549.615 452.575 
812.515 874.435 814.235 799.275 836.805 893.995 948.835 960.705 904.655 
668.405 539.395 404.545 308.665 275.205 639.385 575.505 552.445 430.435 
354.095 354.095 239.975 243.095 224.595 219.035 219.035 243.965 297.405 
282.245 292.835 284.095 271.655 236.035 223.015 223.405 279.045 279.045 
322.085 374.155 351.465 319.455 296.755 276.105 298.285 259.805 339.045 
355.945 508.525 659.455 734.275 756.705 746.515 728.365 610.355 492.125 
396.225 230.135 223.085 223.085 314.775 528.675 490.595 525.605 488.045 
475.275 484.155 555.225 555.225 622.665 424.975 517.665 487.885 663.935 
555.345 600.995 645.895 579.015 521.035 525.805 490.455 482.575 560.805 
502.545 472.925 524.125 638.095 414.785 502.995 459.775 423.045 443.295 
490.825 490.825 605.275 538.285 576.025 425.855 473.085 330.105 201.825 
421.915 387.675 313.965 312.305 334.725 354.785 369.915 391.525 400.685 
435.685 425.235 385.365 317.655 308.555 326.085 355.385 353.125 318.805 
336.825 325.315 321.675 359.815 354.435 368.645 342.715 339.145 285.625 
276.125 245.625 222.315 184.965 142.405 155.785 148.655 
bkstGFP 1 268 double
4.39 29.51 0 96.92 135.55 85.78 216.57 174.03 203.92 
275.87 186.82 200.49 206.99 267.7 62.75 267.67 264.49 112.97 
150.1 184.97 230.4 152.12 71.92 364.63 265.07 326.04 362.82 
236.28 186.73 288.42 241.51 208.81 258.07 218.99 203.76 212.45 
237 232.6 297.21 295.94 258.46 316.07 325.45 307.08 306.02 
333.49 387.6 400.94 267.73 319.03 328.93 359.81 362.38 354.28 
301.61 285.03 261.65 242.68 251.24 200.92 212 212 220.19 
237.28 225.58 231.93 250.35 252.81 218.52 218.52 189.63 328.08 
299.61 275.31 359.94 266.09 345.73 287.65 270.65 259.46 285.57 
301.5 368.08 378.79 359.94 264.05 261.54 231.83 211.97 218.2 
219.51 249.87 268.62 268.62 260.87 266.31 266.31 241.72 241.72 
232.38 203.82 213.52 216.4 186.18 186.18 194.39 210.94 202.07 
187.1 187.29 202.76 213.2 240.55 247.44 272.38 273.61 269.63 
260.76 242.62 255.35 253.03 294.51 209.73 308.42 278.57 293.1 
251.7 296.49 277.14 237.93 236.34 217.44 216.03 223.93 230.4 
260 314.09 295.25 291.18 252.21 229.18 175.42 171.6 152.65 
157.2 177.46 146.34 96.86 96.58 235.05 230.98 228.12 218.91 
216.47 216.47 187.87 192.71 144.21 132.63 132.63 125.81 167.02 
192.71 226.15 204 202.17 166.89 179.99 164.07 174.79 174.79 
162.13 160.05 164.5 151.31 156.31 146.14 145.56 160.34 216.63 
226.14 256.25 265.44 235.82 249.46 256.6 230.89 184.36 167.14 
177.51 144.88 199.57 199.57 193.46 205.57 210.77 291.41 292.2 
294.15 274.44 267.15 267.15 298.72 255.39 249.67 234.87 256.15 
273.46 269.29 285.76 204.91 202.3 214.6 197.92 185.71 218.78 
207.87 201.34 156.17 234.09 212.15 211.83 214.94 218.47 224.15 
237.97 237.97 230.62 231.46 225.2 216.52 270.82 248.94 233.68 
130.51 110.97 111.94 94.13 75.81 74.54 112.92 120.09 118.09 
116.5 104.66 111.1 123.21 88.2 86.33 104.45 138.15 152.39 
104.04 81.49 89.67 104.79 100.2 89.62 83.81 75.47 55.77 
70.09 48.41 35.98 20.44 14.92 35.39 4.39 
tubeWidth 1 268 double
0.108335 0.103211 0.00183105 0.21188 0.197592 0.154473 0.208694 0.0413974 0.121396 
0.197408 0.24988 0.176817 0.115193 0.147659 0.0580584 0.0962592 0.125621 0.0823631 
0.132515 0.000841459 0.0964107 0.144529 0.0668092 0.0797655 0.139689 0.206683 0.0952708 
0.198141 0.0985527 0.188465 0.203506 0.108024 0.28785 0.17186 0.17926 0.211526 
0.209597 0.236902 0.121253 0.150158 0.176956 0.284801 0.239457 0.19597 0.198686 
0.172125 0.238568 0.153658 0.183876 0.170209 0.243906 0.250073 0.246413 0.170978 
0.257035 0.307599 0.299416 0.280748 0.22971 0.200536 0.18672 0.165148 0.14723 
0.162099 0.196864 0.24245 0.206536 0.150414 0.158093 0.184889 0.155765 0.156382 
0.122279 0.193444 0.151384 0.274372 0.130074 0.150999 0.167291 0.235268 0.0962582 
0.17203 0.0910129 0.149336 0.129987 0.231948 0.28586 0.248443 0.231893 0.220786 
0.215307 0.196466 0.197144 0.207163 0.221917 0.246745 0.257157 0.216632 0.214061 
0.232665 0.252142 0.186801 0.156868 0.163527 0.165643 0.170959 0.161056 0.173318 
0.17026 0.152794 0.164198 0.213292 0.232741 0.222613 0.159671 0.146919 0.183193 
0.196735 0.191908 0.162736 0.0922532 0.155419 0.139654 0.131591 0.123966 0.172687 
0.258248 0.2206 0.204645 0.246137 0.219025 0.195834 0.213977 0.185586 0.130266 
0.152214 0.205352 0.234525 0.240358 0.260721 0.279587 0.280623 0.28865 0.276365 
0.232792 0.238696 0.227945 0.21886 0.122112 0.129055 0.259166 0.222984 0.20811 
0.200838 0.178624 0.141505 0.15189 0.155143 0.146266 0.16427 0.200973 0.227759 
0.208709 0.192798 0.17575 0.187675 0.153086 0.136111 0.135958 0.158559 0.18561 
0.223164 0.22344 0.203383 0.237975 0.205763 0.165201 0.190948 0.139332 0.182499 
0.178734 0.222097 0.220707 0.208337 0.243044 0.251835 0.207443 0.213279 0.156469 
0.221122 0.211879 0.110075 0.186163 0.247786 0.216466 0.194723 0.0792596 0.12709 
0.123875 0.11405 0.128526 0.165614 0.119241 0.144478 0.0965109 0.0965728 0.168155 
0.183076 0.204922 0.27999 0.193418 0.111984 0.125207 0.190048 0.252277 0.286512 
0.237132 0.227188 0.239578 0.266955 0.273862 0.242744 0.256891 0.218191 0.195068 
0.201144 0.190428 0.196839 0.268998 0.294812 0.233492 0.183241 0.151559 0.103563 
0.196498 0.220374 0.153269 0.214644 0.232086 0.267176 0.252584 0.227443 0.155448 
0.161662 0.17119 0.214973 0.105619 0.16489 0.222112 0.201724 0.202042 0.193671 
0.202658 0.171104 0.187992 0.106246 0.11053 0.215221 0.173366 0.202227 0.217312 
0.223986 0.166052 0.136467 0.15253 0.109944 0.106761 0.088749 
