# vtk DataFile Version 3.0
vtk output
ASCII
DATASET POLYDATA
POINTS 288 float
0.381049 -0.557342 0.676635 -0.0101122 0.110549 0.753541 -0.665039 0.260824 -0.18355 
0.94364 -1.78996 -1.09739 -0.696404 0.17113 -0.903197 0.370111 -0.36298 -2.01096 
0.10371 -0.0458182 -1.89853 3.55695 0.369566 -2.62655 5.94434 0.769974 -2.6145 
5.16768 0.41765 -2.71831 5.21109 0.776818 -2.86336 5.15613 0.786695 -2.83535 
5.10023 0.794338 -2.79273 5.04382 0.80076 -2.74282 4.98693 0.805341 -2.69321 
4.92751 0.799768 -2.65284 4.86124 0.769116 -2.60923 4.79446 0.737242 -2.55833 
4.73311 0.726373 -2.49636 4.67129 0.714388 -2.42708 4.60308 0.679058 -2.35427 
4.53396 0.640973 -2.27444 4.46961 0.61947 -2.20678 4.40488 0.595272 -2.15457 
4.34289 0.580078 -2.11583 4.27915 0.558943 -2.0706 4.21973 0.553997 -2.02262 
4.16333 0.559801 -1.98031 4.10834 0.569572 -1.95232 4.05388 0.580671 -1.9316 
3.9994 0.592388 -1.90328 3.94747 0.613631 -1.87334 3.89894 0.648308 -1.83362 
3.84752 0.671506 -1.80335 3.79657 0.696439 -1.77278 3.7525 0.745939 -1.75304 
3.7089 0.797172 -1.73299 3.66147 0.834694 -1.70779 3.61648 0.883312 -1.6582 
3.57309 0.938602 -1.59998 3.52763 0.986103 -1.54308 3.47879 1.02027 -1.49596 
3.43284 1.06593 -1.43938 3.38592 1.10862 -1.3758 3.33215 1.12623 -1.30899 
3.27538 1.13319 -1.2365 3.22018 1.14672 -1.15538 3.16833 1.17349 -1.06453 
3.11311 1.18691 -0.983428 3.05581 1.19193 -0.911266 2.99853 1.19633 -0.846699 
2.94171 1.20184 -0.789442 2.8858 1.2101 -0.739218 2.83243 1.22727 -0.694981 
2.77991 1.24825 -0.642597 2.71969 1.24033 -0.595114 2.66075 1.23723 -0.54682 
2.60389 1.24129 -0.504811 2.54397 1.23512 -0.449539 2.47929 1.21175 -0.389692 
2.41542 1.19209 -0.321723 2.35119 1.16912 -0.276809 2.28921 1.15392 -0.238062 
2.22688 1.13614 -0.214755 2.16839 1.13342 -0.181386 2.11244 1.14024 -0.146409 
2.05555 1.14482 -0.0968105 1.99615 1.13998 -0.0488038 1.93337 1.1218 -0.0105738 
1.87585 1.12143 0.00819244 1.82178 1.13271 0.013949 1.76768 1.14389 0.019688 
1.70966 1.14167 0.0381398 1.64386 1.11213 0.0744394 1.57759 1.08148 0.118059 
1.51814 1.0758 0.158414 1.46263 1.08301 0.178468 1.406 1.08466 0.182588 
1.34505 1.07013 0.183958 1.28399 1.05643 0.20046 1.21717 1.0231 0.236115 
1.14685 0.977909 0.284753 1.07563 0.929966 0.340425 1.00487 0.883759 0.396391 
0.937576 0.849939 0.446963 0.877607 0.842317 0.486987 0.819049 0.838044 0.50509 
0.754579 0.810926 0.51182 0.686638 0.771419 0.523935 0.616903 0.726694 0.557661 
0.547955 0.679155 0.606029 0.488756 0.628982 0.654622 0.446415 0.575498 0.696283 
0.400601 0.526684 0.71591 0.362473 0.478279 0.721082 0.319585 0.436138 0.69686 
0.283808 0.393317 0.665491 0.241755 0.353437 0.626657 0.203175 0.308887 0.609855 
0.146902 0.265386 0.614609 0.0808643 0.219549 0.648403 0.0235373 0.16887 0.697039 
5.22483 0.418572 -2.71449 5.28836 0.443458 -2.7066 5.35489 0.479613 -2.6968 
5.42188 0.517505 -2.6867 5.48844 0.553766 -2.67687 5.55246 0.5805 -2.66867 
5.61264 0.59278 -2.66292 5.67666 0.619515 -2.65472 5.74322 0.655775 -2.64489 
5.81024 0.693772 -2.63477 5.87729 0.731873 -2.62464 3.58258 0.306421 -2.63455 
3.59351 0.24725 -2.64289 3.60763 0.187213 -2.65116 3.60528 0.13163 -2.6598 
3.5927 0.0775643 -2.66136 3.57743 0.0217407 -2.64835 3.56075 -0.0374335 -2.61342 
3.54536 -0.0982004 -2.57113 3.53962 -0.161574 -2.52863 3.54895 -0.227779 -2.4931 
3.54273 -0.292267 -2.44329 3.52546 -0.3575 -2.37177 3.50465 -0.426755 -2.27107 
3.48456 -0.498689 -2.15571 3.47353 -0.574318 -2.03282 3.47536 -0.653421 -1.90963 
3.45331 -0.724824 -1.79433 3.40605 -0.786932 -1.69423 3.36157 -0.846056 -1.61602 
3.30143 -0.898463 -1.55281 3.23248 -0.946002 -1.50444 3.16274 -0.990727 -1.47072 
3.09477 -1.03034 -1.45862 3.03031 -1.05809 -1.4595 2.97063 -1.06852 -1.46493 
2.90966 -1.08379 -1.47118 2.85047 -1.09239 -1.47631 2.7895 -1.10765 -1.48256 
2.72985 -1.11798 -1.48798 2.66634 -1.14277 -1.49585 2.60281 -1.16766 -1.50374 
2.54266 -1.17985 -1.50948 2.47864 -1.20658 -1.51768 2.41209 -1.24284 -1.5275 
2.34459 -1.28195 -1.53031 2.27613 -1.3234 -1.51853 2.20629 -1.3681 -1.4848 
2.13644 -1.41218 -1.44346 2.0696 -1.44561 -1.40783 2.00802 -1.46124 -1.39165 
1.94308 -1.49011 -1.38522 1.8756 -1.52788 -1.37281 1.80882 -1.5611 -1.33714 
1.74584 -1.57936 -1.29141 1.68206 -1.60132 -1.25382 1.62148 -1.61317 -1.23701 
1.56054 -1.62771 -1.23564 1.50391 -1.62668 -1.23913 1.44728 -1.62564 -1.24261 
1.38678 -1.63916 -1.24857 1.32665 -1.65062 -1.24668 1.26125 -1.6806 -1.23294 
1.1919 -1.72346 -1.19891 1.1221 -1.76733 -1.15753 1.05578 -1.79882 -1.12157 
0.997739 -1.80113 -1.10313 0.29279 -0.318314 -2.00761 0.231832 -0.290755 -2.01032 
0.181788 -0.259851 -2.01932 0.141168 -0.204032 -2.01792 0.112088 -0.132858 -1.97888 
0.015658 -0.0617769 -1.90664 -0.0498396 -0.0575066 -1.90269 -0.103136 -0.0367368 -1.88042 
-0.152258 -0.00335761 -1.83343 -0.205605 0.0145339 -1.78156 -0.26146 0.0230058 -1.7313 
-0.316845 0.0325952 -1.68835 -0.370662 0.049371 -1.62918 -0.421572 0.0783588 -1.55293 
-0.477708 0.0896659 -1.45721 -0.536365 0.0921596 -1.35548 -0.593866 0.100936 -1.2302 
-0.64593 0.132077 -1.07861 0.182311 -0.000535147 -1.72137 0.245798 0.01727 -1.58692 
0.298899 0.00683839 -1.51001 0.35066 -0.0100285 -1.47923 0.40278 -0.0273393 -1.47101 
0.452211 -0.0549664 -1.47205 0.49348 -0.106823 -1.48483 0.522808 -0.165151 -1.51438 
0.535198 -0.215576 -1.57685 0.538582 -0.260379 -1.67809 0.483682 -0.301288 -1.82754 
0.362712 -0.479467 -1.99019 0.382537 -0.565352 -1.97501 0.405118 -0.632586 -1.97182 
0.404428 -0.689269 -1.97752 0.394399 -0.742779 -1.98634 0.394483 -0.797776 -2.00226 
0.42143 -0.857545 -2.03218 0.459429 -0.916571 -2.0838 0.488353 -0.971897 -2.14297 
0.492553 -1.02179 -2.19537 0.493107 -1.07567 -2.21859 0.506429 -1.13786 -2.21221 
0.514649 -1.20304 -2.16909 0.540508 -1.26639 -2.10201 0.579488 -1.31841 -2.01736 
0.619407 -1.37462 -1.94078 0.661707 -1.42297 -1.87037 0.703192 -1.47503 -1.80807 
0.748989 -1.51089 -1.74304 0.796852 -1.53835 -1.66906 0.843277 -1.56926 -1.5732 
0.884352 -1.61702 -1.44269 0.916201 -1.69618 -1.28005 -0.722958 0.0885028 -0.714802 
-0.747284 0.00651845 -0.533677 -0.760559 -0.0747217 -0.37425 -0.756852 -0.154332 -0.251018 
-0.765319 -0.224432 -0.164671 -0.780155 -0.289081 -0.100414 -0.784303 -0.35413 -0.0505524 
-0.761453 -0.423874 -0.0146941 -0.725226 -0.491641 -0.000196673 -0.684101 -0.549164 0.00868042 
-0.639029 -0.591641 0.0276121 -0.597122 -0.64341 0.0749543 -0.554822 -0.69176 0.145378 
-0.514773 -0.747262 0.229566 -0.469967 -0.7862 0.301589 -0.423715 -0.822301 0.344094 
-0.380589 -0.874033 0.338962 -0.335575 -0.921918 0.297005 -0.286266 -0.954971 0.242557 
-0.241302 -1.00369 0.192957 -0.200286 -1.06529 0.163659 -0.160173 -1.12964 0.141384 
-0.119129 -1.19113 0.112103 -0.0736726 -1.238 0.062817 -0.0213641 -1.2598 0.010284 
0.0305013 -1.2826 -0.0349112 0.0750374 -1.33098 -0.0619636 0.118171 -1.38333 -0.0747005 
0.164215 -1.42411 -0.0779701 0.20685 -1.47768 -0.0834144 0.249956 -1.53014 -0.096169 
0.29741 -1.56757 -0.121359 0.342894 -1.61433 -0.170627 0.389311 -1.65825 -0.22692 
0.441204 -1.68095 -0.272098 0.492595 -1.70424 -0.302386 0.540163 -1.74189 -0.335113 
0.590012 -1.77226 -0.381596 0.639489 -1.80533 -0.443536 0.694191 -1.82009 -0.517363 
0.75243 -1.8235 -0.611742 0.811438 -1.82726 -0.743682 0.871951 -1.82862 -0.912693 
-0.728503 0.213404 -0.761766 -0.734737 0.246995 -0.60311 -0.715734 0.270883 -0.412404 
-0.613087 0.180308 0.0458884 -0.57173 0.104046 0.249011 -0.534073 0.0386753 0.387856 
-0.489541 -0.000464487 0.472968 -0.440757 -0.0264115 0.524699 -0.394538 -0.0619891 0.574793 
-0.355168 -0.123285 0.620526 -0.318299 -0.194619 0.657043 -0.279557 -0.260868 0.671934 
-0.234336 -0.304087 0.67575 -0.177927 -0.305939 0.679096 -0.122804 -0.31197 0.689231 
-0.0706944 -0.328024 0.712654 -0.0204275 -0.349697 0.750121 0.0277198 -0.37998 0.778625 
0.0734103 -0.422081 0.77513 0.121824 -0.45655 0.742943 0.166867 -0.504329 0.700993 
0.211456 -0.552511 0.673975 0.26201 -0.576999 0.665973 0.318091 -0.580082 0.66911 

LINES 9 305
93 10 11 12 13 14 15 16 17 18 19 20 21 22 23 24 25 26 27 28 29 30 31 32 33 34 35 36 37 38 39 40 41 42 43 44 45 46 47 48 49 50 51 52 53 54 55 56 57 58 59 60 61 62 63 64 65 66 67 68 69 70 71 72 73 74 75 76 77 78 79 80 81 82 83 84 85 86 87 88 89 90 91 92 93 94 95 96 97 98 99 100 101 1 
13 9 102 103 104 105 106 107 108 109 110 111 112 8 
58 7 113 114 115 116 117 118 119 120 121 122 123 124 125 126 127 128 129 130 131 132 133 134 135 136 137 138 139 140 141 142 143 144 145 146 147 148 149 150 151 152 153 154 155 156 157 158 159 160 161 162 163 164 165 166 167 168 3 
7 5 169 170 171 172 173 6 
15 6 174 175 176 177 178 179 180 181 182 183 184 185 186 4 
13 6 187 188 189 190 191 192 193 194 195 196 197 5 
25 5 198 199 200 201 202 203 204 205 206 207 208 209 210 211 212 213 214 215 216 217 218 219 220 3 
45 4 221 222 223 224 225 226 227 228 229 230 231 232 233 234 235 236 237 238 239 240 241 242 243 244 245 246 247 248 249 250 251 252 253 254 255 256 257 258 259 260 261 262 263 3 
27 4 264 265 266 2 267 268 269 270 271 272 273 274 275 276 277 278 279 280 281 282 283 284 285 286 287 0 

POINT_DATA 288
SCALARS DY_raw double
LOOKUP_TABLE default
149.288 85.5262 122.733 117.57 132.949 92.4817 129.448 95.077 236.854 
104.303 143.147 154.642 179.18 175.11 191.415 99.7125 88.0926 115.937 
119.68 113.385 161.951 128.754 161.91 158.456 119.537 136.826 122.86 
128.63 154.07 135.682 146.867 146.867 147.99 142.753 153.821 133.757 
133.757 133.452 142.866 163.442 141.427 130.039 152.779 139.976 169.098 
191.415 149.578 169.222 152.552 169.916 194.555 175.565 168.332 179.581 
140.668 124.668 136.264 137.66 175.541 181.836 171.863 184.934 205.744 
174.287 189.718 162.25 198.388 227.697 196.879 209.535 209.535 170.182 
170.182 144.895 131.854 149.015 141.361 122.708 122.708 134.919 123.208 
126.967 145.037 151.743 115.994 103.334 122.452 120.083 105.509 120.958 
110.075 99.479 110.576 152.002 115.668 120.382 81.2796 81.2796 79.4255 
62.3834 72.878 77.0025 118.725 108.196 124.117 124.117 137.381 175.389 
172.435 180.102 189.743 165.638 192.107 85.5684 84.9825 84.9825 77.0678 
72.7048 72.7048 89.2843 91.8611 101.217 92.2252 100.791 105.876 125.737 
151.063 153.327 117.299 102.831 117.945 114.484 106.748 122.948 143.59 
141.975 171.378 176.547 157.072 187.958 151.082 160.456 211.862 147.527 
201.728 216.528 187.093 187.093 225.148 173.187 215.634 159.792 153.793 
159.663 112.956 152.811 190.675 178.42 208.836 186.077 162.901 195.083 
176.699 190.522 202.992 137.578 123.45 121.395 117.57 98.9619 87.5095 
109.133 110.641 123.351 127.623 129.736 115.764 124.898 135.506 123.221 
113.39 100.345 103.058 136.289 166.453 158.861 103.464 108.355 110.053 
118.971 142.131 149.862 149.862 144.087 150.569 173.272 145.988 121.736 
124.242 150.397 147.567 141.963 152.06 157.611 174.231 186.49 182.866 
146.885 78.7002 98.0245 92.4464 87.3638 99.8988 111.13 119.751 112.454 
118.594 107.542 130.005 146.096 120.998 159.64 141.884 117.041 98.9492 
102.665 143.473 163.443 184.035 189.04 170.478 178.907 137.277 104.873 
124.685 171.803 212.635 241.088 241.253 228.815 155.593 139.651 119.921 
84.062 70.3406 68.402 76.5796 68.8237 68.8237 62.9159 59.1208 75.7765 
109.559 101.854 91.9906 83.609 83.6548 90.1988 102.728 95.0784 100.276 
101.071 97.1914 107.262 108.484 120.031 129.928 129.832 146.691 146.069 
127.495 111.706 118.134 113.57 123.936 109.868 106.699 111.592 119.725 
130.859 130.859 147.757 156.598 147.497 149.336 135.227 144.345 144.345 

FIELD FieldData 7
DY_minmax 1 288 double
0.495063 0.144979 0.349264 0.320914 0.405352 0.183168 0.386131 0.197418 0.975843 
0.248075 0.461346 0.52446 0.659184 0.636842 0.726363 0.222869 0.15907 0.31195 
0.332501 0.29794 0.564588 0.382321 0.564364 0.545401 0.331714 0.426638 0.349961 
0.381643 0.521322 0.420358 0.48177 0.48177 0.487937 0.459183 0.51995 0.409789 
0.409789 0.408115 0.459803 0.572779 0.451904 0.389378 0.514233 0.443938 0.603831 
0.726361 0.496654 0.604514 0.512986 0.608321 0.743601 0.63934 0.599624 0.661387 
0.447733 0.359885 0.423555 0.431222 0.639204 0.673766 0.619012 0.690777 0.805036 
0.632319 0.717047 0.56623 0.764647 0.92557 0.756361 0.825847 0.825847 0.609781 
0.609781 0.470945 0.399342 0.493566 0.45154 0.349129 0.349129 0.416172 0.35187 
0.372509 0.471722 0.508545 0.312265 0.242754 0.347721 0.334715 0.254696 0.33952 
0.279763 0.221587 0.282515 0.509964 0.310471 0.336356 0.121663 0.121663 0.111483 
0.0179134 0.0755342 0.0981798 0.327259 0.269449 0.356863 0.356863 0.429689 0.638371 
0.622153 0.66425 0.717182 0.584832 0.73016 0.145211 0.141994 0.141994 0.0985382 
0.074583 0.074583 0.165613 0.179761 0.231127 0.18176 0.228789 0.256707 0.365756 
0.504809 0.517241 0.31943 0.239991 0.322976 0.303973 0.261499 0.350442 0.463778 
0.454914 0.616351 0.644727 0.537804 0.707379 0.504911 0.556383 0.838626 0.485394 
0.782986 0.864248 0.702633 0.702633 0.911576 0.62628 0.859337 0.552734 0.519796 
0.552025 0.295581 0.514405 0.722297 0.65501 0.822011 0.697052 0.569804 0.746503 
0.645566 0.721461 0.789924 0.430768 0.3532 0.341918 0.320914 0.218748 0.155868 
0.274594 0.282869 0.352657 0.376111 0.387715 0.311001 0.36115 0.419393 0.351943 
0.297965 0.226344 0.241236 0.423691 0.589306 0.547622 0.243465 0.27032 0.279644 
0.32861 0.455769 0.498216 0.498216 0.466506 0.502095 0.626749 0.476946 0.343789 
0.35755 0.501155 0.485615 0.454845 0.510284 0.540761 0.632013 0.699319 0.679423 
0.481868 0.107501 0.213601 0.182974 0.155068 0.223892 0.285555 0.332889 0.292825 
0.32654 0.265854 0.389187 0.477538 0.339735 0.551902 0.454414 0.318012 0.218678 
0.239081 0.463139 0.572784 0.685839 0.71332 0.611407 0.657687 0.429117 0.251205 
0.359979 0.618681 0.84287 0.999091 1 0.931709 0.529684 0.442154 0.333823 
0.13694 0.0616022 0.0509583 0.0958577 0.0532741 0.0532741 0.0208373 0 0.0914481 
0.276931 0.234627 0.180472 0.134452 0.134704 0.170634 0.239426 0.197425 0.225962 
0.230327 0.209027 0.264321 0.271031 0.334425 0.388765 0.388241 0.480803 0.477388 
0.37541 0.288719 0.324012 0.298956 0.355868 0.278626 0.261227 0.288091 0.332749 
0.393879 0.393879 0.486655 0.535201 0.48523 0.495327 0.417859 0.467922 0.467922 

WidthEq 1 288 double
1.55047 1.67091 2.52016 4.32762 3.46794 2.71975 2.90949 3.33358 2.18771 
3.02682 2.94961 2.57237 2.34316 2.76104 2.36798 3.68978 3.90631 3.42511 
3.38525 3.27465 2.35687 2.72199 2.33925 2.52579 2.97404 2.85836 3.03294 
2.86143 2.64345 2.64131 2.50007 2.50007 2.39703 2.55761 2.5748 2.95661 
2.95661 3.05666 3.19626 2.92774 3.16153 3.09743 2.9062 2.68658 2.42692 
2.40638 2.79391 2.60472 2.71072 2.5606 2.33706 2.95609 3.0988 3.00002 
3.2723 3.19784 3.02345 2.75735 2.56799 2.46199 2.24439 2.16833 1.91367 
2.08425 2.01265 1.96165 1.86845 1.7181 1.96993 1.88044 1.88044 1.93286 
1.93286 2.05657 2.14963 2.0497 2.07559 2.19999 2.19999 2.19833 2.12338 
2.05847 1.99892 1.88474 1.89334 1.96011 1.87818 1.92123 1.90606 1.87186 
1.75669 1.76507 1.65305 1.45148 1.58547 1.51191 1.60578 1.60578 1.68733 
1.78584 1.77292 1.75471 3.08979 3.64114 3.63879 3.63879 3.42374 2.75175 
2.89893 2.76419 2.67892 2.84794 2.6976 3.77531 4.19577 4.19577 4.31084 
4.14535 4.14535 4.07963 4.25323 4.18822 4.73284 4.61805 4.67234 4.15874 
3.82845 4.20562 4.55013 4.72977 3.51092 3.05533 2.97398 2.62198 2.49034 
2.35778 2.25196 2.33761 2.34514 2.19458 2.22262 2.12249 1.91194 2.19239 
2.01726 1.97067 2.03266 2.03266 1.97011 2.18046 1.96341 2.42201 2.51909 
2.36253 2.64163 2.3258 1.93522 1.93094 1.6972 1.89366 2.06842 1.93582 
2.23451 2.42306 2.3052 3.60572 4.22573 4.02731 4.32762 2.74709 2.98353 
2.9679 3.16717 3.05759 2.9069 2.86995 2.83341 2.69962 2.66606 2.81426 
3.17539 3.31283 3.25456 2.97535 2.92808 2.80496 3.4809 2.92065 2.8705 
2.70903 2.48733 2.56894 2.56894 2.57482 2.6136 2.6 2.56553 2.46819 
2.50082 2.33081 2.38256 2.36905 2.353 2.16544 2.23369 1.78207 1.80743 
1.72501 2.13121 2.14892 2.60743 3.01563 3.10671 3.09222 2.95094 2.90712 
2.89117 2.84166 3.13379 3.09418 3.29855 2.81105 2.89226 2.28216 2.04344 
2.02636 1.59296 1.55318 1.34479 1.20656 1.14453 1.05958 1 1.11093 
1.09466 1.30148 1.29596 1.20337 1.2636 1.02064 1.04527 1.02167 1.16208 
1.55334 1.60586 1.76379 1.79012 1.67249 1.67249 1.63229 1.89742 1.8471 
1.7624 1.99066 2.19248 2.22197 2.30288 2.53104 2.51798 2.71783 3.06482 
3.02973 3.07822 3.17611 3.99234 3.42136 2.82394 1.97067 1.78782 1.75196 
1.80498 1.7561 1.70651 1.47835 1.55175 1.67199 1.52267 1.66237 1.85147 
1.87398 1.87398 1.79313 1.49565 1.38069 1.31714 1.53155 1.59526 1.59526 

rRFP 1 288 double
2996.68 3056.33 3476.93 4372.1 3946.33 3575.78 3669.75 3879.79 3312.28 
3727.86 3689.62 3502.79 3389.27 3596.23 3401.56 4056.2 4163.44 3925.12 
3905.38 3850.6 3396.06 3576.89 3387.33 3479.72 3701.72 3644.43 3730.89 
3645.95 3537.99 3536.93 3466.98 3466.98 3415.95 3495.48 3503.99 3693.09 
3693.09 3742.64 3811.78 3678.79 3794.58 3762.83 3668.12 3559.35 3430.75 
3420.58 3612.51 3518.81 3571.31 3496.96 3386.25 3692.83 3763.51 3714.59 
3849.44 3812.56 3726.19 3594.4 3500.62 3448.12 3340.35 3302.68 3176.56 
3261.04 3225.58 3200.32 3154.16 3079.7 3204.42 3160.1 3160.1 3186.06 
3186.06 3247.33 3293.42 3243.93 3256.75 3318.36 3318.36 3317.54 3280.42 
3248.27 3218.78 3162.23 3166.49 3199.56 3158.98 3180.3 3172.79 3155.85 
3098.81 3102.96 3047.48 2947.65 3014.01 2977.58 3024.07 3024.07 3064.46 
3113.25 3106.85 3097.83 3759.05 4032.11 4030.95 4030.95 3924.44 3591.63 
3664.52 3597.79 3555.56 3639.27 3564.81 4098.56 4306.8 4306.8 4363.79 
4281.83 4281.83 4249.28 4335.26 4303.06 4572.79 4515.94 4542.83 4288.46 
4124.88 4311.68 4482.3 4571.27 3967.62 3741.98 3701.69 3527.36 3462.16 
3396.51 3344.1 3386.52 3390.25 3315.68 3329.57 3279.98 3175.7 3314.6 
3227.86 3204.79 3235.49 3235.49 3204.51 3308.69 3201.19 3428.32 3476.4 
3398.86 3537.09 3380.67 3187.23 3185.11 3069.35 3166.65 3253.2 3187.53 
3335.46 3428.84 3370.47 4014.57 4321.64 4223.37 4372.1 3589.32 3706.42 
3698.68 3797.37 3743.1 3668.47 3650.17 3632.07 3565.81 3549.19 3622.59 
3801.44 3869.51 3840.65 3702.37 3678.96 3617.98 3952.75 3675.28 3650.44 
3570.47 3460.67 3501.09 3501.09 3504 3523.21 3516.47 3499.4 3451.19 
3467.35 3383.15 3408.78 3402.09 3394.14 3301.25 3335.05 3111.38 3123.94 
3083.12 3284.3 3293.07 3520.15 3722.32 3767.43 3760.25 3690.28 3668.58 
3660.68 3636.16 3780.84 3761.22 3862.44 3621 3661.22 3359.06 3240.83 
3232.37 3017.72 2998.02 2894.81 2826.35 2795.63 2753.56 2724.05 2778.99 
2770.93 2873.36 2870.63 2824.77 2854.6 2734.27 2746.47 2734.78 2804.32 
2998.1 3024.11 3102.33 3115.37 3057.11 3057.11 3037.2 3168.51 3143.59 
3101.64 3214.69 3314.64 3329.25 3369.32 3482.32 3475.85 3574.83 3746.68 
3729.3 3753.32 3801.8 4206.05 3923.26 3627.38 3204.79 3114.23 3096.47 
3122.73 3098.52 3073.96 2960.96 2997.31 3056.86 2982.91 3052.1 3145.75 
3156.9 3156.9 3116.86 2969.53 2912.59 2881.12 2987.31 3018.86 3018.86 

rGFP 1 288 double
2704.36 2615.8 2782.2 2981.69 2933.95 2724.42 2849.52 2789.84 2991.06 
2788.6 2895.12 2870.69 2892.74 2956.38 2926.16 2840.81 2817.01 2869.99 
2878.04 2844.19 2854.59 2823.36 2851.64 2873.12 2828.4 2863.99 2845.52 
2840.96 2880.17 2831.27 2840.07 2840.07 2827.63 2838 2868.95 2868.36 
2868.36 2880.81 2929.53 2951.41 2920.02 2875.68 2916.9 2848.95 2883.28 
2933.51 2890.8 2913.67 2886.42 2907.98 2927.58 2991.88 2994.52 3011.64 
2933.2 2871.56 2884.88 2852.47 2923.68 2920.57 2858.62 2873.89 2866.62 
2836.15 2854.73 2791.17 2843.57 2864.1 2860.73 2866.91 2866.91 2801.83 
2801.83 2770.88 2756.33 2778.33 2766.3 2742.85 2742.85 2769.49 2734.51 
2734.25 2762.81 2758.89 2692.51 2675.44 2702.88 2703.6 2674 2699.31 
2666.26 2648.48 2655.68 2693.52 2656.28 2654.9 2603.41 2603.41 2606.91 
2584.3 2602.1 2608.01 2839.73 2866.85 2924.53 2924.53 2943.25 2955.52 
2972.77 2970.73 2981.2 2944.62 2991.12 2795.94 2829.46 2829.46 2805.12 
2774.28 2774.28 2837.14 2863.6 2896.81 2909.38 2938.35 2967.58 2995.8 
3051.23 3117.73 3006.62 2959.26 2886.99 2822.68 2790.36 2795.26 2830.48 
2807.64 2858.83 2885.59 2841.25 2885.38 2808.69 2813.46 2877.96 2796.33 
2879.83 2899.6 2853.19 2853.19 2916.46 2850.52 2896.27 2859.91 2860.31 
2850.1 2771.28 2828.3 2841.89 2817.41 2827.33 2825.26 2809.84 2850.54 
2867.73 2934.54 2940.83 2968.96 2994.56 2961.79 2981.69 2744.75 2733.98 
2796.79 2823.31 2850.05 2843.88 2845.23 2800.9 2810.07 2834.16 2819.67 
2832.95 2805.32 2808.3 2878.4 2960.28 2918.49 2833.04 2789.36 2788.8 
2795.19 2826.42 2857.88 2857.88 2843.89 2866.42 2923.4 2847.43 2773.36 
2783.6 2823.44 2824.48 2809.21 2830.69 2814.19 2862.07 2805.23 2803.41 
2726.27 2640.62 2683.54 2713.94 2736.35 2783.25 2816.53 2826.27 2799.81 
2815.77 2778.49 2880.3 2924.94 2872.01 2921.65 2883.26 2740 2675.09 
2680.93 2701.44 2726.75 2720.38 2700.98 2668.01 2662.46 2610.17 2589.4 
2609.38 2696.49 2748.46 2763.01 2777.74 2706.43 2635.53 2615.57 2612.25 
2603.47 2585.85 2593.54 2609.98 2588 2588 2575.59 2585.07 2612.86 
2665.98 2675.65 2674.58 2658.67 2665.54 2701.19 2731.56 2731.3 2780.22 
2779.11 2772.07 2813.57 2906 2883.56 2839.8 2728.75 2735.15 2728.8 
2703.02 2669.06 2674.49 2640.79 2665.21 2656.59 2635.36 2658.4 2694.56 
2718.12 2718.12 2737.84 2707.11 2676.54 2669.59 2680 2703.16 2703.16 

bkstRFP 1 288 double
767.894 827.544 1248.14 2143.31 1717.54 1346.99 1440.96 1651 1083.49 
1499.07 1460.83 1274 1160.48 1367.44 1172.77 1827.41 1934.65 1696.33 
1676.59 1621.81 1167.27 1348.1 1158.54 1250.93 1472.93 1415.64 1502.1 
1417.16 1309.2 1308.14 1238.19 1238.19 1187.16 1266.69 1275.2 1464.3 
1464.3 1513.85 1582.99 1450 1565.79 1534.04 1439.33 1330.56 1201.96 
1191.79 1383.72 1290.02 1342.52 1268.17 1157.46 1464.04 1534.72 1485.8 
1620.65 1583.77 1497.4 1365.61 1271.83 1219.33 1111.56 1073.89 947.774 
1032.25 996.794 971.534 925.374 850.914 975.634 931.314 931.314 957.274 
957.274 1018.54 1064.63 1015.14 1027.96 1089.57 1089.57 1088.75 1051.63 
1019.48 989.994 933.444 937.704 970.774 930.194 951.514 944.004 927.064 
870.024 874.174 818.694 718.864 785.224 748.794 795.284 795.284 835.674 
884.464 878.064 869.044 1530.26 1803.32 1802.16 1802.16 1695.65 1362.84 
1435.73 1369 1326.77 1410.48 1336.02 1869.77 2078.01 2078.01 2135 
2053.04 2053.04 2020.49 2106.47 2074.27 2344 2287.15 2314.04 2059.67 
1896.09 2082.89 2253.51 2342.48 1738.83 1513.19 1472.9 1298.57 1233.37 
1167.72 1115.31 1157.73 1161.46 1086.89 1100.78 1051.19 946.914 1085.81 
999.074 976.004 1006.7 1006.7 975.724 1079.9 972.404 1199.53 1247.61 
1170.07 1308.3 1151.88 958.444 956.324 840.564 937.864 1024.41 958.744 
1106.67 1200.05 1141.68 1785.78 2092.85 1994.58 2143.31 1360.53 1477.63 
1469.89 1568.58 1514.31 1439.68 1421.38 1403.28 1337.02 1320.4 1393.8 
1572.65 1640.72 1611.86 1473.58 1450.17 1389.19 1723.96 1446.49 1421.65 
1341.68 1231.88 1272.3 1272.3 1275.21 1294.42 1287.68 1270.61 1222.4 
1238.56 1154.36 1179.99 1173.3 1165.35 1072.46 1106.26 882.594 895.154 
854.334 1055.51 1064.28 1291.36 1493.53 1538.64 1531.46 1461.49 1439.79 
1431.89 1407.37 1552.05 1532.43 1633.65 1392.21 1432.43 1130.27 1012.04 
1003.58 788.934 769.234 666.024 597.564 566.844 524.774 495.264 550.204 
542.144 644.574 641.844 595.984 625.814 505.484 517.684 505.994 575.534 
769.314 795.324 873.544 886.584 828.324 828.324 808.414 939.724 914.804 
872.854 985.904 1085.85 1100.46 1140.53 1253.53 1247.06 1346.04 1517.89 
1500.51 1524.53 1573.01 1977.26 1694.47 1398.59 976.004 885.444 867.684 
893.944 869.734 845.174 732.174 768.524 828.074 754.124 823.314 916.964 
928.114 928.114 888.074 740.744 683.804 652.334 758.524 790.074 790.074 

bkstGFP 1 288 double
231.467 142.907 309.307 508.797 461.057 251.527 376.627 316.947 518.167 
315.707 422.227 397.797 419.847 483.487 453.267 367.917 344.117 397.097 
405.147 371.297 381.697 350.467 378.747 400.227 355.507 391.097 372.627 
368.067 407.277 358.377 367.177 367.177 354.737 365.107 396.057 395.467 
395.467 407.917 456.637 478.517 447.127 402.787 444.007 376.057 410.387 
460.617 417.907 440.777 413.527 435.087 454.687 518.987 521.627 538.747 
460.307 398.667 411.987 379.577 450.787 447.677 385.727 400.997 393.727 
363.257 381.837 318.277 370.677 391.207 387.837 394.017 394.017 328.937 
328.937 297.987 283.437 305.437 293.407 269.957 269.957 296.597 261.617 
261.357 289.917 285.997 219.617 202.547 229.987 230.707 201.107 226.417 
193.367 175.587 182.787 220.627 183.387 182.007 130.517 130.517 134.017 
111.407 129.207 135.117 366.837 393.957 451.637 451.637 470.357 482.627 
499.877 497.837 508.307 471.727 518.227 323.047 356.567 356.567 332.227 
301.387 301.387 364.247 390.707 423.917 436.487 465.457 494.687 522.907 
578.337 644.837 533.727 486.367 414.097 349.787 317.467 322.367 357.587 
334.747 385.937 412.697 368.357 412.487 335.797 340.567 405.067 323.437 
406.937 426.707 380.297 380.297 443.567 377.627 423.377 387.017 387.417 
377.207 298.387 355.407 368.997 344.517 354.437 352.367 336.947 377.647 
394.837 461.647 467.937 496.067 521.667 488.897 508.797 271.857 261.087 
323.897 350.417 377.157 370.987 372.337 328.007 337.177 361.267 346.777 
360.057 332.427 335.407 405.507 487.387 445.597 360.147 316.467 315.907 
322.297 353.527 384.987 384.987 370.997 393.527 450.507 374.537 300.467 
310.707 350.547 351.587 336.317 357.797 341.297 389.177 332.337 330.517 
253.377 167.727 210.647 241.047 263.457 310.357 343.637 353.377 326.917 
342.877 305.597 407.407 452.047 399.117 448.757 410.367 267.107 202.197 
208.037 228.547 253.857 247.487 228.087 195.117 189.567 137.277 116.507 
136.487 223.597 275.567 290.117 304.847 233.537 162.637 142.677 139.357 
130.577 112.957 120.647 137.087 115.107 115.107 102.697 112.177 139.967 
193.087 202.757 201.687 185.777 192.647 228.297 258.667 258.407 307.327 
306.217 299.177 340.677 433.107 410.667 366.907 255.857 262.257 255.907 
230.127 196.167 201.597 167.897 192.317 183.697 162.467 185.507 221.667 
245.227 245.227 264.947 234.217 203.647 196.697 207.107 230.267 230.267 

tubeWidth 1 288 double
0.190981 0.230667 0.241095 0.152429 0.230492 0.143602 0.0364187 0.283525 0.164063 
0.187199 0.0103048 0.0940245 0.0984931 0.129198 0.104993 0.147437 0.22424 0.212881 
0.222772 0.267174 0.210374 0.197885 0.199529 0.220559 0.248123 0.272209 0.245145 
0.228077 0.223384 0.235575 0.240316 0.262172 0.250396 0.248108 0.236383 0.222037 
0.240756 0.243266 0.247043 0.254521 0.263375 0.269228 0.264947 0.206274 0.218241 
0.248956 0.232714 0.250904 0.240136 0.214361 0.250854 0.249403 0.223153 0.250083 
0.291118 0.290191 0.2863 0.263327 0.260731 0.235626 0.216923 0.274707 0.260078 
0.246284 0.223002 0.240893 0.250148 0.244803 0.216146 0.213353 0.229032 0.258815 
0.239573 0.252984 0.264406 0.239819 0.260928 0.268564 0.255927 0.236499 0.249355 
0.263076 0.254775 0.267649 0.274246 0.249232 0.229004 0.216941 0.232583 0.268189 
0.252019 0.217956 0.202674 0.193017 0.206041 0.197959 0.221859 0.179048 0.214095 
0.22507 0.263835 0.23592 0.260402 0.245002 0.228199 0.214691 0.160597 0.141702 
0.145383 0.137907 0.144832 0.15254 0.205343 0.279145 0.270023 0.281101 0.296041 
0.267258 0.230421 0.204592 0.219824 0.217439 0.269369 0.26951 0.247711 0.243979 
0.209475 0.244848 0.243244 0.267351 0.276568 0.189106 0.199868 0.219655 0.217714 
0.220198 0.235555 0.250133 0.255253 0.248761 0.22328 0.210152 0.21578 0.221785 
0.233686 0.229307 0.230723 0.207607 0.178629 0.236707 0.254723 0.253955 0.233869 
0.227767 0.255276 0.255923 0.200636 0.180385 0.19059 0.179826 0.207502 0.171325 
0.165117 0.180884 0.182522 0.24804 0.263426 0.281586 0.230117 0.19397 0.238835 
0.238827 0.22672 0.157017 0.186988 0.195253 0.209464 0.21715 0.248362 0.229641 
0.231192 0.263987 0.26733 0.244798 0.202811 0.183935 0.14228 0.208515 0.295396 
0.246596 0.211414 0.206474 0.216371 0.209236 0.223699 0.267475 0.225928 0.189755 
0.186912 0.165901 0.185022 0.208779 0.210894 0.232419 0.219794 0.194326 0.225857 
0.197608 0.164727 0.196352 0.265798 0.275724 0.260871 0.314376 0.272997 0.273 
0.232574 0.184231 0.167194 0.145646 0.0517375 0.147465 0.183668 0.165864 0.246825 
0.210585 0.210451 0.217551 0.14841 0.132225 0.143925 0.134718 0.0838859 0.0811456 
0.0884904 0.184204 0.140012 0.162246 0.188365 0.167935 0.119791 0.0872343 0.10882 
0.158984 0.22576 0.202838 0.209806 0.198472 0.173566 0.202452 0.208328 0.19545 
0.200727 0.213806 0.228152 0.2539 0.274067 0.242999 0.239417 0.269772 0.21903 
0.280419 0.216561 0.185657 0.301864 0.261526 0.257707 0.164353 0.17525 0.213893 
0.222002 0.228859 0.23812 0.183191 0.139118 0.144032 0.167986 0.204739 0.216876 
0.236459 0.252953 0.237764 0.207101 0.18067 0.156967 0.170862 0.215456 0.225908 

