# vtk DataFile Version 3.0
vtk output
ASCII
DATASET POLYDATA
POINTS 341 float
0.747257 0.430183 2.28915 1.21148 0.295591 2.16456 0.891994 0.539953 2.09614 
1.54337 0.0791482 1.78616 0.821116 0.927682 1.55296 -0.453046 0.447892 1.4089 
1.04338 1.08953 1.36411 1.95473 1.16232 0.92214 0.0128143 1.14079 1.02094 
5.26739 0.0638523 -0.0343718 1.19715 -2.55493 -0.234654 -0.825777 -0.668495 -0.203203 
-0.808662 -1.09321 -0.303245 -0.522201 -1.61184 -0.603175 3.86942 -0.786606 -0.90646 
-0.598257 -0.413594 -0.612273 -0.597715 -0.592843 -0.640674 -0.48 -0.988475 -0.709491 
3.65597 -1.22566 -1.37025 3.41442 -1.8116 -1.65304 2.06647 -1.17106 -2.49077 
2.86857 -1.88436 -2.44688 -0.052083 0.656925 -1.89092 2.19527 -0.976984 -2.47058 
-0.0614203 0.342447 -2.14297 2.76889 -1.41305 -2.77256 2.14639 -1.06142 -2.68414 
2.14686 -1.21507 -2.70848 1.97531 0.735009 -2.59356 1.92893 0.750119 -2.51362 
1.86532 0.746402 -2.42826 1.79513 0.734545 -2.33632 1.73114 0.731985 -2.25826 
1.6836 0.750563 -2.20025 1.63461 0.773846 -2.17146 1.56843 0.78298 -2.15902 
1.50067 0.791909 -2.15404 1.44349 0.808909 -2.14834 1.38234 0.80947 -2.15254 
1.32541 0.796103 -2.17419 1.26242 0.80237 -2.21494 1.20385 0.826062 -2.26068 
1.14124 0.831019 -2.29415 1.08547 0.811487 -2.2943 1.02629 0.789615 -2.26461 
0.971164 0.762862 -2.2284 0.904607 0.748815 -2.20459 0.838883 0.734737 -2.18834 
0.789746 0.704486 -2.17552 0.742283 0.671822 -2.15566 0.685009 0.649505 -2.14116 
0.636855 0.619078 -2.13593 0.588317 0.589807 -2.13801 0.529888 0.57096 -2.14543 
0.480581 0.544002 -2.16212 0.430818 0.51827 -2.1861 0.371015 0.500762 -2.19324 
0.314419 0.478566 -2.18626 0.247862 0.46452 -2.16245 0.182138 0.450441 -2.1462 
0.132539 0.421353 -2.14069 0.0824889 0.392135 -2.14268 0.0146511 0.37203 -2.14229 
2.14663 -1.13825 -2.69631 2.17613 -1.26276 -2.71757 2.19732 -1.31857 -2.72752 
2.23634 -1.35648 -2.73558 2.29435 -1.37534 -2.74162 2.3501 -1.39648 -2.7479 
2.41084 -1.41246 -2.75362 2.46672 -1.43075 -2.75946 2.52756 -1.43017 -2.76257 
2.58614 -1.41245 -2.76285 2.6651 -1.40654 -2.76607 2.09103 -1.21612 -2.55927 
2.16281 -1.01177 -2.57201 2.09069 -1.10688 -2.54196 2.77079 -1.51257 -2.75837 
2.77478 -1.60135 -2.72758 2.78785 -1.67858 -2.68041 2.81939 -1.73948 -2.61661 
2.85176 -1.80257 -2.53818 2.83695 -1.36738 -2.7614 2.89505 -1.33691 -2.73711 
2.95677 -1.32329 -2.69314 3.00845 -1.30324 -2.63261 3.06045 -1.28438 -2.56478 
3.12189 -1.27471 -2.49889 3.17259 -1.25458 -2.43079 3.21758 -1.22889 -2.3615 
3.27005 -1.21126 -2.28638 3.341 -1.21322 -2.20031 3.41357 -1.21989 -2.08502 
3.47116 -1.21508 -1.9371 3.52901 -1.21364 -1.75968 3.59705 -1.2237 -1.5696 
-0.0857313 0.408556 -2.06363 -0.0925966 0.475942 -1.99253 -0.0905176 0.544402 -1.93674 
-0.0798504 0.608185 -1.90468 -0.158961 0.321292 -2.02102 -0.231609 0.295718 -1.92363 
-0.279957 0.258587 -1.86688 -0.326022 0.221364 -1.81777 -0.382363 0.193448 -1.75915 
-0.434423 0.157451 -1.66448 -0.497733 0.13086 -1.55272 -0.566908 0.109986 -1.43973 
-0.631371 0.0868631 -1.34988 -0.6842 0.0531786 -1.26983 -0.739309 0.0217162 -1.18929 
-0.782015 -0.0226192 -1.10395 -0.819241 -0.0713646 -1.02709 -0.86234 -0.111849 -0.948627 
-0.916583 -0.12881 -0.850836 -0.963961 -0.129899 -0.713333 -1.00465 -0.129285 -0.53837 
-1.01358 -0.0997352 -0.345485 -1.00738 -0.0534789 -0.158253 -0.999992 -1.01623e-005 1.82614e-005 
-0.992242 0.055745 0.136095 -0.976818 0.105579 0.255827 -0.941831 0.135559 0.378878 
-0.898016 0.156149 0.507501 -0.852835 0.175406 0.635841 -0.808344 0.196901 0.749546 
-0.765392 0.223022 0.834026 -0.723594 0.252612 0.896588 -0.682564 0.284516 0.944533 
-0.641151 0.315263 0.999786 -0.599203 0.344544 1.0648 -0.555646 0.37171 1.15191 
-0.507923 0.402921 1.26699 3.45324 -1.77598 -1.61941 3.48613 -1.73692 -1.56239 
3.50815 -1.68961 -1.48096 3.53499 -1.64934 -1.37837 3.55809 -1.60543 -1.27501 
3.59192 -1.57198 -1.17387 3.62421 -1.5339 -1.10196 3.64339 -1.47835 -1.07165 
3.66109 -1.41353 -1.11488 3.66322 -1.32652 -1.22138 3.66717 -1.1631 -1.33089 
3.68987 -1.11333 -1.27916 3.70929 -1.06114 -1.21934 3.73335 -1.0127 -1.16789 
3.75299 -0.95837 -1.13028 3.78336 -0.914514 -1.0949 3.81458 -0.873039 -1.04492 
3.83705 -0.82461 -0.978363 -0.452617 -0.938577 -0.703035 -0.443418 -0.870168 -0.700203 
-0.443122 -0.79259 -0.702954 -0.44731 -0.715164 -0.713005 -0.467589 -0.655003 -0.709928 
-0.524879 -0.625552 -0.687237 -0.479305 -1.06638 -0.714346 -0.476561 -1.14531 -0.704457 
-0.466091 -1.21942 -0.679187 -0.446238 -1.28157 -0.652527 -0.445007 -1.34532 -0.640145 
-0.463841 -1.40641 -0.633809 -0.484478 -1.49209 -0.623758 -0.547771 -1.01619 -0.545099 
-0.610468 -1.04494 -0.418681 -0.665119 -1.07607 -0.345638 -0.732815 -1.08979 -0.314207 
-0.694967 -0.624634 -0.488515 -0.771847 -0.644522 -0.335544 -0.598003 -0.49782 -0.625618 
-0.449648 -1.6507 -0.710774 -0.400437 -1.68393 -0.786205 -0.360999 -1.71811 -0.823731 
-0.321861 -1.75606 -0.831798 -0.280471 -1.79623 -0.817807 -0.232247 -1.83416 -0.781296 
-0.1813 -1.87091 -0.737217 -0.159097 -1.93495 -0.703468 -0.14508 -2.00257 -0.692382 
-0.115037 -2.05258 -0.686853 -0.0763653 -2.09547 -0.673151 -0.0351812 -2.14046 -0.637387 
0.00646577 -2.18654 -0.594295 0.0477272 -2.23146 -0.558523 0.0878351 -2.27291 -0.544668 
0.127252 -2.31197 -0.545413 0.16795 -2.34975 -0.546021 0.21645 -2.38278 -0.531276 
0.276777 -2.40857 -0.493479 0.326893 -2.44615 -0.449489 0.37095 -2.48827 -0.41342 
0.420893 -2.51985 -0.398521 0.48776 -2.53138 -0.396352 0.555601 -2.54038 -0.401348 
0.614072 -2.55879 -0.407339 0.68199 -2.56771 -0.412326 0.750293 -2.5778 -0.410005 
0.809988 -2.5996 -0.394071 0.881501 -2.61402 -0.355063 0.959144 -2.62129 -0.307723 
1.03053 -2.61913 -0.266086 1.08874 -2.60164 -0.243854 1.14854 -2.58413 -0.236718 
-0.577788 -1.53592 -0.588232 -0.622274 -1.48561 -0.570415 -0.660942 -1.44911 -0.540076 
-0.697562 -1.41789 -0.488152 -0.732465 -1.38664 -0.428793 -0.760643 -1.3471 -0.375997 
-0.777949 -1.29203 -0.343843 -0.798292 -1.23692 -0.326537 -0.806993 -1.16859 -0.315264 
-0.858803 -1.0865 -0.201913 -0.875083 -1.03966 -0.12606 -0.876579 -0.970423 -0.0849836 
-0.875304 -0.895837 -0.0676084 -0.867905 -0.822592 -0.0751801 -0.848703 -0.749012 -0.115235 
5.2006 0.0754546 -0.0365325 5.15065 0.107039 -0.0514318 5.10652 0.149077 -0.0875088 
5.05497 0.185218 -0.131652 4.98481 0.201153 -0.170491 4.90742 0.205202 -0.188303 
4.82943 0.205576 -0.191652 4.75222 0.203482 -0.180407 4.67706 0.197819 -0.154821 
4.61021 0.181712 -0.108798 4.55585 0.152652 -0.0579597 4.49882 0.126974 -0.0139686 
4.45273 0.0929698 0.00560206 4.41294 0.0543799 0.00910022 4.37278 0.0169466 0.00528924 
4.32561 -0.0136642 0.00292647 4.26764 -0.0337369 0.00280053 4.21902 -0.0629318 0.000738309 
4.16866 -0.0896372 -0.00835014 4.09964 -0.0966002 -0.0283471 4.0211 -0.0919322 -0.0685283 
3.94089 -0.0848484 -0.115762 3.86227 -0.0801039 -0.155927 3.79196 -0.08565 -0.175631 
3.73452 -0.102614 -0.182805 3.67511 -0.101848 -0.179557 3.62762 -0.0751359 -0.17283 
3.58556 -0.0388777 -0.17239 3.53699 -0.00592364 -0.187144 3.47705 0.018723 -0.21764 
3.42808 0.0528273 -0.239704 3.38641 0.0880821 -0.23193 3.34052 0.112941 -0.195541 
3.2845 0.126093 -0.152959 3.23967 0.153549 -0.123726 3.20813 0.197429 -0.107609 
3.18817 0.254456 -0.0975314 3.15768 0.300933 -0.0885704 3.12152 0.341718 -0.0802117 
3.0924 0.389565 -0.0711057 3.0809 0.455081 -0.0601301 3.06971 0.51937 -0.0418529 
3.0403 0.5623 -0.0109831 2.9967 0.586366 0.0401751 2.94152 0.597281 0.0973832 
2.89777 0.62119 0.148525 2.86602 0.660238 0.186415 2.83912 0.704137 0.224819 
2.79045 0.723117 0.275439 2.73876 0.737528 0.333017 2.68177 0.748161 0.382754 
2.6355 0.774177 0.411834 2.59549 0.809561 0.427053 2.55548 0.844944 0.442271 
2.50929 0.871038 0.47136 2.45358 0.882956 0.521232 2.40892 0.904422 0.579557 
2.37092 0.934102 0.631309 2.33304 0.968536 0.66128 2.29439 1.00528 0.676643 
2.25408 1.0419 0.684561 2.20719 1.07038 0.699048 2.15169 1.08714 0.72715 
2.11497 1.11811 0.779038 2.09504 1.16422 0.839962 2.05833 1.19234 0.8914 
2.00281 1.18966 0.916425 -0.0254449 1.10071 1.02412 -0.0617247 1.05715 1.04166 
-0.091064 1.00447 1.07992 -0.116441 0.947143 1.12476 -0.165338 0.914314 1.15968 
-0.219578 0.890602 1.15878 -0.280691 0.877499 1.12238 -0.330242 0.853904 1.07619 
-0.371413 0.819794 1.05043 -0.407686 0.77622 1.06797 -0.435046 0.720512 1.11567 
-0.448301 0.647035 1.18984 -0.459704 0.5634 1.28985 1.00604 1.04611 1.38924 
0.966744 1.00125 1.42927 0.911504 0.959392 1.48563 -0.348691 0.4239 1.56232 
-0.258793 0.407555 1.66765 -0.178966 0.402057 1.71264 -0.108806 0.408217 1.72995 
-0.0518894 0.426975 1.75245 0.00268158 0.445675 1.79759 0.0419715 0.478493 1.8533 
0.0964645 0.497269 1.89846 0.151936 0.517435 1.92125 0.211512 0.535164 1.92844 
0.258369 0.566855 1.92348 0.29692 0.60899 1.89808 0.332182 0.65824 1.83643 
0.364537 0.71345 1.74584 0.389817 0.775558 1.65671 0.405977 0.843432 1.59902 
0.436163 0.893723 1.57535 0.483021 0.925415 1.57039 0.55081 0.935972 1.56849 
0.628483 0.937783 1.56469 0.715879 0.935602 1.55975 0.831684 0.807556 1.70611 
0.848404 0.708411 1.84725 0.875082 0.62786 1.97578 1.55144 0.130374 1.95905 
1.55488 0.184654 2.09513 1.5389 0.230266 2.17829 1.48379 0.245867 2.2137 
1.41716 0.256854 2.21519 1.35697 0.278163 2.19921 1.28388 0.288842 2.17094 
0.944167 0.501352 2.15488 1.00533 0.473314 2.2073 1.05499 0.436813 2.24396 
1.09584 0.398425 2.247 1.13354 0.362262 2.22428 1.16868 0.327403 2.18311 
0.829118 0.517627 2.16351 0.78404 0.477949 2.22718 
LINES 25 390
36 28 29 30 31 32 33 34 35 36 37 38 39 40 41 42 43 44 45 46 47 48 49 50 51 52 53 54 55 56 57 58 59 60 61 62 24 
3 27 63 26 
12 27 64 65 66 67 68 69 70 71 72 73 25 
3 26 75 23 
7 25 77 78 79 80 81 21 
16 25 82 83 84 85 86 87 88 89 90 91 92 93 94 95 18 
6 24 96 97 98 99 22 
35 24 100 101 102 103 104 105 106 107 108 109 110 111 112 113 114 115 116 117 118 119 120 121 122 123 124 125 126 127 128 129 130 131 132 5 
12 19 133 134 135 136 137 138 139 140 141 142 18 
10 18 143 144 145 146 147 148 149 150 14 
8 17 151 152 153 154 155 156 16 
9 17 157 158 159 160 161 162 163 13 
6 17 164 165 166 167 12 
3 16 170 15 
35 13 171 172 173 174 175 176 177 178 179 180 181 182 183 184 185 186 187 188 189 190 191 192 193 194 195 196 197 198 199 200 201 202 203 10 
11 13 204 205 206 207 208 209 210 211 212 12 
69 9 219 220 221 222 223 224 225 226 227 228 229 230 231 232 233 234 235 236 237 238 239 240 241 242 243 244 245 246 247 248 249 250 251 252 253 254 255 256 257 258 259 260 261 262 263 264 265 266 267 268 269 270 271 272 273 274 275 276 277 278 279 280 281 282 283 284 285 7 
15 8 286 287 288 289 290 291 292 293 294 295 296 297 298 5 
5 6 299 300 301 4 
23 5 302 303 304 305 306 307 308 309 310 311 312 313 314 315 316 317 318 319 320 321 322 4 
5 4 323 324 325 2 
4 2 339 340 0 
5 27 74 20 76 26 
11 16 168 169 11 218 217 216 215 214 213 12 
16 3 326 327 328 329 330 331 332 1 338 337 336 335 334 333 2 

POINT_DATA 341
SCALARS DY_raw double
LOOKUP_TABLE default
6.57458 13.6817 6.58657 2.85356 10.842 14.5086 22.3881 25.1875 20.4905 
24.4433 54.18 18.2795 15.9206 13.4801 82.6047 26.8701 22.6303 18.9227 
24.8747 31.392 26.4281 27.426 39.872 29.7494 31.7433 27.6461 29.1439 
31.145 153.843 48.0679 39.9982 38.4723 32.4304 27.1758 36.8309 35.2871 
35.2871 29.3005 29.88 30.4761 35.2317 38.5059 46.685 52.2584 52.2584 
50.2147 50.2147 46.1797 41.618 38.9244 40.4803 42.0648 42.0648 37.7827 
36.258 29.6705 32.4014 30.1713 30.8035 27.3209 27.4152 28.3271 32.3857 
34.2584 31.5311 31.5311 30.1522 33.9099 29.9881 32.185 29.6273 30.1849 
31.6025 32.1284 32.2898 31.423 28.735 32.4075 30.3643 18.1038 20.068 
20.4071 27.1345 23.8467 24.0759 20.591 20.1721 16.7615 17.4461 20.0204 
20.1411 20.657 23.3869 18.6172 20.3677 20.9484 25.55 25.8726 33.1749 
39.872 26.5374 28.1407 31.4423 28.4793 24.408 25.3155 26.4226 34.147 
28.9427 26.8534 26.6437 18.529 16.7178 17.4448 16.3329 12.522 12.9037 
20.4277 23.9988 21.5757 21.4344 21.3444 20.5837 19.5444 14.8092 14.2862 
15.2918 14.139 15.4738 17.4224 15.0755 14.7116 12.0376 29.463 29.4398 
32.7706 30.7487 26.8123 22.152 21.9153 22.625 21.4626 25.5238 24.8747 
27.4562 31.543 29.9384 40.4168 51.4928 44.0045 73.8092 22.9937 29.1895 
21.948 24.9617 27.745 25.0699 24.4715 23.3657 25.3052 28.3217 24.5595 
20.356 15.4629 23.2608 21.2911 18.6449 15.9206 23.1939 20.1793 24.1532 
13.8861 17.413 21.6807 21.6026 20.6284 21.9621 23.1045 18.3621 18.3621 
12.0394 12.0394 11.283 14.8141 18.015 21.0197 22.0246 22.0246 16.2716 
18.8871 19.0181 22.0054 19.4005 19.073 23.7513 19.6122 22.7985 16.131 
14.0447 12.9159 15.1353 16.4292 19.7031 24.5747 11.7794 15.077 17.4993 
21.6222 22.9624 23.3944 23.3944 17.044 15.7658 17.6227 17.7197 19.0082 
19.1961 17.4635 16.6376 18.6442 18.6442 17.8006 18.9401 19.4561 23.994 
25.8164 29.8374 29.1497 26.6068 30.0645 32.8832 33.184 30.6332 32.7127 
37.5854 37.5854 40.2651 40.7726 35.9721 32.8792 33.43 35.3697 37.4099 
35.5678 30.8306 29.856 25.6967 24.2525 27.0045 26.9012 21.6053 19.9068 
21.4757 22.7492 22.7468 22.7468 24.3463 29.6741 29.6741 33.5805 28.3125 
28.3125 28.1745 30.1728 33.1712 30.6577 29.5214 31.6588 27.8292 27.8292 
29.6388 20.201 20.201 20.6851 22.8776 24.7743 22.2784 22.3393 20.1201 
21.4156 21.4156 21.9139 24.4555 26.4515 29.0332 27.5344 18.9103 12.451 
12.362 13.8987 16.6381 15.6419 21.6414 33.1354 33.9587 31.5549 28.6614 
21.7392 14.5923 15.4203 15.8017 14.1474 18.8784 19.8972 22.486 25.0726 
23.8457 18.4912 10.0575 12.356 16.8297 13.7999 13.7999 12.9651 13.7461 
13.7692 11.9404 11.897 11.2207 11.367 12.5757 12.6335 11.7391 8.36825 
12.1269 8.19426 0 3.63143 13.8881 11.7895 11.5823 10.9572 9.1965 
7.15967 16.2957 18.9639 21.1332 14.3198 14.4426 4.64834 4.9318 
FIELD FieldData 7
DY_minmax 1 341 double
0.0427358 0.0889333 0.0428137 0.0185486 0.0704748 0.094308 0.145526 0.163723 0.133191 
0.158885 0.352178 0.118819 0.103487 0.0876225 0.536943 0.17466 0.147101 0.123001 
0.161689 0.204053 0.171786 0.178273 0.259174 0.193376 0.206336 0.179704 0.18944 
0.202447 1 0.312449 0.259994 0.250076 0.210803 0.176647 0.239407 0.229372 
0.229372 0.190458 0.194224 0.198099 0.229011 0.250294 0.30346 0.339687 0.339687 
0.326403 0.326403 0.300175 0.270523 0.253015 0.263128 0.273428 0.273428 0.245594 
0.235682 0.192863 0.210614 0.196118 0.200227 0.17759 0.178203 0.184131 0.210512 
0.222685 0.204957 0.204957 0.195994 0.22042 0.194927 0.209207 0.192582 0.196207 
0.205421 0.20884 0.209889 0.204254 0.186782 0.210654 0.197373 0.117677 0.130445 
0.132649 0.176379 0.155007 0.156497 0.133845 0.131122 0.108952 0.113402 0.130136 
0.13092 0.134274 0.152019 0.121014 0.132393 0.136168 0.166079 0.168176 0.215642 
0.259174 0.172497 0.182919 0.20438 0.18512 0.158656 0.164555 0.171751 0.221961 
0.188132 0.174551 0.173188 0.120442 0.108668 0.113394 0.106167 0.0813952 0.083876 
0.132783 0.155996 0.140245 0.139327 0.138742 0.133798 0.127042 0.096262 0.0928624 
0.0993988 0.0919058 0.100582 0.113249 0.0979928 0.0956276 0.078246 0.191514 0.191364 
0.213014 0.199871 0.174284 0.143991 0.142453 0.147066 0.13951 0.165909 0.161689 
0.178469 0.205034 0.194604 0.262715 0.334711 0.286036 0.479771 0.149462 0.189736 
0.142665 0.162255 0.180347 0.162958 0.159068 0.151881 0.164488 0.184096 0.15964 
0.132317 0.100511 0.151199 0.138395 0.121194 0.103487 0.150764 0.131169 0.157 
0.090262 0.113187 0.140928 0.14042 0.134088 0.142757 0.150183 0.119356 0.119356 
0.0782577 0.0782577 0.0733412 0.0962938 0.1171 0.136632 0.143163 0.143163 0.105768 
0.122769 0.12362 0.143038 0.126106 0.123977 0.154387 0.127482 0.148194 0.104854 
0.0912928 0.0839553 0.098382 0.106792 0.128073 0.159739 0.0765679 0.0980029 0.113748 
0.140548 0.149259 0.152067 0.152067 0.110789 0.10248 0.11455 0.115181 0.123556 
0.124778 0.113515 0.108147 0.12119 0.12119 0.115706 0.123114 0.126468 0.155965 
0.16781 0.193948 0.189477 0.172949 0.195424 0.213746 0.215701 0.199121 0.212637 
0.244311 0.244311 0.26173 0.265028 0.233824 0.21372 0.2173 0.229909 0.24317 
0.231196 0.200404 0.194069 0.167033 0.157645 0.175533 0.174862 0.140438 0.129397 
0.139596 0.147873 0.147858 0.147858 0.158255 0.192886 0.192886 0.218278 0.184036 
0.184036 0.183138 0.196128 0.215618 0.19928 0.191894 0.205787 0.180894 0.180894 
0.192657 0.131309 0.131309 0.134456 0.148708 0.161037 0.144813 0.145209 0.130784 
0.139204 0.139204 0.142444 0.158965 0.171939 0.18872 0.178978 0.12292 0.0809335 
0.0803552 0.0903439 0.10815 0.101675 0.140673 0.215385 0.220737 0.205112 0.186303 
0.141308 0.0948521 0.100234 0.102714 0.0919602 0.122713 0.129335 0.146163 0.162976 
0.155001 0.120196 0.0653751 0.0803157 0.109396 0.0897016 0.0897016 0.0842751 0.0893521 
0.0895018 0.0776144 0.077332 0.0729366 0.0738873 0.081744 0.0821199 0.076306 0.0543949 
0.078827 0.053264 0 0.0236049 0.090275 0.0766339 0.0752866 0.0712235 0.0597786 
0.0465389 0.105924 0.123268 0.137369 0.0930811 0.093879 0.0302149 0.0320574 
WidthEq 1 341 double
2.74238 3.71225 3.74094 1.598 7.01253 4.21268 5.77986 5.41499 4.02577 
6.583 1 8.63647 7.58198 7.73216 1.59059 6.7004 8.93669 7.37948 
7.74241 4.05772 4.77901 5.28623 3.52528 5.03674 5.88881 5.82831 5.64646 
5.44999 1.18621 2.64584 2.98764 3.63249 4.04497 3.99583 3.82043 4.08024 
4.08024 4.52176 4.71955 5.10958 4.91574 4.59592 4.26389 4.10422 4.10422 
3.54856 3.54856 3.47989 3.46845 3.81842 3.70699 3.9142 3.9142 3.89278 
4.31739 4.48122 4.37512 4.65309 4.84686 5.36184 5.32698 5.92048 5.50335 
5.26585 5.28145 5.28145 5.03778 4.73902 4.67852 4.76744 4.75372 4.69904 
5.05878 5.59816 4.96751 6.28521 5.38228 5.03494 4.73549 5.06855 5.52872 
5.6353 5.96067 5.55172 5.8274 5.85984 5.73863 7.1688 7.61143 7.7316 
7.20616 7.13173 6.8487 7.84706 9.08153 9.4227 6.42388 5.97737 4.94741 
3.52528 6.08763 6.35271 5.98811 5.94889 5.3425 5.65741 6.24883 5.91881 
6.67836 6.78945 7.71026 9.50184 9.95466 10.0316 11.0966 11.9972 11.0751 
9.04459 7.80624 8.08455 7.03588 6.0981 6.53331 7.13963 6.51217 5.94141 
5.64029 5.17292 4.62911 4.35128 4.64928 4.44955 4.44359 4.94111 6.22727 
5.7283 6.5954 7.3045 8.82449 9.75756 9.46698 10.037 9.07113 7.74241 
5.76483 4.7998 4.77347 3.41467 2.75825 3.04446 1.7953 6.76665 6.23614 
7.74013 7.47144 7.33069 8.10174 5.42019 5.33003 5.69961 5.76836 6.71349 
7.96522 8.1524 5.6967 6.12228 7.06575 7.58198 8.42462 8.26689 8.66634 
6.62964 5.16454 4.49432 4.41892 5.14437 5.10972 5.35394 5.75589 5.75589 
5.09329 5.09329 4.64859 4.11905 3.82182 3.80928 4.0246 4.0246 4.60742 
4.76674 4.62087 4.463 3.97103 3.98627 3.86589 3.99445 4.24019 4.75233 
5.06169 5.32213 5.11783 4.09819 3.56492 2.93961 9.22034 8.13556 7.258 
6.29075 5.64008 5.85866 5.85866 6.94496 7.51309 7.53118 7.9296 7.66722 
7.91567 8.54583 8.86607 7.72786 7.72786 7.7447 8.04325 7.68808 6.98675 
6.43816 6.31958 6.63747 6.3401 5.70973 5.30362 5.15851 5.20612 5.02496 
4.44082 4.44082 4.08343 3.6424 3.61308 3.27198 3.28896 3.61495 4.26812 
5.13217 6.03718 6.42652 6.68723 7.2038 7.10844 6.84766 7.30561 7.43264 
7.07961 6.52991 6.71523 6.71523 6.61127 6.2044 6.2044 6.12291 6.7751 
6.7751 6.75008 6.70372 6.30427 6.55105 6.23649 5.92567 6.63726 6.63726 
6.65985 7.42044 7.42044 7.59002 7.4702 7.21877 6.79672 6.88203 6.39062 
6.70587 6.70587 6.80754 6.56865 6.37052 6.21875 6.16539 3.84552 5.08151 
5.38422 5.19184 5.012 5.09912 4.67991 3.96645 4.04934 3.76201 3.49181 
3.57511 3.87054 8.56793 8.25164 7.41621 3.97491 3.80657 3.64226 3.60872 
3.20393 3.16637 3.33484 3.56831 3.26387 4.24858 4.24858 4.92399 5.9464 
6.22187 6.66561 7.12535 7.27581 6.74496 6.1762 6.1123 6.48431 5.89012 
4.91138 4.34816 1.97736 3.10621 4.1467 4.04511 4.30485 4.12605 3.92106 
3.62168 3.18674 3.0769 3.11453 3.3101 3.36159 3.91323 3.02527 
rRFP 1 341 double
2639.35 2779.3 2783.44 2474.22 3255.52 2851.51 3077.65 3025 2824.54 
3193.54 2387.93 3489.85 3337.69 3359.36 2473.15 3210.48 3533.17 3308.47 
3360.84 2829.15 2933.23 3006.42 2752.32 2970.42 3093.37 3084.64 3058.4 
3030.05 2414.8 2625.42 2674.74 2767.79 2827.31 2820.22 2794.91 2832.4 
2832.4 2896.11 2924.65 2980.93 2952.96 2906.81 2858.9 2835.86 2835.86 
2755.68 2755.68 2745.77 2744.12 2794.62 2778.54 2808.44 2808.44 2805.35 
2866.62 2890.26 2874.95 2915.06 2943.02 3017.33 3012.3 3097.94 3037.75 
3003.48 3005.73 3005.73 2970.57 2927.46 2918.73 2931.56 2929.58 2921.69 
2973.6 3051.43 2960.43 3150.57 3020.28 2970.16 2926.95 2975.01 3041.41 
3056.79 3103.74 3044.73 3084.51 3089.19 3071.7 3278.07 3341.94 3359.28 
3283.46 3272.72 3231.88 3375.94 3554.07 3603.3 3170.58 3106.15 2957.53 
2752.32 3122.06 3160.31 3107.7 3102.04 3014.54 3059.98 3145.32 3097.7 
3207.3 3223.33 3356.2 3614.72 3680.06 3691.17 3844.84 3974.8 3841.74 
3548.74 3370.05 3410.21 3258.89 3123.57 3186.37 3273.86 3183.32 3100.96 
3057.51 2990.07 2911.6 2871.51 2914.51 2885.69 2884.83 2956.62 3142.21 
3070.21 3195.33 3297.65 3516.98 3651.62 3609.69 3691.94 3552.57 3360.84 
3075.48 2936.23 2932.43 2736.36 2641.64 2682.94 2502.69 3220.04 3143.49 
3360.51 3321.74 3301.43 3412.69 3025.75 3012.74 3066.07 3075.99 3212.37 
3392.99 3420 3065.65 3127.06 3263.2 3337.69 3459.28 3436.52 3494.16 
3200.27 2988.86 2892.15 2881.27 2985.95 2980.95 3016.19 3074.19 3074.19 
2978.58 2978.58 2914.41 2838 2795.11 2793.3 2824.37 2824.37 2908.47 
2931.46 2910.41 2887.63 2816.64 2818.84 2801.47 2820.02 2855.48 2929.38 
2974.02 3011.6 2982.12 2834.99 2758.04 2667.81 3574.1 3417.57 3290.94 
3151.37 3057.48 3089.02 3089.02 3245.77 3327.75 3330.36 3387.85 3349.99 
3385.84 3476.77 3522.98 3358.74 3358.74 3361.17 3404.25 3353 3251.8 
3172.64 3155.53 3201.4 3158.49 3067.53 3008.93 2987.99 2994.86 2968.72 
2884.43 2884.43 2832.86 2769.22 2764.99 2715.77 2718.22 2765.26 2859.51 
2984.19 3114.78 3170.96 3208.58 3283.12 3269.36 3231.73 3297.81 3316.14 
3265.2 3185.88 3212.62 3212.62 3197.62 3138.91 3138.91 3127.15 3221.26 
3221.26 3217.65 3210.96 3153.32 3188.93 3143.54 3098.69 3201.37 3201.37 
3204.63 3314.38 3314.38 3338.85 3321.56 3285.28 3224.38 3236.69 3165.78 
3211.27 3211.27 3225.94 3191.47 3162.88 3140.98 3133.28 2798.53 2976.88 
3020.56 2992.8 2966.85 2979.42 2918.93 2815.98 2827.94 2786.48 2747.49 
2759.51 2802.14 3479.96 3434.32 3313.77 2817.2 2792.91 2769.2 2764.36 
2705.95 2700.53 2724.84 2758.53 2714.6 2856.69 2856.69 2954.15 3101.68 
3141.43 3205.46 3271.8 3293.51 3216.91 3134.84 3125.62 3179.3 3093.56 
2952.33 2871.06 2528.96 2691.85 2841.99 2827.33 2864.81 2839.01 2809.43 
2766.23 2703.47 2687.62 2693.05 2721.27 2728.7 2808.3 2680.17 
rGFP 1 341 double
2402.59 2435.35 2409.2 2389.12 2460.59 2445.68 2513.96 2520.95 2467.05 
2545.47 2438.74 2542.43 2505.27 2488.79 2515.95 2564.6 2586.8 2524.2 
2577.15 2511.94 2510.86 2529.54 2525.12 2534.4 2571.49 2545.69 2549.12 
2554.3 2567.05 2511.74 2504.06 2524.31 2515.74 2493.15 2525.27 2528.54 
2528.54 2517.05 2525.58 2540.28 2557.75 2561.53 2583.62 2599.04 2599.04 
2562.75 2562.75 2545.26 2528.91 2533.19 2534.62 2549.21 2549.21 2531.64 
2541.1 2517.52 2526.32 2524.95 2533.86 2531.05 2530.6 2552.27 2562.79 
2564.96 2551.09 2551.09 2536.46 2545.26 2524.86 2538 2525.4 2526.4 
2544.43 2564.42 2544.96 2582.06 2539.22 2547.73 2528.35 2476.32 2495.51 
2499.56 2546.3 2516.95 2524.86 2505.22 2500.32 2504.72 2517.35 2539.35 
2529.7 2531.88 2544.73 2530.65 2569.53 2581.95 2548.69 2539.21 2548.69 
2525.12 2546.11 2563.33 2572.84 2553.98 2514.96 2527.78 2549.67 2586.67 
2577.85 2566.88 2589.99 2560.62 2550.98 2559.56 2565.8 2534.79 2527.47 
2569.32 2571.9 2558.99 2535.37 2514.72 2519.04 2524.1 2481 2469.44 
2470.81 2457.7 2456.19 2460.37 2454.65 2450.02 2438.05 2530.14 2567.89 
2572.28 2587.36 2580.41 2580.04 2598.4 2598.75 2599.98 2616.09 2577.15 
2542.84 2535.96 2527.47 2522.57 2526.59 2518.53 2517.07 2540.15 2566.59 
2554.44 2571.06 2587.95 2587.67 2517.2 2509.1 2528.79 2547.93 2549.44 
2546.7 2510.62 2517.07 2514.91 2516.3 2505.27 2579.96 2551.38 2593.88 
2476.62 2474.49 2482 2480.02 2490.68 2496.78 2508.26 2490.25 2490.25 
2445.88 2445.88 2437.01 2445.58 2453.41 2464.63 2473.2 2473.2 2459.53 
2474.59 2472.44 2482.77 2461.6 2460.59 2476.38 2462.9 2481.23 2461.22 
2455.65 2453.3 2462.02 2451.89 2454.8 2456.8 2493.17 2507.22 2511.57 
2520.58 2514.07 2521.62 2521.62 2502.93 2503.01 2517.28 2525.07 2530.3 
2536.51 2533.8 2532.07 2528.64 2528.64 2522.42 2536.9 2534.14 2552.2 
2550.77 2573.12 2578.04 2553.25 2556.22 2558.96 2555.74 2544.04 2548.94 
2551.47 2551.47 2548.98 2533.07 2514.53 2492.14 2494.51 2512.42 2544.23 
2567.1 2570.69 2576.43 2556.4 2559.27 2576.52 2568.77 2542.4 2532.52 
2536.6 2533.11 2537.31 2537.31 2545.52 2568.67 2568.67 2590.17 2576.38 
2576.38 2574.74 2586.83 2593.68 2585.4 2568.67 2572.16 2569.27 2569.27 
2581.95 2534.46 2534.46 2541.56 2555.46 2563.4 2535.98 2538.3 2513.14 
2528.17 2528.17 2533.74 2545.2 2553.07 2565.11 2554.32 2457.28 2447.83 
2451.12 2456.72 2467.95 2464.32 2485.84 2515.99 2522.07 2503.27 2484.64 
2462.28 2441.04 2516.68 2514.95 2489.48 2459.6 2460.3 2466.46 2475.04 
2460.96 2443.11 2418.1 2428.65 2439.49 2443.19 2443.19 2448.4 2466.3 
2470.23 2464.15 2469.33 2466.2 2461.23 2462.23 2461.78 2460.68 2433.85 
2444.12 2420.19 2384.56 2395.84 2442.15 2432.25 2434.42 2429.77 2420.62 
2410.49 2436.49 2442.91 2450.38 2431.96 2433.11 2402.75 2399.48 
bkstRFP 1 341 double
395.717 535.667 539.807 230.587 1011.89 607.877 834.017 781.367 580.907 
949.907 144.297 1246.22 1094.06 1115.73 229.517 966.847 1289.54 1064.84 
1117.21 585.517 689.597 762.787 508.687 726.787 849.737 841.007 814.767 
786.417 171.167 381.787 431.107 524.157 583.677 576.587 551.277 588.767 
588.767 652.477 681.017 737.297 709.327 663.177 615.267 592.227 592.227 
512.047 512.047 502.137 500.487 550.987 534.907 564.807 564.807 561.717 
622.987 646.627 631.317 671.427 699.387 773.697 768.667 854.307 794.117 
759.847 762.097 762.097 726.937 683.827 675.097 687.927 685.947 678.057 
729.967 807.797 716.797 906.937 776.647 726.527 683.317 731.377 797.777 
813.157 860.107 801.097 840.877 845.557 828.067 1034.44 1098.31 1115.65 
1039.83 1029.09 988.247 1132.31 1310.44 1359.67 926.947 862.517 713.897 
508.687 878.427 916.677 864.067 858.407 770.907 816.347 901.687 854.067 
963.667 979.697 1112.57 1371.09 1436.43 1447.54 1601.21 1731.17 1598.11 
1305.11 1126.42 1166.58 1015.26 879.937 942.737 1030.23 939.687 857.327 
813.877 746.437 667.967 627.877 670.877 642.057 641.197 712.987 898.577 
826.577 951.697 1054.02 1273.35 1407.99 1366.06 1448.31 1308.94 1117.21 
831.847 692.597 688.797 492.727 398.007 439.307 259.057 976.407 899.857 
1116.88 1078.11 1057.8 1169.06 782.117 769.107 822.437 832.357 968.737 
1149.36 1176.37 822.017 883.427 1019.57 1094.06 1215.65 1192.89 1250.53 
956.637 745.227 648.517 637.637 742.317 737.317 772.557 830.557 830.557 
734.947 734.947 670.777 594.367 551.477 549.667 580.737 580.737 664.837 
687.827 666.777 643.997 573.007 575.207 557.837 576.387 611.847 685.747 
730.387 767.967 738.487 591.357 514.407 424.177 1330.47 1173.94 1047.31 
907.737 813.847 845.387 845.387 1002.14 1084.12 1086.73 1144.22 1106.36 
1142.21 1233.14 1279.35 1115.11 1115.11 1117.54 1160.62 1109.37 1008.17 
929.007 911.897 957.767 914.857 823.897 765.297 744.357 751.227 725.087 
640.797 640.797 589.227 525.587 521.357 472.137 474.587 521.627 615.877 
740.557 871.147 927.327 964.947 1039.49 1025.73 988.097 1054.18 1072.51 
1021.57 942.247 968.987 968.987 953.987 895.277 895.277 883.517 977.627 
977.627 974.017 967.327 909.687 945.297 899.907 855.057 957.737 957.737 
960.997 1070.75 1070.75 1095.22 1077.93 1041.65 980.747 993.057 922.147 
967.637 967.637 982.307 947.837 919.247 897.347 889.647 554.897 733.247 
776.927 749.167 723.217 735.787 675.297 572.347 584.307 542.847 503.857 
515.877 558.507 1236.33 1190.69 1070.14 573.567 549.277 525.567 520.727 
462.317 456.897 481.207 514.897 470.967 613.057 613.057 710.517 858.047 
897.797 961.827 1028.17 1049.88 973.277 891.207 881.987 935.667 849.927 
708.697 627.427 285.327 448.217 598.357 583.697 621.177 595.377 565.797 
522.597 459.837 443.987 449.417 477.637 485.067 564.667 436.537 
bkstGFP 1 341 double
18.03 50.79 24.64 4.56 76.03 61.12 129.4 136.39 82.49 
160.91 54.18 157.87 120.71 104.23 131.39 180.04 202.24 139.64 
192.59 127.38 126.3 144.98 140.56 149.84 186.93 161.13 164.56 
169.74 182.49 127.18 119.5 139.75 131.18 108.59 140.71 143.98 
143.98 132.49 141.02 155.72 173.19 176.97 199.06 214.48 214.48 
178.19 178.19 160.7 144.35 148.63 150.06 164.65 164.65 147.08 
156.54 132.96 141.76 140.39 149.3 146.49 146.04 167.71 178.23 
180.4 166.53 166.53 151.9 160.7 140.3 153.44 140.84 141.84 
159.87 179.86 160.4 197.5 154.66 163.17 143.79 91.76 110.95 
115 161.74 132.39 140.3 120.66 115.76 120.16 132.79 154.79 
145.14 147.32 160.17 146.09 184.97 197.39 164.13 154.65 164.13 
140.56 161.55 178.77 188.28 169.42 130.4 143.22 165.11 202.11 
193.29 182.32 205.43 176.06 166.42 175 181.24 150.23 142.91 
184.76 187.34 174.43 150.81 130.16 134.48 139.54 96.44 84.88 
86.25 73.14 71.63 75.81 70.09 65.46 53.49 145.58 183.33 
187.72 202.8 195.85 195.48 213.84 214.19 215.42 231.53 192.59 
158.28 151.4 142.91 138.01 142.03 133.97 132.51 155.59 182.03 
169.88 186.5 203.39 203.11 132.64 124.54 144.23 163.37 164.88 
162.14 126.06 132.51 130.35 131.74 120.71 195.4 166.82 209.32 
92.06 89.93 97.44 95.46 106.12 112.22 123.7 105.69 105.69 
61.32 61.32 52.45 61.02 68.85 80.07 88.64 88.64 74.97 
90.03 87.88 98.21 77.04 76.03 91.82 78.34 96.67 76.66 
71.09 68.74 77.46 67.33 70.24 72.24 108.61 122.66 127.01 
136.02 129.51 137.06 137.06 118.37 118.45 132.72 140.51 145.74 
151.95 149.24 147.51 144.08 144.08 137.86 152.34 149.58 167.64 
166.21 188.56 193.48 168.69 171.66 174.4 171.18 159.48 164.38 
166.91 166.91 164.42 148.51 129.97 107.58 109.95 127.86 159.67 
182.54 186.13 191.87 171.84 174.71 191.96 184.21 157.84 147.96 
152.04 148.55 152.75 152.75 160.96 184.11 184.11 205.61 191.82 
191.82 190.18 202.27 209.12 200.84 184.11 187.6 184.71 184.71 
197.39 149.9 149.9 157 170.9 178.84 151.42 153.74 128.58 
143.61 143.61 149.18 160.64 168.51 180.55 169.76 72.72 63.27 
66.56 72.16 83.39 79.76 101.28 131.43 137.51 118.71 100.08 
77.72 56.48 132.12 130.39 104.92 75.04 75.74 81.9 90.48 
76.4 58.55 33.54 44.09 54.93 58.63 58.63 63.84 81.74 
85.67 79.59 84.77 81.64 76.67 77.67 77.22 76.12 49.29 