# vtk DataFile Version 3.0
vtk output
ASCII
DATASET POLYDATA
POINTS 358 float
1.30595 -0.29068 0.628741 1.19377 -0.196071 0.622828 -0.517517 0.419631 0.294742 
-0.585421 -0.45933 -0.551856 0.150277 -1.20436 -0.823886 6.04668 -1.58474 -0.326935 
3.88824 0.45746 -1.05785 3.72463 0.376797 -0.918286 0.551172 -1.26456 -1.16544 
7.32713 0.186306 -0.574888 4.24584 0.69321 -1.29128 4.34526 -0.338845 -1.27873 
4.14204 -0.20756 -1.18941 3.87786 0.00628921 -1.30642 3.67624 0.551839 -1.50834 
7.17316 -0.722272 -0.886785 7.02076 -0.919615 -0.88327 6.79834 -1.06649 -1.23605 
6.02782 -1.42818 -0.961251 4.8758 -0.90401 -1.40011 4.54252 -0.241463 -1.60236 
4.6071 -0.626306 -1.47512 4.32401 -0.0316793 -1.59336 6.96824 -0.852535 -1.3071 
6.4516 -1.23577 -1.33228 5.7557 -0.893643 -1.85492 4.78561 -0.379568 -1.68501 
6.34012 -1.11937 -1.5673 5.1401 -0.6843 -1.7978 2.9624 1.20827 -2.91959 
2.88192 1.08458 -3.16989 0.300831 0.359654 -3.4501 2.91134 1.58854 -3.4348 
2.8051 1.50337 -3.6429 2.39792 1.00209 -3.63688 2.26652 1.39697 -3.70719 
2.09454 1.40159 -3.73273 1.166 0.666833 -3.77201 1.04568 0.290222 -3.74058 
0.986992 0.307589 -3.78153 0.931929 0.303939 -3.79658 0.875842 0.292847 -3.78064 
0.818139 0.281915 -3.74986 0.757864 0.274494 -3.70481 0.694861 0.276657 -3.6614 
0.627269 0.294935 -3.62075 0.562128 0.307362 -3.58653 0.494507 0.325744 -3.5459 
0.430951 0.329845 -3.50282 0.367986 0.334632 -3.4673 1.21892 0.680756 -3.76615 
1.27454 0.685199 -3.75866 1.33478 0.673433 -3.74839 1.39415 0.664723 -3.73865 
1.4581 0.639908 -3.72616 1.52429 0.607235 -3.71232 1.58825 0.58242 -3.69982 
1.64762 0.57371 -3.69008 1.70788 0.561839 -3.6798 1.76297 0.565395 -3.66473 
1.81593 0.570932 -3.63513 1.87037 0.565717 -3.58882 1.92066 0.575087 -3.54501 
1.96987 0.593778 -3.51767 2.01691 0.622838 -3.49952 2.05931 0.66821 -3.48417 
2.10261 0.710423 -3.46828 2.14389 0.76523 -3.46941 2.18834 0.817205 -3.49235 
2.23796 0.853899 -3.5201 2.28765 0.895443 -3.55602 2.34144 0.936867 -3.59133 
2.14749 1.41541 -3.72685 2.20361 1.41811 -3.71906 2.30403 1.46503 -3.71059 
2.34143 1.53305 -3.71399 2.37711 1.60055 -3.71758 2.40326 1.66516 -3.72217 
2.41502 1.72531 -3.72828 2.44173 1.78799 -3.73254 2.4812 1.84213 -3.73384 
2.53025 1.86927 -3.73025 2.58479 1.87477 -3.71551 2.64506 1.85461 -3.68151 
2.70541 1.82588 -3.62375 2.76513 1.79622 -3.55842 2.82409 1.76488 -3.50052 
2.87458 1.72586 -3.4655 2.89978 1.66854 -3.44686 2.30723 1.33745 -3.78412 
2.3542 1.28739 -3.81609 2.37646 1.23997 -3.79161 2.37553 1.1905 -3.74005 
2.35941 1.13509 -3.68991 2.36666 1.07486 -3.6584 2.47968 0.973285 -3.52318 
2.54165 0.950378 -3.40557 2.59183 0.94026 -3.29134 2.63645 0.953236 -3.20353 
2.68094 0.974709 -3.1395 2.72909 0.994344 -3.10488 2.77986 1.01308 -3.0924 
2.8327 1.03832 -3.1182 2.85243 1.53959 -3.54263 2.96551 1.55127 -3.32399 
2.98973 1.50852 -3.24702 3.00304 1.46021 -3.20864 3.01382 1.40946 -3.1835 
3.01163 1.35632 -3.13919 2.98589 1.29175 -3.04964 2.91416 1.15517 -3.05175 
2.92565 1.11208 -3.03694 3.03833 1.17047 -2.92819 3.08681 1.12561 -2.93232 
3.13231 1.08269 -2.92015 3.16802 1.04155 -2.88133 3.21428 1.01034 -2.80266 
3.26545 0.987548 -2.69417 3.31449 0.975683 -2.57988 3.35992 0.975806 -2.48275 
3.40098 0.957726 -2.39144 3.43031 0.925796 -2.30002 3.47341 0.89742 -2.19954 
3.52631 0.869378 -2.11276 3.57277 0.835591 -2.04881 3.59671 0.791197 -2.00939 
3.60929 0.743365 -1.97117 3.61675 0.69797 -1.90949 3.62145 0.655752 -1.81277 
3.63507 0.610681 -1.67477 5.65113 -0.842676 -1.88101 5.57825 -0.819324 -1.9 
5.51395 -0.80299 -1.89744 5.45194 -0.800211 -1.86583 5.38782 -0.794365 -1.82305 
5.31652 -0.765267 -1.79189 5.23663 -0.726315 -1.7859 5.86662 -0.916616 -1.84016 
5.9515 -0.944299 -1.8372 6.02228 -0.979665 -1.83097 6.08867 -1.01365 -1.8137 
6.14957 -1.03591 -1.77934 6.20406 -1.04219 -1.72535 6.26574 -1.06853 -1.65261 
5.09071 -0.615761 -1.81386 5.03056 -0.566491 -1.82143 4.97244 -0.522204 -1.81297 
4.92471 -0.472311 -1.78109 4.86039 -0.424987 -1.73619 5.07044 -0.747622 -1.63367 
5.01019 -0.80445 -1.50673 4.95039 -0.857802 -1.43302 6.39648 -1.1917 -1.4441 
6.27853 -1.21002 -1.36827 6.21487 -1.26255 -1.19711 6.15121 -1.29248 -1.07417 
6.0924 -1.34696 -1.00016 6.42614 -1.07959 -1.6581 6.49509 -1.05937 -1.71864 
6.55167 -1.04445 -1.73502 6.60077 -1.02562 -1.70518 6.64496 -1.00438 -1.616 
6.70181 -1.00572 -1.45666 6.81677 -0.928938 -1.28393 6.85315 -0.851987 -1.31128 
6.90563 -0.833324 -1.31616 4.63478 -0.294566 -1.64748 4.71398 -0.339611 -1.67543 
4.73861 -0.439129 -1.61618 4.69266 -0.499633 -1.55461 4.64883 -0.562026 -1.5076 
7.00902 -0.798729 -1.30062 7.05346 -0.766045 -1.26823 7.09529 -0.740748 -1.18999 
7.13345 -0.721893 -1.05861 6.97769 -0.883194 -1.098 4.38964 -0.0689961 -1.58151 
4.44665 -0.111515 -1.57779 4.48926 -0.16862 -1.58683 4.29291 0.0166443 -1.59659 
4.23678 0.0560312 -1.5872 4.17216 0.0740476 -1.55364 4.11516 0.0530707 -1.5007 
4.05403 0.0357318 -1.43939 3.97867 0.0233505 -1.37514 4.27125 -0.0874124 -1.48813 
4.21162 -0.144192 -1.35356 4.44128 -0.279616 -1.44606 4.66702 -0.658542 -1.42451 
4.71885 -0.697017 -1.39691 4.7482 -0.746129 -1.39383 4.77095 -0.800425 -1.40612 
4.80686 -0.853525 -1.40911 4.5281 -0.577112 -1.39485 4.4625 -0.528421 -1.34026 
4.41764 -0.47717 -1.31317 4.37264 -0.419524 -1.29699 4.92438 -0.972794 -1.38413 
4.962 -1.02762 -1.37156 5.00624 -1.07233 -1.35934 5.0469 -1.11805 -1.35506 
5.10584 -1.16068 -1.36362 5.17753 -1.20313 -1.39298 5.25149 -1.24417 -1.42976 
5.32128 -1.27292 -1.46118 5.38061 -1.27324 -1.47517 5.43514 -1.2622 -1.47625 
5.49129 -1.2596 -1.46844 5.5542 -1.28074 -1.45658 5.61714 -1.30199 -1.44469 
5.67275 -1.30027 -1.4293 5.72629 -1.29678 -1.39935 5.78345 -1.3143 -1.34352 
5.84174 -1.34116 -1.2712 5.89923 -1.36842 -1.18386 5.95946 -1.39648 -1.08092 
6.90939 -1.04006 -1.05987 6.97435 -0.995717 -0.94301 3.55599 0.569962 -1.35645 
3.47161 0.55616 -1.20277 3.40315 0.536946 -1.06682 3.34083 0.509437 -0.945888 
3.27694 0.495375 -0.847671 3.21036 0.490792 -0.751086 3.14483 0.485266 -0.661765 
3.082 0.470259 -0.570831 3.02693 0.436307 -0.498942 2.97365 0.404325 -0.449694 
2.9265 0.36183 -0.428378 2.8801 0.32225 -0.422421 2.83931 0.265716 -0.420998 
2.80075 0.201324 -0.41823 2.75996 0.14479 -0.416807 2.71461 0.104266 -0.418123 
2.66958 0.0598834 -0.411344 2.62054 0.024022 -0.391163 2.57018 -0.0154335 -0.348072 
2.51532 -0.0446397 -0.291864 2.45702 -0.0672694 -0.221912 2.38691 -0.0566919 -0.135355 
2.31443 -0.0488575 -0.0185899 2.24478 -0.0564744 0.115679 2.18335 -0.084659 0.231173 
2.12688 -0.113706 0.302213 2.07813 -0.153321 0.330472 2.02798 -0.179757 0.33418 
1.97559 -0.198336 0.336544 1.92331 -0.222781 0.354772 1.87298 -0.25962 0.389991 
1.81856 -0.282074 0.422738 1.76355 -0.296932 0.439336 1.70801 -0.309961 0.45561 
1.65087 -0.320109 0.478827 1.58737 -0.316209 0.521935 1.5181 -0.289529 0.553701 
1.44806 -0.26473 0.585609 1.3818 -0.273651 0.607344 3.68982 0.454958 -1.51832 
3.67173 0.375654 -1.52763 3.63866 0.306839 -1.5235 3.61178 0.245364 -1.49866 
3.60897 0.195394 -1.44731 3.6282 0.152934 -1.38807 3.67925 0.115912 -1.33813 
3.76069 0.0705368 -1.31477 5.99452 -1.49903 -0.821052 6.00207 -1.53896 -0.671392 
6.01712 -1.56598 -0.507225 7.08654 -0.856391 -0.881938 7.1341 -0.790056 -0.883652 
7.20551 -0.660916 -0.822138 7.2457 -0.624353 -0.760683 7.29011 -0.599847 -0.704601 
7.33558 -0.576284 -0.655792 7.37564 -0.539658 -0.594365 7.40454 -0.475969 -0.522972 
7.41849 -0.401994 -0.440002 7.41777 -0.332999 -0.373593 7.42324 -0.265803 -0.328698 
7.41773 -0.208251 -0.321871 7.40681 -0.157387 -0.345154 7.39838 -0.110822 -0.397695 
7.3909 -0.0652343 -0.45753 7.38236 -0.0187007 -0.510082 7.37066 0.0306635 -0.540823 
7.35686 0.0819147 -0.557027 7.34199 0.13411 -0.565957 3.87377 0.0946766 -1.36187 
3.89368 0.172433 -1.36531 3.91671 0.251678 -1.30433 3.91975 0.344534 -1.19143 
3.75588 0.547357 -1.3151 3.82108 0.518852 -1.16611 3.93381 -0.0632766 -1.22702 
3.97592 -0.116843 -1.18189 4.04344 -0.161218 -1.17387 4.24435 -0.276561 -1.23102 
4.2067 0.628139 -1.28096 4.16228 0.576069 -1.25801 4.10751 0.550987 -1.21552 
4.04854 0.528832 -1.16083 3.98164 0.490874 -1.10335 3.79813 0.40313 -0.984621 
0.497745 -1.27947 -1.1637 0.442181 -1.2924 -1.14745 0.381877 -1.29971 -1.10242 
0.314134 -1.29194 -1.03024 0.234856 -1.2547 -0.933379 0.0990208 -1.1354 -0.674253 
0.0392019 -1.07408 -0.555045 -0.0026694 -1.01364 -0.470865 -0.0420571 -0.957507 -0.415943 
-0.0995282 -0.911899 -0.392462 -0.15346 -0.871534 -0.405523 -0.1905 -0.831107 -0.446328 
-0.239263 -0.795494 -0.495757 -0.29119 -0.75705 -0.523375 -0.334557 -0.710959 -0.520549 
-0.394919 -0.664965 -0.489999 -0.455587 -0.618567 -0.457019 -0.499527 -0.569565 -0.444598 
-0.545945 -0.52119 -0.480246 0.118407 -1.25635 -0.919867 0.0718945 -1.26795 -0.993016 
0.0205192 -1.27628 -1.02957 -0.0350378 -1.27819 -1.04493 -0.098005 -1.25684 -1.05683 
-0.161464 -1.23376 -1.06903 -0.221252 -1.22318 -1.07907 -0.283424 -1.19761 -1.09141 
-0.338682 -1.15963 -1.10435 -0.378262 -1.11504 -1.11588 -0.421636 -1.07274 -1.13521 
-0.4573 -1.02937 -1.1611 -0.498565 -0.988958 -1.19497 -0.537016 -0.94517 -1.21377 
-0.591907 -0.903832 -1.21955 -0.647164 -0.860081 -1.21061 -0.677332 -0.809995 -1.2064 
-0.696246 -0.756499 -1.20098 -0.715296 -0.700633 -1.18081 -0.737153 -0.641292 -1.12377 
-0.749713 -0.585105 -1.02723 -0.731552 -0.544617 -0.906604 -0.697418 -0.512247 -0.782596 
-0.650949 -0.483878 -0.666344 -0.600967 -0.366584 -0.402648 -0.600775 -0.286121 -0.299869 
-0.599387 -0.219884 -0.257959 -0.587478 -0.156171 -0.244372 -0.58181 -0.0927058 -0.221602 
-0.565244 -0.0196266 -0.160775 -0.544334 0.0610862 -0.062563 -0.523905 0.144179 0.0503581 
-0.504153 0.225802 0.155822 -0.491535 0.300213 0.231002 -0.500485 0.36304 0.274372 
1.23324 -0.252046 0.628268 
LINES 45 456
13 38 39 40 41 42 43 44 45 46 47 48 49 31 
24 37 50 51 52 53 54 55 56 57 58 59 60 61 62 63 64 65 66 67 68 69 70 71 34 
4 36 72 73 35 
17 35 74 75 76 77 78 79 80 81 82 83 84 85 86 87 88 32 
8 35 89 90 91 92 93 94 34 
10 34 95 96 97 98 99 100 101 102 30 
3 33 103 32 
8 32 104 105 106 107 108 109 29 
3 30 110 29 
3 30 111 29 
20 29 112 113 114 115 116 117 118 119 120 121 122 123 124 125 126 127 128 129 14 
7 28 144 145 146 147 148 26 
5 28 149 150 151 19 
3 27 152 24 
6 27 153 154 155 156 18 
8 27 157 158 159 160 161 162 17 
5 17 163 164 165 23 
4 20 166 167 26 
5 26 168 169 170 21 
6 23 171 172 173 174 15 
3 23 175 16 
5 22 176 177 178 20 
8 22 179 180 181 182 183 184 13 
4 22 185 186 12 
3 20 187 11 
7 21 188 189 190 191 192 19 
6 21 193 194 195 196 11 
21 19 197 198 199 200 201 202 203 204 205 206 207 208 209 210 211 212 213 214 215 18 
4 17 216 217 16 
10 14 257 258 259 260 261 262 263 264 13 
5 18 265 266 267 5 
4 16 268 269 15 
19 15 270 271 272 273 274 275 276 277 278 279 280 281 282 283 284 285 286 9 
6 13 287 288 289 290 6 
4 14 291 292 6 
5 13 293 294 295 12 
3 12 296 11 
7 10 297 298 299 300 301 6 
3 6 302 7 
7 8 303 304 305 306 307 4 
16 4 308 309 310 311 312 313 314 315 316 317 318 319 320 321 3 
26 4 322 323 324 325 326 327 328 329 330 331 332 333 334 335 336 337 338 339 340 341 342 343 344 345 3 
13 3 346 347 348 349 350 351 352 353 354 355 356 2 
17 28 136 135 134 133 132 131 130 25 137 138 139 140 141 142 143 27 
43 14 218 219 220 221 222 223 224 225 226 227 228 229 230 231 232 233 234 235 236 237 238 239 240 241 242 243 244 245 246 247 248 249 250 251 252 253 254 255 256 0 357 1 

POINT_DATA 358
SCALARS DY_raw double
LOOKUP_TABLE default
41.8945 27.4981 16.0521 25.6266 47.0071 73.5576 104.768 192.406 45.6178 
102.009 100.211 106.929 95.2423 68.1647 61.1274 93.9082 132.936 102.011 
62.1939 111.093 61.3906 69.5366 85.126 87.9731 117.002 75.0019 89.1091 
76.8776 52.7325 122.447 133.017 45.6538 104.402 172.82 91.3706 129.356 
160.15 119.51 169.193 111.18 101.329 79.8816 61.2675 66.2077 65.3924 
51.6239 46.3504 49.5085 43.8018 46.5937 140.176 143.769 143.769 168.921 
197.472 197.472 203.69 151.533 151.533 107.496 113.828 102.72 100.727 
100.727 118.243 144.917 115.853 137.946 141.449 106.03 98.978 86.5974 
130.891 129.356 152.22 152.22 152.32 132.936 133.147 115.005 104.603 
121.713 121.713 185.385 183.043 179.85 134.866 106.146 107.34 153.044 
162.045 162.045 122.015 100.445 94.4762 95.1849 87.7373 84.8369 88.169 
90.7086 93.0236 93.0236 111.986 127.497 106.217 108.183 102.577 80.4237 
85.1684 93.8432 113.037 105.21 101.073 94.8406 84.215 56.462 61.1798 
51.2139 51.3343 58.1532 70.5977 78.3292 77.6529 81.7728 70.3546 68.4958 
68.4958 56.0993 53.8086 56.2888 85.7749 86.3784 82.0845 82.7114 91.9768 
73.3561 64.3963 94.3449 102.905 108.416 103.343 101.401 88.3141 80.1787 
48.8829 56.4725 62.6376 78.34 71.6778 95.8224 111.905 117.14 100.324 
90.4253 132.356 112.132 76.4704 83.8378 88.9593 87.0757 89.0812 84.6836 
81.1922 85.9261 84.7031 83.6718 60.6469 67.265 103.079 81.3252 75.0016 
86.6012 91.5397 89.4932 87.984 93.9343 80.2672 81.8429 74.5784 80.0589 
84.3905 79.4067 93.4197 89.6162 75.4548 88.2117 84.4297 81.3202 65.6499 
65.7639 75.1666 86.8277 91.0692 82.9751 83.8772 85.3723 91.1368 122.11 
132.118 119.785 115.521 118.115 117.781 107.627 85.1197 85.1197 93.7276 
98.3975 105.58 111.915 117.574 115.651 114.866 96.9617 85.8988 68.8624 
113.99 133.116 56.0314 60.3433 76.7756 77.0498 78.283 67.5865 77.5299 
90.1211 90.0898 115.413 115.413 107.553 128.435 113.633 100.107 122.22 
78.6324 79.795 91.0333 77.7171 62.2818 68.8433 32.4474 48.458 67.2298 
81.5863 95.5655 91.855 83.7657 90.2753 64.9185 62.4826 62.4826 80.2428 
67.9825 78.5529 58.7617 53.7635 42.4712 62.0294 60.5431 64.3514 59.7047 
64.315 69.2869 85.6608 83.2037 59.9748 71.114 78.1335 119.1 104.603 
74.4926 79.4376 90.3921 75.8189 83.9306 89.8173 101.447 115.402 117.889 
117.889 128.773 112.865 98.2345 104.072 98.5917 107.969 102.009 75.9603 
74.8378 83.4488 93.2899 82.6912 90.7034 95.2698 110.071 107.014 89.5707 
95.2043 88.0008 96.2143 107.16 106.947 124.01 53.5477 45.1646 43.4947 
53.3841 46.2042 36.5966 31.2968 19.0012 18.7862 22.1549 19.8791 22.7497 
22.0391 8.7142 21.8186 24.1341 27.3728 31.3281 25.5186 38.413 29.0395 
25.7121 30.5902 33.4174 37.512 49.5301 39.0887 32.75 26.8005 32.627 
39.3198 39.3198 32.7908 35.1911 27.3866 26.1032 26.1032 31.6273 32.9355 
36.4733 42.4385 40.5812 28.695 19.3789 22.6203 14.8301 7.16025 11.5303 
7.15724 0 5.43413 16.1863 12.8786 14.7099 30.8086 
FIELD FieldData 7
DY_minmax 1 358 double
0.205678 0.135 0.0788063 0.125812 0.230778 0.361125 0.514349 0.944604 0.223957 
0.500806 0.491977 0.524961 0.467585 0.334649 0.3001 0.461035 0.65264 0.500813 
0.305336 0.5454 0.301393 0.341384 0.41792 0.431897 0.574411 0.368216 0.437474 
0.377425 0.258886 0.601145 0.653037 0.224134 0.512554 0.848445 0.448577 0.635061 
0.786244 0.586723 0.830641 0.545829 0.497467 0.392172 0.300788 0.325042 0.321039 
0.253444 0.227554 0.243058 0.215042 0.228748 0.688184 0.705822 0.705822 0.829306 
0.969475 0.969475 1 0.743937 0.743937 0.527741 0.558831 0.504294 0.494512 
0.494512 0.580506 0.711459 0.568772 0.677235 0.694433 0.520545 0.485925 0.425143 
0.642601 0.635061 0.747312 0.747312 0.747801 0.652641 0.653674 0.56461 0.513543 
0.59754 0.59754 0.910134 0.898635 0.882957 0.662116 0.521115 0.526976 0.751356 
0.795548 0.795548 0.599023 0.493128 0.463824 0.467303 0.430739 0.4165 0.432859 
0.445327 0.456692 0.456692 0.549786 0.625936 0.521464 0.531117 0.503593 0.394834 
0.418128 0.460716 0.554947 0.516519 0.496208 0.465613 0.413447 0.277196 0.300358 
0.25143 0.252022 0.285499 0.346594 0.384551 0.381231 0.401457 0.345401 0.336275 
0.336275 0.275415 0.264169 0.276345 0.421105 0.424068 0.402987 0.406065 0.451553 
0.360136 0.316149 0.463179 0.505203 0.53226 0.507356 0.497822 0.433571 0.393631 
0.239987 0.277247 0.307514 0.384604 0.351896 0.470432 0.54939 0.575089 0.492533 
0.443936 0.649791 0.550502 0.375425 0.411595 0.436739 0.427491 0.437337 0.415748 
0.398607 0.421847 0.415843 0.41078 0.297741 0.330232 0.506057 0.39926 0.368214 
0.425162 0.449407 0.43936 0.431951 0.461163 0.394066 0.401801 0.366137 0.393043 
0.414308 0.389841 0.458637 0.439963 0.37044 0.433069 0.414501 0.399235 0.322303 
0.322863 0.369025 0.426274 0.447097 0.40736 0.411788 0.419128 0.447429 0.599489 
0.648625 0.588075 0.567142 0.579877 0.578235 0.528387 0.417889 0.417889 0.460148 
0.483075 0.518337 0.549438 0.57722 0.567779 0.563928 0.476026 0.421713 0.338075 
0.559624 0.653525 0.275082 0.296251 0.376924 0.37827 0.384324 0.331811 0.380627 
0.442443 0.442289 0.566613 0.566613 0.528021 0.630543 0.557871 0.491466 0.600032 
0.38604 0.391747 0.446921 0.381546 0.305767 0.337981 0.159298 0.237901 0.330059 
0.400541 0.469171 0.450955 0.411241 0.4432 0.318712 0.306753 0.306753 0.393946 
0.333755 0.385649 0.288486 0.263948 0.208509 0.304528 0.297231 0.315928 0.293115 
0.315749 0.340158 0.420545 0.408482 0.294441 0.349128 0.38359 0.584712 0.51354 
0.365716 0.389993 0.443773 0.372227 0.412051 0.440951 0.498047 0.566555 0.578768 
0.578768 0.632201 0.5541 0.482275 0.510935 0.484028 0.530064 0.500806 0.372921 
0.36741 0.409685 0.457999 0.405966 0.445301 0.467719 0.540387 0.525377 0.43974 
0.467398 0.432033 0.472357 0.526094 0.525046 0.608819 0.262888 0.221732 0.213534 
0.262085 0.226836 0.179668 0.153649 0.0932848 0.0922296 0.108768 0.0975947 0.111688 
0.108199 0.0427817 0.107117 0.118484 0.134385 0.153803 0.125281 0.188586 0.142567 
0.126232 0.15018 0.16406 0.184162 0.243164 0.191903 0.160783 0.131575 0.16018 
0.193038 0.193038 0.160984 0.172768 0.134452 0.128151 0.128151 0.155272 0.161694 
0.179063 0.208349 0.19923 0.140876 0.0951392 0.111053 0.0728074 0.0351527 0.0566071 
0.0351379 0 0.0266785 0.0794653 0.0632263 0.072217 0.151253 
WidthEq 1 358 double
3.85301 4.5865 2.68626 4.72789 4.87139 5.37782 3.83601 2.4956 1.91877 
3.50919 2.01126 2.42665 1.98242 3.89072 5.96541 4.29717 3.30226 4.43522 
5.2801 3.00857 3.12149 3.08356 2.33278 4.98561 2.86791 3.76924 2.91833 
4.55373 3.81378 2.66817 2.17002 2.69244 3.34658 2.31403 3.22226 2.70958 
1 2.86362 1.28947 2.44423 2.78064 3.82141 5.01424 4.67347 4.80775 
5.23265 5.38269 5.00843 3.86856 2.82184 2.87495 2.58192 2.58192 2.1188 
2.01947 2.01947 1.99092 2.61535 2.61535 3.09148 3.01112 3.29129 3.47344 
3.47344 3.17743 2.58817 3.03488 2.65894 2.46393 2.79365 2.75354 3.09998 
2.35508 2.70958 2.79096 2.79096 2.5998 2.53542 2.61651 2.97021 3.06663 
2.8969 2.8969 2.25358 2.35065 2.26317 2.68844 2.97675 3.16966 2.86369 
2.61723 2.61723 2.62951 2.77156 2.94783 3.00741 3.1233 3.19095 3.34607 
3.41699 3.25133 3.25133 2.63257 2.88854 3.2652 3.18201 3.291 3.36257 
3.27516 3.1039 2.89799 2.70849 2.68154 2.57073 2.62305 3.15309 3.55591 
4.56419 5.28555 5.68997 5.67667 5.20482 4.60575 4.44634 4.11785 3.9782 
3.9782 4.21093 4.82693 5.87808 3.62356 3.53121 3.73639 3.41851 3.16276 
3.40558 3.6617 3.54349 3.13173 3.03451 3.00203 3.24108 3.63351 4.24115 
3.69229 3.13551 2.77948 2.22466 2.62159 3.11785 2.90576 2.97362 3.49757 
3.63693 2.80433 3.0457 4.0808 4.39265 4.01453 3.56804 4.0242 4.6532 
5.43217 5.59783 5.41822 5.16566 3.21863 3.19364 2.71104 3.04592 2.92407 
4.74497 3.6051 3.87583 4.17315 4.50251 2.40783 2.59827 2.9184 2.50803 
2.66926 2.8796 3.02848 3.09598 3.42629 2.3125 2.24115 2.6253 2.98249 
2.98583 2.95357 3.06561 3.03538 2.65393 2.49698 2.39563 2.61694 2.75514 
2.75965 2.88317 2.88302 2.61186 2.6298 2.7874 3.23956 3.23956 3.25859 
3.27153 2.72637 2.68909 2.61665 2.29674 2.50839 3.10463 3.85512 4.84938 
4.24152 3.42527 6.91237 7.20047 6.578 6.47373 6.24261 6.74809 6.06721 
5.59369 5.23178 4.37419 4.37419 4.24704 3.41721 3.76793 3.79605 3.0877 
4.40442 4.19901 3.90736 3.70137 3.50745 3.18114 2.12868 2.18622 1.90823 
2.21434 2.02071 2.59071 3.16239 3.05144 3.37099 3.16152 3.16152 2.61731 
2.57669 2.53855 2.85628 3.53288 3.69215 6.3104 6.08261 5.55824 5.54479 
5.56107 4.68343 4.18324 4.13311 6.06205 5.63082 5.52183 3.41016 3.84836 
5.16414 4.92865 4.54741 4.9758 4.54828 4.28359 3.88251 3.54458 3.34942 
3.34942 2.6973 2.82773 3.10695 3.50621 3.66948 3.7308 3.50919 4.05093 
3.90765 4.34302 3.99818 4.52358 4.39388 2.75659 2.2708 1.93853 2.04185 
2.81857 3.80099 3.76451 3.71678 3.7874 3.63518 2.93701 4.94812 5.35697 
5.04476 5.24043 4.50643 4.38894 4.53288 4.3436 3.96527 3.62995 3.18114 
3.07862 2.64855 2.8549 2.53956 3.12025 3.6354 4.08879 5.12483 4.51282 
3.06859 2.49459 2.59566 2.2878 2.30102 2.57415 2.87023 2.8201 3.30248 
3.74824 3.74824 4.84618 4.68328 5.09155 5.17983 5.17983 4.99789 5.36351 
5.92378 5.26833 4.97152 5.38422 3.86812 3.38059 2.47671 2.27087 2.11269 
2.17961 3.38022 3.36024 3.86253 3.90649 3.72063 4.41597 
rRFP 1 358 double
2780.54 2881.49 2619.96 2900.95 2920.7 2990.4 2778.2 2593.72 2514.33 
2733.22 2527.06 2584.23 2523.09 2785.73 3071.27 2841.67 2704.74 2860.67 
2976.95 2664.32 2679.86 2674.64 2571.31 2936.42 2644.96 2769.01 2651.9 
2876.98 2775.14 2617.47 2548.91 2620.81 2710.84 2568.73 2693.73 2623.17 
2387.88 2644.37 2427.72 2586.65 2632.95 2776.19 2940.36 2893.46 2911.94 
2970.42 2991.07 2939.56 2782.68 2638.62 2645.93 2605.6 2605.6 2541.86 
2528.19 2528.19 2524.26 2610.2 2610.2 2675.73 2664.67 2703.23 2728.3 
2728.3 2687.56 2606.46 2667.94 2616.2 2589.36 2634.74 2629.22 2676.9 
2574.38 2623.17 2634.37 2634.37 2608.06 2599.2 2610.36 2659.04 2672.31 
2648.95 2648.95 2560.41 2573.77 2561.73 2620.26 2659.94 2686.49 2644.38 
2610.46 2610.46 2612.15 2631.7 2655.96 2664.16 2680.11 2689.42 2710.77 
2720.53 2697.73 2697.73 2612.57 2647.8 2699.64 2688.19 2703.19 2713.04 
2701.01 2677.44 2649.1 2623.02 2619.31 2604.06 2611.26 2684.21 2739.65 
2878.42 2977.7 3033.36 3031.53 2966.59 2884.14 2862.2 2816.99 2797.77 
2797.77 2829.8 2914.58 3059.25 2748.96 2736.25 2764.49 2720.74 2685.54 
2718.96 2754.21 2737.94 2681.27 2667.89 2663.42 2696.32 2750.33 2833.96 
2758.42 2681.79 2632.79 2556.43 2611.06 2679.36 2650.17 2659.51 2731.62 
2750.8 2636.21 2669.43 2811.89 2854.81 2802.77 2741.32 2804.1 2890.67 
2997.88 3020.68 2995.96 2961.2 2693.23 2689.79 2623.37 2669.46 2652.69 
2903.3 2746.42 2783.68 2824.6 2869.93 2581.64 2607.85 2651.91 2595.43 
2617.62 2646.57 2667.06 2676.35 2721.81 2568.52 2558.7 2611.57 2660.73 
2661.19 2656.75 2672.17 2668.01 2615.51 2593.91 2579.96 2610.42 2629.44 
2630.06 2647.06 2647.04 2609.72 2612.19 2633.88 2696.11 2696.11 2698.73 
2700.51 2625.48 2620.35 2610.38 2566.35 2595.48 2677.54 2780.83 2917.67 
2834.01 2721.67 3201.6 3241.25 3155.58 3141.23 3109.42 3178.99 3085.28 
3020.11 2970.3 2852.27 2852.27 2834.77 2720.56 2768.83 2772.7 2675.21 
2856.43 2828.16 2788.02 2759.67 2732.98 2688.07 2543.22 2551.14 2512.88 
2555.01 2528.36 2606.81 2685.49 2670.22 2714.2 2685.37 2685.37 2610.47 
2604.88 2599.63 2643.36 2736.48 2758.4 3118.75 3087.4 3015.23 3013.38 
3015.62 2894.83 2825.99 2819.09 3084.57 3025.22 3010.22 2719.59 2779.9 
2960.99 2928.58 2876.11 2935.07 2876.23 2839.8 2784.6 2738.09 2711.23 
2711.23 2621.48 2639.43 2677.86 2732.81 2755.28 2763.72 2733.22 2807.78 
2788.06 2847.98 2800.52 2872.83 2854.98 2629.64 2562.78 2517.05 2531.27 
2638.17 2773.38 2768.36 2761.79 2771.51 2750.56 2654.47 2931.26 2987.53 
2944.56 2971.49 2870.47 2854.3 2874.11 2848.06 2795.99 2749.84 2688.07 
2673.96 2614.77 2643.17 2599.77 2679.69 2750.59 2812.99 2955.58 2871.35 
2672.58 2593.58 2607.49 2565.12 2566.94 2604.53 2645.28 2638.38 2704.77 
2766.12 2766.12 2917.23 2894.81 2951 2963.15 2963.15 2938.11 2988.43 
3065.54 2975.33 2934.48 2991.28 2782.62 2715.52 2591.12 2562.79 2541.02 
2550.23 2715.47 2712.72 2781.85 2787.9 2762.32 2858.02 
rGFP 1 358 double
2694.2 2658.9 2575.9 2653.94 2761.77 2928.36 2934.67 3012.95 2620.31 
2890.75 2734.33 2792.26 2721.59 2797.99 2897.43 2936.32 2971.77 2985.22 
2861.17 2867.01 2724.41 2747.2 2731.36 2971.38 2868.33 2815.48 2792.83 
2882.86 2733.89 2859.49 2821.43 2655.7 2882.17 2932.69 2827.2 2883.28 
2692.93 2875.01 2750.95 2804.53 2814.54 2838.04 2839.99 2842.2 2847.17 
2802.91 2782.27 2780.74 2702.23 2664.26 2935.78 2903.98 2903.98 2890.69 
2931.57 2931.57 2938.31 2929.09 2929.09 2865.1 2875.53 2870.86 2882.65 
2882.65 2908.49 2907.85 2884.38 2899.57 2881.3 2828.99 2805.32 2801.23 
2841.04 2883.28 2957.62 2957.62 2928.78 2869.83 2881.16 2874.37 2853.56 
2885.37 2885.37 2950.56 2963.05 2939.81 2895.36 2848.75 2873.01 2971.05 
2956.89 2956.89 2853.62 2811.17 2811.28 2819.04 2806.81 2803.49 2827.8 
2842.73 2835.23 2835.23 2827.59 2901.06 2879.6 2877.02 2870.36 2803.21 
2811.72 2824.06 2860.36 2817.74 2803.81 2776.59 2753.68 2710.81 2750.33 
2766.53 2804.11 2863.67 2933.54 2940.47 2890.43 2896.37 2822.49 2805.27 
2805.27 2769.01 2792.51 2863.65 2843.59 2837.8 2839.48 2815.53 2823.68 
2782.6 2768.58 2867.09 2855.05 2861.77 2843.02 2861.43 2853.67 2872.83 
2713.27 2709.85 2706.88 2707.06 2720.69 2831.54 2857.95 2881.11 2883.67 
2861.65 2903.95 2874.3 2844.84 2901.05 2889.91 2843.47 2891.26 2926.83 
2973.83 3013.78 2991.72 2965 2727.98 2747.6 2812.23 2780.49 2752.09 
2943.7 2862.79 2879.64 2899.95 2955.72 2726.05 2745.43 2750.43 2733.57 
2758.04 2761.44 2815.7 2810.23 2791.31 2736.77 2722 2746.27 2728.58 
2729.14 2754.79 2798.96 2809.21 2752.99 2742.22 2737.3 2771.28 2869.21 
2897.38 2878.14 2865.83 2841.28 2842.52 2832.78 2808.53 2808.53 2838.2 
2854.69 2820.63 2833.73 2840.43 2798.4 2820.91 2833.81 2863.93 2866.72 
3016.27 2988.74 2920.09 2967.28 3037.81 3031.58 3021.47 2988.86 3003.17 
3036.89 3004.11 3037.62 3037.62 2989.56 2971.67 2960.94 2912.79 2910.16 
2879.11 2867.84 2888.48 2820.44 2751.23 2751.78 2601.85 2638.72 2661.07 
2713.44 2725.89 2770.75 2797.68 2808.25 2751.62 2730.32 2730.32 2742.8 
2707.95 2732.19 2700.62 2722.72 2689.59 2924.21 2901.04 2890.46 2863.83 
2890.44 2857.28 2891.12 2876.67 2896.35 2933.21 2964.22 2938.93 2935.33 
2917.47 2924.3 2943.83 2910.04 2914.52 2917.52 2926.65 2941.83 2927.64 
2927.64 2880.12 2851.93 2837.99 2897.68 2894.56 2935.59 2890.75 2840.49 
2825.22 2895.2 2905.77 2906.84 2931.32 2795.4 2782.73 2740.23 2715.67 
2801.12 2867.27 2894.98 2931.07 2937.83 2983.58 2690.05 2756.26 2765.78 
2802.09 2774.91 2697.7 2670.14 2618.91 2614.38 2620.63 2604.94 2605.15 
2600.63 2555.86 2595.07 2594.07 2618.19 2646.67 2637.12 2729.64 2663.83 
2611.68 2609.09 2619.52 2618.6 2646.75 2633.4 2626.78 2608.36 2640.53 
2680.16 2680.16 2691.69 2697.59 2672.22 2667.99 2667.99 2690.85 2709.43 
2748.84 2756.36 2734.53 2687.28 2607.74 2609.25 2569.51 2549.04 2557.14 
2548.38 2532.78 2551.04 2595.3 2583.09 2587.51 2668.83 
bkstRFP 1 358 double
530.29 631.24 369.71 650.7 670.45 740.15 527.95 343.47 264.08 
482.97 276.81 333.98 272.84 535.48 821.02 591.42 454.49 610.42 
726.7 414.07 429.61 424.39 321.06 686.17 394.71 518.76 401.65 
626.73 524.89 367.22 298.66 370.56 460.59 318.48 443.48 372.92 
137.63 394.12 177.47 336.4 382.7 525.94 690.11 643.21 661.69 
720.17 740.82 689.31 532.43 388.37 395.68 355.35 355.35 291.61 
277.94 277.94 274.01 359.95 359.95 425.48 414.42 452.98 478.05 
478.05 437.31 356.21 417.69 365.95 339.11 384.49 378.97 426.65 
324.13 372.92 384.12 384.12 357.81 348.95 360.11 408.79 422.06 
398.7 398.7 310.16 323.52 311.48 370.01 409.69 436.24 394.13 
360.21 360.21 361.9 381.45 405.71 413.91 429.86 439.17 460.52 
470.28 447.48 447.48 362.32 397.55 449.39 437.94 452.94 462.79 
450.76 427.19 398.85 372.77 369.06 353.81 361.01 433.96 489.4 
628.17 727.45 783.11 781.28 716.34 633.89 611.95 566.74 547.52 
547.52 579.55 664.33 809 498.71 486 514.24 470.49 435.29 
468.71 503.96 487.69 431.02 417.64 413.17 446.07 500.08 583.71 
508.17 431.54 382.54 306.18 360.81 429.11 399.92 409.26 481.37 
500.55 385.96 419.18 561.64 604.56 552.52 491.07 553.85 640.42 
747.63 770.43 745.71 710.95 442.98 439.54 373.12 419.21 402.44 
653.05 496.17 533.43 574.35 619.68 331.39 357.6 401.66 345.18 
367.37 396.32 416.81 426.1 471.56 318.27 308.45 361.32 410.48 
410.94 406.5 421.92 417.76 365.26 343.66 329.71 360.17 379.19 
379.81 396.81 396.79 359.47 361.94 383.63 445.86 445.86 448.48 
450.26 375.23 370.1 360.13 316.1 345.23 427.29 530.58 667.42 
583.76 471.42 951.35 991 905.33 890.98 859.17 928.74 835.03 
769.86 720.05 602.02 602.02 584.52 470.31 518.58 522.45 424.96 
606.18 577.91 537.77 509.42 482.73 437.82 292.97 300.89 262.63 
304.76 278.11 356.56 435.24 419.97 463.95 435.12 435.12 360.22 
354.63 349.38 393.11 486.23 508.15 868.5 837.15 764.98 763.13 
765.37 644.58 575.74 568.84 834.32 774.97 759.97 469.34 529.65 
710.74 678.33 625.86 684.82 625.98 589.55 534.35 487.84 460.98 
460.98 371.23 389.18 427.61 482.56 505.03 513.47 482.97 557.53 
537.81 597.73 550.27 622.58 604.73 379.39 312.53 266.8 281.02 
387.92 523.13 518.11 511.54 521.26 500.31 404.22 681.01 737.28 
694.31 721.24 620.22 604.05 623.86 597.81 545.74 499.59 437.82 
423.71 364.52 392.92 349.52 429.44 500.34 562.74 705.33 621.1 
422.33 343.33 357.24 314.87 316.69 354.28 395.03 388.13 454.52 
515.87 515.87 666.98 644.56 700.75 712.9 712.9 687.86 738.18 
815.29 725.08 684.23 741.03 532.37 465.27 340.87 312.54 290.77 
299.98 465.22 462.47 531.6 537.65 512.07 607.77 
bkstGFP 1 358 double
161.42 126.12 43.12 121.16 228.99 395.58 401.89 480.17 87.53 
357.97 201.55 259.48 188.81 265.21 364.65 403.54 438.99 452.44 
328.39 334.23 191.63 214.42 198.58 438.6 335.55 282.7 260.05 
350.08 201.11 326.71 288.65 122.92 349.39 399.91 294.42 350.5 
160.15 342.23 218.17 271.75 281.76 305.26 307.21 309.42 314.39 
270.13 249.49 247.96 169.45 131.48 403 371.2 371.2 357.91 
398.79 398.79 405.53 396.31 396.31 332.32 342.75 338.08 349.87 
349.87 375.71 375.07 351.6 366.79 348.52 296.21 272.54 268.45 
308.26 350.5 424.84 424.84 396 337.05 348.38 341.59 320.78 
352.59 352.59 417.78 430.27 407.03 362.58 315.97 340.23 438.27 
424.11 424.11 320.84 278.39 278.5 286.26 274.03 270.71 295.02 
309.95 302.45 302.45 294.81 368.28 346.82 344.24 337.58 270.43 
278.94 291.28 327.58 284.96 271.03 243.81 220.9 178.03 217.55 
233.75 271.33 330.89 400.76 407.69 357.65 363.59 289.71 272.49 
272.49 236.23 259.73 330.87 310.81 305.02 306.7 282.75 290.9 
249.82 235.8 334.31 322.27 328.99 310.24 328.65 320.89 340.05 
180.49 177.07 174.1 174.28 187.91 298.76 325.17 348.33 350.89 
328.87 371.17 341.52 312.06 368.27 357.13 310.69 358.48 394.05 
441.05 481 458.94 432.22 195.2 214.82 279.45 247.71 219.31 
410.92 330.01 346.86 367.17 422.94 193.27 212.65 217.65 200.79 