# vtk DataFile Version 3.0
vtk output
ASCII
DATASET POLYDATA
POINTS 230 float
-0.443895 -0.365437 1.18288 2.10345 0.0605579 1.77243 1.46079 -0.789754 1.28459 
0.215117 0.35362 1.23649 0.26901 0.647316 1.09245 2.24459 -0.598761 1.26954 
0.917019 1.26209 1.12532 -0.354157 0.0873381 -0.168268 0.110945 0.0897128 -0.281125 
0.169476 -0.410552 -1.39372 1.001 0.889913 -1.61619 5.42357 0.239589 -0.839627 
6.43242 0.0473945 -0.871617 5.00925 0.225631 -1.13279 6.09824 -0.161066 -0.98183 
6.75277 0.132163 -1.00479 6.6546 0.106187 -0.923742 6.54898 0.0813211 -0.874683 
6.34473 -0.000916773 -0.892144 6.27151 -0.0260805 -0.917133 6.20786 -0.0448431 -0.937149 
6.16484 -0.0781474 -0.953661 6.13078 -0.119009 -0.967792 4.94068 0.224232 -1.17755 
4.88233 0.234297 -1.24122 4.83839 0.261259 -1.322 4.79537 0.288211 -1.41793 
4.75841 0.324226 -1.49569 4.71604 0.355025 -1.55246 4.65444 0.362679 -1.59421 
4.58587 0.36128 -1.63897 4.51905 0.360944 -1.69853 4.4536 0.361796 -1.76527 
4.38671 0.361376 -1.82486 4.3155 0.357143 -1.86299 4.24139 0.350367 -1.88682 
4.16584 0.342321 -1.90349 4.0918 0.335629 -1.92728 4.02179 0.332959 -1.96489 
3.96308 0.343155 -2.02094 3.92064 0.37387 -2.07774 3.87676 0.403314 -2.12738 
3.81373 0.409696 -2.16197 3.74089 0.404567 -2.18525 3.66655 0.398083 -2.2014 
3.5981 0.39925 -2.215 3.53973 0.413499 -2.22424 3.4794 0.425206 -2.23433 
3.42807 0.448585 -2.24053 3.3768 0.472048 -2.2467 3.31623 0.484038 -2.24912 
3.26171 0.505089 -2.23336 3.20768 0.528584 -2.19406 3.14739 0.544543 -2.1497 
3.07967 0.550261 -2.11632 3.02521 0.571397 -2.10054 2.97954 0.602726 -2.09651 
2.93632 0.636636 -2.09921 2.8921 0.669237 -2.10233 2.84197 0.694186 -2.10801 
2.78291 0.707531 -2.11755 2.73278 0.732473 -2.12323 2.68848 0.764989 -2.12639 
2.64419 0.797505 -2.12955 2.59407 0.822454 -2.13523 2.53494 0.835715 -2.1448 
2.48367 0.859179 -2.15097 2.4324 0.882642 -2.15714 2.37321 0.895826 -2.16674 
2.32194 0.919289 -2.17291 2.27062 0.942676 -2.17911 2.21028 0.954374 -2.1892 
2.15047 0.967353 -2.19129 2.07769 0.964706 -2.18343 1.99463 0.950511 -2.15669 
1.90911 0.933734 -2.12322 1.82604 0.919539 -2.09648 1.75182 0.915621 -2.08147 
1.68762 0.924709 -2.06212 1.61749 0.927295 -2.02979 1.54758 0.931375 -1.98181 
1.46729 0.922587 -1.93053 1.38549 0.912444 -1.87213 1.31017 0.911307 -1.80314 
1.22548 0.898623 -1.73044 1.14369 0.888479 -1.67204 1.07414 0.892429 -1.63167 
4.95171 0.256607 -0.939459 4.88325 0.272193 -0.766408 4.81696 0.288791 -0.615748 
4.75401 0.309127 -0.471433 4.67168 0.304906 -0.327708 4.588 0.300748 -0.161234 
4.50662 0.300168 0.014001 4.42318 0.295711 0.172796 4.33838 0.285882 0.284344 
4.2642 0.286233 0.353817 4.18685 0.280065 0.390809 4.10915 0.274027 0.435425 
4.04201 0.283507 0.507939 3.976 0.296871 0.612054 3.90711 0.307692 0.730482 
3.83125 0.309467 0.845896 3.74236 0.29313 0.940117 3.65191 0.272953 1.01033 
3.57018 0.262896 1.06876 3.50321 0.272 1.13356 3.43486 0.279917 1.20557 
3.34988 0.267439 1.28592 3.26387 0.253643 1.36583 3.18675 0.251375 1.44958 
3.11093 0.248807 1.51054 3.04391 0.252886 1.55144 2.97903 0.241582 1.56702 
2.92007 0.21315 1.58076 2.84535 0.190107 1.60761 2.76273 0.170769 1.64121 
2.68795 0.147642 1.66803 2.62929 0.119003 1.67412 2.56164 0.102299 1.66518 
2.48616 0.0917845 1.65575 2.40637 0.0798567 1.66055 2.32223 0.0642677 1.68682 
2.23778 0.0488836 1.72076 2.16176 0.0438263 1.75054 5.06597 0.217067 -1.02315 
5.12739 0.212196 -0.942595 5.19013 0.206028 -0.900353 5.24818 0.192138 -0.88344 
5.31508 0.192312 -0.869912 5.37863 0.207468 -0.8544 0.151022 -0.359523 -1.28866 
0.150297 -0.312863 -1.21149 0.152655 -0.258996 -1.16308 0.168396 -0.213299 -1.1211 
0.18126 -0.17015 -1.06482 0.17936 -0.120151 -0.994959 0.178623 -0.0758993 -0.910533 
0.168073 -0.0310583 -0.804984 0.155588 0.00444362 -0.66312 0.130711 0.0449706 -0.484517 
0.150278 0.0320837 -0.114686 0.185454 -0.0133783 0.0147319 0.232564 -0.0378915 0.0965788 
0.281443 -0.0615309 0.140593 0.32884 -0.0876124 0.176201 0.354396 -0.140837 0.217916 
0.380046 -0.192737 0.275231 0.409073 -0.239651 0.341787 0.439175 -0.285171 0.408807 
0.470482 -0.329127 0.476338 0.508736 -0.363886 0.546915 0.561373 -0.376641 0.624304 
0.610195 -0.371683 0.70406 0.629536 -0.341167 0.782421 0.615806 -0.289151 0.865595 
0.582805 -0.238879 0.952255 0.531936 -0.207859 1.03954 0.483799 -0.174315 1.1125 
0.453748 -0.119103 1.16994 0.430485 -0.0574882 1.19921 0.401166 -0.00493582 1.21031 
0.375321 0.051523 1.21513 0.34047 0.0962937 1.21605 0.305587 0.141139 1.21698 
0.279078 0.198961 1.22191 0.24669 0.262049 1.22659 0.140165 0.180149 -0.328197 
0.152117 0.266335 -0.371835 0.160817 0.342845 -0.402501 0.173218 0.403342 -0.404595 
0.161938 0.460403 -0.381385 0.125474 0.504133 -0.327278 0.0841012 0.546096 -0.251457 
0.0227139 0.560908 -0.161499 -0.0525712 0.5386 -0.0732576 -0.11649 0.485376 0.0347811 
-0.161451 0.419731 0.167456 -0.180654 0.345005 0.326722 -0.208634 0.258545 0.482133 
-0.256442 0.182689 0.612419 -0.302343 0.110321 0.720691 -0.332111 0.0322926 0.808212 
-0.364488 -0.0436706 0.895563 -0.382127 -0.128879 0.976583 -0.393363 -0.219148 1.05798 
-0.409552 -0.300681 1.12461 -0.0100819 0.0623714 -0.210679 -0.106989 0.043357 -0.164579 
-0.18261 0.03929 -0.149874 -0.242496 0.0522525 -0.151978 -0.302823 0.063959 -0.162067 
0.890178 1.22759 1.07542 0.851259 1.19539 1.04651 0.79615 1.16877 1.03834 
0.750025 1.13022 1.04519 0.711726 1.08547 1.05252 0.67341 1.03833 1.0671 
0.632209 0.98865 1.09597 0.588136 0.93882 1.13193 0.537683 0.896454 1.16024 
0.479681 0.867295 1.16637 0.43644 0.831283 1.15892 0.402398 0.790325 1.14478 
0.368519 0.747647 1.13036 0.326989 0.701307 1.11374 2.18821 -0.643677 1.31922 
2.1214 -0.677929 1.36102 2.06007 -0.714113 1.39591 1.99472 -0.744694 1.42331 
1.93331 -0.78081 1.4582 1.86642 -0.812596 1.49276 1.80495 -0.846244 1.52039 
1.7345 -0.865558 1.52576 1.66053 -0.874716 1.50921 1.5906 -0.877455 1.47161 
1.53195 -0.867184 1.41559 1.49216 -0.833627 1.35216 0.272967 0.546541 1.1137 
0.258819 0.451152 1.16292 0.190035 0.67403 1.08127 0.122126 0.671331 1.06709 
0.0692089 0.647064 1.05211 0.0141506 0.620621 1.04397 -0.0199197 0.575049 1.05201 
-0.0221558 0.511756 1.08633 0.000908071 0.459418 1.13538 0.0341638 0.416301 1.18045 
0.0749976 0.379987 1.20524 0.131169 0.355928 1.21997 
LINES 12 251
66 13 23 24 25 26 27 28 29 30 31 32 33 34 35 36 37 38 39 40 41 42 43 44 45 46 47 48 49 50 51 52 53 54 55 56 57 58 59 60 61 62 63 64 65 66 67 68 69 70 71 72 73 74 75 76 77 78 79 80 81 82 83 84 85 86 10 
40 13 87 88 89 90 91 92 93 94 95 96 97 98 99 100 101 102 103 104 105 106 107 108 109 110 111 112 113 114 115 116 117 118 119 120 121 122 123 124 1 
8 13 125 126 127 128 129 130 11 
12 9 131 132 133 134 135 136 137 138 139 140 8 
28 8 141 142 143 144 145 146 147 148 149 150 151 152 153 154 155 156 157 158 159 160 161 162 163 164 165 166 3 
22 8 167 168 169 170 171 172 173 174 175 176 177 178 179 180 181 182 183 184 185 186 0 
7 8 187 188 189 190 191 7 
16 6 192 193 194 195 196 197 198 199 200 201 202 203 204 205 4 
14 5 206 207 208 209 210 211 212 213 214 215 216 217 2 
4 4 218 219 3 
12 4 220 221 222 223 224 225 226 227 228 229 3 
10 15 16 17 12 18 19 20 21 22 14 

POINT_DATA 230
SCALARS DY_raw double
LOOKUP_TABLE default
20.267 15.9251 50.4464 78.2331 53.3056 12.2665 29.2461 115.569 84.1767 
29.1893 53.4877 23.2403 100.005 83.1485 86.0141 58.1775 86.9622 103.602 
85.5981 84.7407 75.2145 84.5226 84.5226 76.8959 83.0608 94.2596 83.7081 
69.8163 57.4852 65.8676 73.8282 69.9623 61.9627 80.9519 68.5102 62.0137 
73.0379 73.0379 90.2272 100.447 87.9023 103.656 107.487 113.134 91.1913 
108.532 96.1967 97.0515 99.0706 90.9586 80.0735 80.0735 92.7421 97.4158 
102.365 86.613 71.0006 100.224 85.3109 85.3109 80.7246 55.3918 68.4643 
53.8934 41.6252 41.6252 30.2051 39.946 39.946 49.9483 49.9483 58.8229 
54.1493 63.6244 56.5955 43.666 49.1222 65.5274 66.2751 72.22 54.6033 
44.597 47.3073 34.3754 42.634 46.1312 56.4559 85.9059 88.7501 72.9716 
80.5713 103.221 86.6741 97.602 76.9566 74.0515 76.0987 80.2195 92.2574 
85.9843 59.6439 70.6265 72.7204 74.2541 81.4294 104.963 96.8551 96.8618 
67.591 81.1334 83.8018 81.5421 77.7619 77.2967 63.3917 73.4875 90.0715 
64.2626 55.6526 40.1051 29.1411 30.1125 18.1867 28.5254 9.15247 75.2457 
82.4974 74.791 75.7274 60.7923 33.329 53.0624 58.0997 63.2836 81.2299 
65.2884 69.2559 89.0202 88.1892 91.6427 83.3657 74.9926 57.3819 63.9117 
51.6947 49.4642 57.5664 49.4047 58.1497 57.3351 61.6401 69.304 63.777 
54.8023 55.9707 49.4235 42.2244 44.3716 45.7069 44.1224 44.1224 67.8938 
67.8938 100.041 98.3329 93.6945 83.6466 92.5606 89.2164 93.0457 84.2356 
81.5143 72.4731 76.2706 83.4623 101.555 96.8312 99.8805 97.9166 80.4188 
88.0608 90.7674 97.8157 109.084 116.76 108.685 52.6199 92.4745 93.7667 
79.1488 84.313 94.8627 33.2224 55.5609 60.1286 60.1286 67.4116 52.4336 
69.6917 58.7292 75.9742 58.9 68.3197 58.9648 54.6019 59.5991 12.6543 
39.9894 72.4188 79.4679 73.6677 72.4408 80.985 60.2176 72.7518 69.2162 
56.492 57.5872 47.6042 51.0747 52.5058 49.6189 55.8112 55.8112 54.2864 
58.7868 45.5873 53.7194 63.7873 80.7108 
FIELD FieldData 7
DY_minmax 1 230 double
0.103288 0.0629381 0.383746 0.641968 0.410316 0.0289386 0.186731 0.98893 0.697202 
0.186203 0.412009 0.130919 0.844297 0.687647 0.714278 0.455591 0.723089 0.877727 
0.710412 0.702444 0.613917 0.700417 0.700417 0.629542 0.686833 0.790904 0.692848 
0.563751 0.449158 0.527056 0.601034 0.565108 0.490767 0.667235 0.551613 0.491242 
0.59369 0.59369 0.753431 0.848405 0.731825 0.878221 0.913828 0.966299 0.762389 
0.923538 0.808905 0.816848 0.835612 0.760227 0.659072 0.659072 0.776801 0.820234 
0.86623 0.719844 0.574757 0.846328 0.707743 0.707743 0.665122 0.429704 0.551187 
0.415779 0.301771 0.301771 0.195643 0.286165 0.286165 0.379117 0.379117 0.461589 
0.418157 0.50621 0.44089 0.320736 0.37144 0.523894 0.530843 0.586088 0.422376 
0.329388 0.354574 0.234397 0.311145 0.343644 0.439592 0.713272 0.739704 0.593074 
0.663698 0.874184 0.720411 0.821965 0.630107 0.603109 0.622134 0.660429 0.772297 
0.714001 0.469218 0.571281 0.590739 0.604991 0.671672 0.890368 0.815024 0.815086 
0.543071 0.668921 0.693719 0.67272 0.63759 0.633267 0.504047 0.597867 0.751984 
0.51214 0.432127 0.287643 0.185755 0.194782 0.0839558 0.180033 0 0.614206 
0.681597 0.609981 0.618683 0.47989 0.224674 0.408057 0.454868 0.503043 0.669818 
0.521673 0.558544 0.742214 0.734491 0.766585 0.689666 0.611854 0.448198 0.508879 
0.395346 0.374619 0.449913 0.374066 0.455333 0.447763 0.48777 0.55899 0.507627 
0.424225 0.435083 0.37424 0.307339 0.327293 0.339702 0.324977 0.324977 0.545885 
0.545885 0.844629 0.828757 0.785652 0.692277 0.775114 0.744037 0.779623 0.69775 
0.672461 0.588441 0.623731 0.690564 0.858699 0.814802 0.843138 0.824888 0.66228 
0.733298 0.75845 0.82395 0.928665 1 0.924959 0.403944 0.774315 0.786323 
0.650478 0.69847 0.796508 0.223683 0.431275 0.473723 0.473723 0.541404 0.402213 
0.562593 0.460718 0.620976 0.462305 0.549843 0.462908 0.422363 0.468802 0.0325425 
0.286569 0.587936 0.653444 0.599542 0.58814 0.667542 0.47455 0.591031 0.558175 
0.439927 0.450106 0.357333 0.389584 0.402884 0.376056 0.433601 0.433601 0.419431 
0.461253 0.33859 0.414162 0.507723 0.664994 
WidthEq 1 230 double
1 1.91377 2.53253 1.65962 1.67744 2.0843 1.52215 1.34558 3.57601 
1.70634 1.87626 2.3346 4.23595 3.31644 3.42801 3.68815 3.79886 3.86088 
4.51677 4.72013 4.70796 4.0997 4.0997 3.38051 3.14669 3.06788 3.33154 
3.71585 3.86216 3.65152 3.24967 2.99157 2.87765 2.00337 2.15774 2.04192 
2.10969 2.10969 2.04558 2.11003 2.34098 2.10753 1.95146 2.07893 1.9268 
1.93286 1.92405 2.05579 2.01237 2.14281 2.13075 2.13075 1.9927 1.78407 
1.51152 1.80847 1.93234 1.74836 1.96208 1.96208 1.92602 1.75038 1.60955 
1.63985 1.89781 1.89781 2.22933 2.47927 2.47927 2.763 2.763 2.80039 
2.78502 2.71385 2.72295 2.59966 2.67286 2.58651 2.57543 2.56753 2.79721 
2.80797 3.04154 3.26533 3.22365 3.21013 2.41369 3.70891 3.57934 3.7114 
3.66069 2.88823 2.61101 2.7784 2.79595 2.78302 2.7866 2.37158 2.54947 
2.5352 2.62587 2.76252 2.77566 2.65651 2.6145 2.21876 2.08762 2.14158 
2.34598 2.49302 2.46363 2.45146 2.40204 2.31105 2.22027 1.92437 1.80553 
1.74856 1.64497 1.68475 1.84094 1.74934 1.83084 2.00898 1.97182 3.79672 
3.88069 3.93947 3.5259 3.07435 2.51664 2.39222 3.60513 4.07715 3.69281 
4.22199 4.09693 3.58005 3.29198 3.15526 3.38481 2.87878 2.91986 2.95638 
2.92384 2.85271 2.88913 2.80089 2.6672 2.58423 2.70355 2.64872 2.96497 
3.22609 3.1541 2.77028 2.34739 2.27864 1.84058 1.70473 1.70473 1.59392 
1.59392 1.46667 1.46448 1.47284 1.58437 4.12592 4.22329 4.19984 4.01964 
3.89916 3.91162 3.90723 3.81917 3.50221 3.41281 3.14163 2.92031 3.2732 
2.9812 2.82433 2.67592 2.07746 2.02558 1.48343 1.00223 3.35992 2.91145 
2.77739 2.44881 2.35126 1.50371 1.85773 1.83352 1.83352 1.67563 1.58175 
1.3753 1.31684 1.31199 1.3536 1.47684 1.59327 1.50264 1.56558 2.07416 
2.46257 3.02818 2.86502 3.2634 3.24178 3.08967 3.11166 2.86463 2.94276 
3.05755 2.69134 1.65063 1.6908 1.67728 1.71924 1.75157 1.75157 1.84774 
1.84067 1.77587 1.65614 1.64871 1.63927 
rRFP 1 230 double
2974.43 3655.78 4117.15 3466.27 3479.56 3782.93 3363.77 3232.11 4895.22 
3501.11 3627.81 3969.57 5387.3 4701.67 4784.86 4978.83 5061.38 5107.63 
5596.69 5748.32 5739.25 5285.7 5285.7 4749.44 4575.1 4516.33 4712.93 
4999.49 5108.58 4951.52 4651.88 4459.43 4374.49 3722.59 3837.69 3751.33 
3801.86 3801.86 3754.06 3802.12 3974.32 3800.25 3683.88 3778.93 3665.49 
3670.01 3663.44 3761.67 3729.3 3826.56 3817.57 3817.57 3714.63 3559.07 
3355.84 3577.26 3669.62 3532.44 3691.8 3691.8 3664.91 3533.95 3428.94 
3451.53 3643.88 3643.88 3891.07 4077.44 4077.44 4289 4289 4316.88 
4305.42 4252.35 4259.14 4167.21 4221.79 4157.4 4149.14 4143.25 4314.51 
4322.53 4496.69 4663.56 4632.48 4622.4 4028.54 4994.31 4897.7 4996.17 
4958.36 4382.38 4175.67 4300.48 4313.57 4303.93 4306.6 3997.14 4129.78 
4119.14 4186.75 4288.64 4298.44 4209.6 4178.27 3883.19 3785.41 3825.64 
3978.05 4087.69 4065.78 4056.7 4019.85 3952.01 3884.32 3663.68 3575.07 
3532.59 3455.35 3485.01 3601.47 3533.17 3593.94 3726.77 3699.06 5059.79 
5122.4 5166.23 4857.85 4521.16 4105.3 4012.53 4916.93 5268.89 4982.31 
5376.89 5283.64 4898.23 4683.43 4581.49 4752.65 4375.33 4405.96 4433.19 
4408.93 4355.89 4383.05 4317.25 4217.57 4155.7 4244.67 4203.79 4439.6 
4634.3 4580.62 4294.43 3979.1 3927.84 3601.2 3499.91 3499.91 3417.28 
3417.28 3322.4 3320.77 3327 3410.16 5305.25 5377.86 5360.37 5226.01 
5136.17 5145.46 5142.19 5076.53 4840.19 4773.53 4571.32 4406.3 4669.43 
4451.7 4334.73 4224.07 3777.83 3739.15 3334.9 2976.09 4734.09 4399.69 
4299.73 4054.73 3981.99 3350.02 3613.99 3595.94 3595.94 3478.21 3408.21 
3254.27 3210.68 3207.06 3238.09 3329.98 3416.8 3349.22 3396.15 3775.37 
4064.99 4486.73 4365.07 4662.12 4646 4532.58 4548.98 4364.78 4423.04 
4508.63 4235.57 3459.57 3489.52 3479.44 3510.73 3534.83 3534.83 3606.54 
3601.27 3552.95 3463.68 3458.14 3451.1 
rGFP 1 230 double
2493.16 2503.37 2600.65 2602.73 2562.31 2498.46 2517.41 2628.4 2773.91 
2522.7 2573.25 2527.15 2896.51 2748.65 2767.75 2687.46 2803.25 2872.89 
2859.52 2872.88 2827 2819.41 2819.41 2732.84 2734.26 2762.07 2751.77 
2732.32 2694.91 2713.41 2712.81 2682.19 2651.2 2635.07 2620.72 2599.52 
2626.98 2626.98 2657.46 2684.84 2678.67 2691.35 2682.65 2708.09 2648.6 
2682.67 2657.98 2672.41 2672.26 2667.8 2643.51 2643.51 2657.7 2646.69 
2627.62 2629.53 2610.09 2648.12 2640.28 2640.28 2628.37 2569.85 2583.09 
2561.27 2551.89 2551.89 2540.23 2571.93 2571.93 2610.9 2610.9 2637.62 
2623.7 2645.56 2627 2586.41 2604.19 2642.38 2643.58 2658.32 2625.63 
2598.12 2616.78 2585.14 2610.33 2620.98 2609.16 2791.51 2790.56 2743.72 
2767.84 2771.02 2699.2 2744.07 2688.06 2678.98 2684.95 2663.14 2708.1 
2690.88 2629.51 2668 2674.74 2670.15 2685.79 2705.78 2675.09 2680.33 
2631.46 2675.16 2679.35 2672.79 2659.68 2651.53 2613.64 2614.31 2635.52 
2585.26 2564.44 2540.46 2526.54 2525.57 2506.19 2530.2 2490.94 2758.58 
2793.04 2767.53 2739.9 2659.79 2556.77 2599.83 2682.35 2730.91 2772.86 
2748.54 2756.63 2791.59 2763.21 2762.05 2755.07 2688.78 2640.44 2661.84 
2624.04 2614 2639.21 2611.27 2627.99 2621.06 2639.54 2656.46 2661.99 
2649.69 2649.43 2609.81 2572.01 2574 2557.02 2548.11 2548.11 2581.11 
2581.11 2619.62 2616.9 2610.89 2605.42 2854.79 2849.68 2863.67 2811.49 
2790.73 2756.38 2770.9 2791.65 2828.56 2803.36 2786.68 2758.84 2736.12 
2735.42 2729.25 2734.64 2699.51 2709.4 2634.12 2525.63 2783.6 2745.89 
2692.72 2679.36 2695.94 2522.85 2576.11 2583.14 2583.14 2585.85 2555.83 
2568.74 2550.23 2572.57 2552.62 2573.79 2566.84 2554.94 2566.2 2499.14 
2571.37 2692.19 2700.57 2713.3 2707.73 2723.11 2660.27 2681.3 2676.58 
2645.62 2627.88 2551.47 2559.25 2560.96 2558.2 2570.65 2570.65 2573.2 
2581.1 2553.85 2561.86 2578.06 2605.2 
bkstRFP 1 230 double
745.644 1426.99 1888.36 1237.48 1250.77 1554.14 1134.98 1003.32 2666.43 
1272.32 1399.02 1740.78 3158.51 2472.88 2556.07 2750.04 2832.59 2878.84 
3367.9 3519.53 3510.46 3056.91 3056.91 2520.65 2346.31 2287.54 2484.14 
2770.7 2879.79 2722.73 2423.09 2230.64 2145.7 1493.8 1608.9 1522.54 
1573.07 1573.07 1525.27 1573.33 1745.53 1571.46 1455.09 1550.14 1436.7 
1441.22 1434.65 1532.88 1500.51 1597.77 1588.78 1588.78 1485.84 1330.28 
1127.05 1348.47 1440.83 1303.65 1463.01 1463.01 1436.12 1305.16 1200.15 
1222.74 1415.09 1415.09 1662.28 1848.65 1848.65 2060.21 2060.21 2088.09 
2076.63 2023.56 2030.35 1938.42 1993 1928.61 1920.35 1914.46 2085.72 
2093.74 2267.9 2434.77 2403.69 2393.61 1799.75 2765.52 2668.91 2767.38 
2729.57 2153.59 1946.88 2071.69 2084.78 2075.14 2077.81 1768.35 1900.99 
1890.35 1957.96 2059.85 2069.65 1980.81 1949.48 1654.4 1556.62 1596.85 
1749.26 1858.9 1836.99 1827.91 1791.06 1723.22 1655.53 1434.89 1346.28 
1303.8 1226.56 1256.22 1372.68 1304.38 1365.15 1497.98 1470.27 2831 
2893.61 2937.44 2629.06 2292.37 1876.51 1783.74 2688.14 3040.1 2753.52 
3148.1 3054.85 2669.44 2454.64 2352.7 2523.86 2146.54 2177.17 2204.4 
2180.14 2127.1 2154.26 2088.46 1988.78 1926.91 2015.88 1975 2210.81 
2405.51 2351.83 2065.64 1750.31 1699.05 1372.41 1271.12 1271.12 1188.49 
1188.49 1093.61 1091.98 1098.21 1181.37 3076.46 3149.07 3131.58 2997.22 
2907.38 2916.67 2913.4 2847.74 2611.4 2544.74 2342.53 2177.51 2440.64 
2222.91 2105.94 1995.28 1549.04 1510.36 1106.11 747.304 2505.3 2170.9 
2070.94 1825.94 1753.2 1121.23 1385.2 1367.15 1367.15 1249.42 1179.42 
1025.48 981.894 978.274 1009.3 1101.19 1188.01 1120.43 1167.36 1546.58 
1836.2 2257.94 2136.28 2433.33 2417.21 2303.79 2320.19 2135.99 2194.25 
2279.84 2006.78 1230.78 1260.73 1250.65 1281.94 1306.04 1306.04 1377.75 
1372.48 1324.16 1234.89 1229.35 1222.31 
bkstGFP 1 230 double
20.267 30.477 127.757 129.837 89.417 25.567 44.517 155.507 301.017 
49.807 100.357 54.257 423.617 275.757 294.857 214.567 330.357 399.997 
386.627 399.987 354.107 346.517 346.517 259.947 261.367 289.177 278.877 
259.427 222.017 240.517 239.917 209.297 178.307 162.177 147.827 126.627 
154.087 154.087 184.567 211.947 205.777 218.457 209.757 235.197 175.707 
209.777 185.087 199.517 199.367 194.907 170.617 170.617 184.807 173.797 
154.727 156.637 137.197 175.227 167.387 167.387 155.477 96.957 110.197 
88.377 78.997 78.997 67.337 99.037 99.037 138.007 138.007 164.727 
150.807 172.667 154.107 113.517 131.297 169.487 170.687 185.427 152.737 
125.227 143.887 112.247 137.437 148.087 136.267 318.617 317.667 270.827 
294.947 298.127 226.307 271.177 215.167 206.087 212.057 190.247 235.207 
217.987 156.617 195.107 201.847 197.257 212.897 232.887 202.197 207.437 
158.567 202.267 206.457 199.897 186.787 178.637 140.747 141.417 162.627 
112.367 91.547 67.567 53.647 52.677 33.297 57.307 18.047 285.687 
320.147 294.637 267.007 186.897 83.877 126.937 209.457 258.017 299.967 
275.647 283.737 318.697 290.317 289.157 282.177 215.887 167.547 188.947 
151.147 141.107 166.317 138.377 155.097 148.167 166.647 183.567 189.097 
176.797 176.537 136.917 99.117 101.107 84.127 75.217 75.217 108.217 
108.217 146.727 144.007 137.997 132.527 381.897 376.787 390.777 338.597 
317.837 283.487 298.007 318.757 355.667 330.467 313.787 285.947 263.227 
262.527 256.357 261.747 226.617 236.507 161.227 52.737 310.707 272.997 
219.827 206.467 223.047 49.957 103.217 110.247 110.247 112.957 82.937 
95.847 77.337 99.677 79.727 100.897 93.947 82.047 93.307 26.247 
98.477 219.297 227.677 240.407 234.837 250.217 187.377 208.407 203.687 
172.727 154.987 78.577 86.357 88.067 85.307 97.757 97.757 100.307 
108.207 80.957 88.967 105.167 132.307 
tubeWidth 1 230 double
0.0965726 0.278454 0.281927 0.167322 0.232475 0.146495 0.143986 0.213379 0.162628 
0.19842 0.233547 0.141845 0.207837 0.209737 0.222963 0.168753 0.230692 0.207667 
0.267791 0.280674 0.278358 0.299192 0.28613 0.150202 0.18939 0.201082 0.215275 
0.251057 0.258524 0.296144 0.256407 0.252145 0.259196 0.176453 0.150902 0.151151 
0.16007 0.208876 0.221269 0.215924 0.198431 0.157812 0.14413 0.141785 0.142144 
0.125541 0.122522 0.130147 0.114707 0.137398 0.177128 0.204368 0.171563 0.140876 
0.0858167 0.106888 0.138271 0.193132 0.208143 0.226208 0.205998 0.200282 0.195775 
0.188056 0.186488 0.209312 0.219206 0.219404 0.213875 0.206401 0.218572 0.221986 
0.201306 0.21165 0.241431 0.249122 0.270816 0.273001 0.239452 0.244731 0.225604 
0.207959 0.244367 0.245675 0.270437 0.322407 0.311379 0.138634 0.203705 0.240799 
0.203749 0.232054 0.232607 0.237679 0.243728 0.266906 0.255617 0.225608 0.240577 
0.247014 0.251005 0.252874 0.271001 0.235526 0.26302 0.231176 0.222038 0.192554 
0.219335 0.245842 0.263433 0.251062 0.236477 0.234784 0.237539 0.235828 0.209352 
0.173313 0.19581 0.215291 0.213108 0.211611 0.233396 0.257553 0.28542 0.278851 
0.241089 0.232611 0.233577 0.24163 0.210311 0.278752 0.287864 0.259034 0.262987 
0.268755 0.259365 0.228098 0.186797 0.157333 0.140329 0.151728 0.18596 0.21995 
0.195094 0.174506 0.236666 0.247423 0.219642 0.251554 0.234506 0.204634 0.262046 
0.288943 0.255272 0.231886 0.226173 0.171377 0.20504 0.20734 0.205737 0.203948 
0.198054 0.20826 0.212394 0.199353 0.174529 0.262219 0.25013 0.248933 0.233918 
0.226362 0.231235 0.225938 0.206118 0.249951 0.209196 0.160026 0.212123 0.231467 
0.248171 0.271366 0.222052 0.1918 0.18028 0.174195 0.20159 0.203591 0.167087 
0.174947 0.228119 0.226872 0.238574 0.267729 0.252714 0.235251 0.22144 0.224153 
0.213004 0.238549 0.19207 0.173785 0.196422 0.201316 0.209814 0.22309 0.24383 
0.263566 0.266558 0.25782 0.258046 0.269267 0.271765 0.269198 0.264907 0.270214 
0.272121 0.265043 0.137172 0.144926 0.173629 0.175482 0.155135 0.181988 0.186157 
0.19033 0.171659 0.114759 0.0628992 0.122926 
