# vtk DataFile Version 3.0
vtk output
ASCII
DATASET POLYDATA
POINTS 406 float
2.97187 0.787568 1.62073 3.07618 0.737131 1.42407 3.48762 0.171644 1.04214 
0.167082 -1.20105 0.521166 -0.283819 -0.693554 0.400724 1.11865 -1.73751 0.403358 
-0.0180957 -1.31006 0.367572 0.135712 -1.38443 0.172539 3.94358 1.17301 0.0409459 
0.390117 -1.62962 -0.0176137 -0.381066 -0.951281 -0.0468935 6.32462 0.0217424 -0.0808869 
-0.918564 -0.813576 -0.263072 5.96276 -0.108755 -0.288933 3.81774 -1.14872 -0.532765 
-0.806618 -0.908435 -0.725743 5.45503 0.442204 -0.909817 4.35175 -0.164726 -1.06478 
5.65833 0.343904 -1.10322 5.25211 0.336681 -1.24734 4.77871 -0.0860714 -1.12112 
4.07684 -0.5409 -1.33404 4.26355 0.224113 -1.33892 5.08149 0.134079 -1.51606 
5.12938 0.23311 -1.51606 4.93623 -0.040052 -1.51769 3.94635 0.438571 -1.55022 
3.60858 0.703716 -1.62933 3.75002 0.187312 -1.7523 8.60278 0.569693 -1.82805 
5.1174 -0.412748 -1.97494 3.45693 0.57339 -2.03187 3.40935 0.942589 -1.97119 
2.68766 1.597 -1.99885 2.36676 1.69107 -2.00861 0.698456 1.39807 -2.04927 
3.32299 0.699246 -2.30383 -0.652812 -0.51133 -2.37686 8.56494 -0.470935 -2.34921 
8.73063 -0.469593 -2.41152 8.50036 -0.276802 -2.48683 5.23105 0.122858 -2.51237 
-0.487482 -0.716552 -2.65389 2.06254 0.249776 -2.7985 8.12502 -0.360047 -2.82924 
2.31211 0.37347 -2.99353 1.8715 0.219964 -3.00329 1.93791 0.233547 -2.96464 
1.9977 0.23543 -2.89638 2.37695 0.387817 -2.89565 2.43673 0.3897 -2.82738 
2.50335 0.403188 -2.79614 2.57055 0.416389 -2.78711 2.63211 0.417414 -2.78548 
2.69952 0.43052 -2.78386 2.76682 0.443675 -2.78223 2.82659 0.445677 -2.78067 
2.88236 0.466561 -2.77945 2.91967 0.507468 -2.77157 2.95709 0.550348 -2.74148 
3.01454 0.583661 -2.67369 3.07279 0.616465 -2.57622 3.11835 0.653419 -2.47667 
3.17474 0.674761 -2.39887 3.23938 0.679536 -2.34534 8.17535 -0.381994 -2.82761 
8.22899 -0.392422 -2.81864 8.28497 -0.373873 -2.79021 8.33297 -0.3375 -2.72518 
8.40318 -0.30535 -2.61997 -0.56572 -0.566525 -2.50228 -0.517845 -0.641612 -2.58896 
5.25378 0.0507757 -2.47378 5.26792 -0.0171504 -2.4503 5.26716 -0.077879 -2.44212 
5.27116 -0.140905 -2.44121 5.26838 -0.200651 -2.42569 5.26906 -0.262151 -2.37548 
5.25021 -0.315639 -2.27401 5.20362 -0.364464 -2.13382 8.51241 -0.192659 -2.42584 
8.54092 -0.135089 -2.35912 8.58511 -0.0938536 -2.29672 8.60613 -0.042848 -2.2573 
8.59498 0.0236369 -2.25845 8.57399 0.0948789 -2.28957 8.5618 0.161866 -2.3204 
8.57123 0.218395 -2.31347 8.58122 0.274657 -2.26205 8.57853 0.337048 -2.18141 
8.58948 0.392847 -2.10031 8.60768 0.445139 -2.01899 8.61668 0.501877 -1.93055 
8.53265 -0.373869 -2.41802 8.66151 -0.459723 -2.38137 3.34544 0.778362 -2.26227 
3.36747 0.839065 -2.19576 3.3887 0.891404 -2.0946 8.51816 -0.538285 -2.35948 
8.48529 -0.593746 -2.3967 8.45095 -0.639746 -2.45877 8.40229 -0.677389 -2.51393 
8.35759 -0.716864 -2.54425 8.3059 -0.752966 -2.55257 8.25867 -0.79122 -2.55334 
8.1979 -0.822927 -2.55455 8.13877 -0.85543 -2.55571 8.10206 -0.898771 -2.54871 
8.07395 -0.946273 -2.52662 8.0381 -0.99003 -2.48996 7.98698 -1.0264 -2.4538 
7.93895 -1.06427 -2.42495 7.87555 -1.09471 -2.3966 7.80276 -1.12061 -2.35375 
7.72978 -1.14641 -2.30348 7.66579 -1.17657 -2.25292 7.61728 -1.2142 -2.20927 
7.56397 -1.24939 -2.15836 7.51609 -1.28519 -2.10729 7.45729 -1.30461 -2.05674 
7.3962 -1.30609 -2.01389 7.32672 -1.32022 -1.96368 7.25363 -1.34156 -1.91347 
7.18514 -1.35391 -1.87068 7.12893 -1.34236 -1.85009 7.07751 -1.3219 -1.84431 
7.02273 -1.3089 -1.84594 6.96061 -1.31109 -1.84757 6.90058 -1.30844 -1.84179 
6.83871 -1.30859 -1.8212 6.78794 -1.28427 -1.77841 6.74717 -1.23879 -1.7282 
6.69629 -1.21419 -1.678 6.63552 -1.21057 -1.6352 6.58469 -1.18588 -1.585 
6.54475 -1.13865 -1.53479 6.49917 -1.10361 -1.492 6.44909 -1.07939 -1.47141 
6.39426 -1.066 -1.46563 6.33293 -1.06653 -1.46726 6.27721 -1.05499 -1.46148 
6.22109 -1.04325 -1.4409 6.15853 -1.0433 -1.3981 6.10163 -1.03118 -1.34789 
6.04492 -1.01916 -1.3051 5.983 -1.01941 -1.28452 5.92812 -1.00611 -1.27874 
5.87778 -0.98392 -1.28036 5.82824 -0.960088 -1.28199 5.7787 -0.936256 -1.28362 
5.72837 -0.914062 -1.28524 5.67349 -0.900767 -1.27946 5.61161 -0.90093 -1.25888 
5.5559 -0.887352 -1.22348 5.50393 -0.866514 -1.19549 5.44925 -0.853324 -1.19712 
5.3896 -0.852398 -1.22836 5.34109 -0.828944 -1.26701 5.30333 -0.78277 -1.29826 
5.26001 -0.748575 -1.33691 5.21402 -0.721928 -1.40516 5.17351 -0.686713 -1.51045 
5.14683 -0.628192 -1.63296 5.13402 -0.562417 -1.75518 5.13369 -0.496157 -1.8672 
-0.744259 -0.523506 -2.24822 -0.793106 -0.567222 -2.13039 -0.811777 -0.620753 -2.05361 
-0.811707 -0.681967 -1.98119 -0.816455 -0.740763 -1.89905 -0.819193 -0.800532 -1.77978 
-0.846842 -0.848132 -1.63169 -0.895451 -0.883299 -1.44973 -0.915235 -0.916287 -1.2374 
-0.880437 -0.928102 -0.991762 3.38155 0.618916 -2.16785 0.756695 1.38769 -2.11429 
0.825675 1.40003 -2.17189 0.899406 1.42321 -2.21469 0.973385 1.44841 -2.23527 
1.04697 1.4738 -2.24105 1.11957 1.49765 -2.23942 1.18781 1.5125 -2.2378 
1.24946 1.5137 -2.23617 1.31771 1.52856 -2.23454 1.39025 1.55231 -2.23292 
1.4628 1.57605 -2.23129 1.53085 1.591 -2.22226 1.59191 1.59249 -2.19842 
1.65912 1.60772 -2.15977 1.72989 1.63031 -2.12113 1.79765 1.64516 -2.10469 
1.85845 1.64462 -2.10306 1.92171 1.64865 -2.10884 1.98212 1.64831 -2.0924 
2.04973 1.66335 -2.06857 2.12154 1.68758 -2.03732 2.19444 1.71306 -2.02089 
2.2659 1.73506 -2.01186 2.32727 1.7357 -2.01023 2.73715 1.57307 -1.99722 
2.78685 1.54904 -2.003 2.83669 1.52482 -2.01618 2.88598 1.49896 -2.03676 
2.93127 1.46584 -2.04254 2.97314 1.42663 -2.03351 3.02344 1.40588 -2.00967 
3.06506 1.36667 -1.99324 3.10912 1.332 -1.98421 3.15258 1.29559 -1.98258 
3.1894 1.24546 -1.98095 3.22847 1.19996 -1.97933 3.26449 1.14818 -1.9777 
3.30351 1.10258 -1.97607 3.33949 1.0507 -1.97445 3.37772 1.00346 -1.97282 
3.46712 0.940313 -1.90292 3.50389 0.894333 -1.83714 3.53502 0.835209 -1.77132 
3.57286 0.781123 -1.70291 3.52225 0.643632 -1.82847 3.49468 0.495002 -2.03479 
3.53382 0.440046 -2.01822 3.56387 0.377031 -1.97708 3.58941 0.308009 -1.90635 
3.62084 0.248108 -1.83804 3.67319 0.212406 -1.78431 5.06016 -0.338411 -1.8786 
5.02192 -0.263958 -1.79165 4.99261 -0.189451 -1.70941 4.96455 -0.114834 -1.61972 
3.79678 0.254674 -1.74451 3.8284 0.31074 -1.72216 3.8542 0.360869 -1.67766 
3.8891 0.405163 -1.61801 3.78166 0.0966039 -1.75029 3.81019 0.0187382 -1.74853 
3.8413 -0.0447859 -1.74688 3.8795 -0.0921689 -1.74525 3.91543 -0.144153 -1.74363 
3.95331 -0.19134 -1.7346 3.98177 -0.25283 -1.71082 3.99625 -0.31878 -1.66512 
3.99596 -0.379483 -1.60506 4.0097 -0.444953 -1.52974 4.03718 -0.503938 -1.43932 
3.68647 0.680484 -1.60226 3.74628 0.656692 -1.60036 3.79818 0.632246 -1.63324 
3.84798 0.605935 -1.67357 3.89179 0.569245 -1.68675 3.92223 0.508938 -1.6407 
4.01352 0.451683 -1.54119 4.07359 0.451148 -1.51735 4.13369 0.45216 -1.4713 
4.18096 0.427159 -1.41784 4.21225 0.36859 -1.37179 4.23814 0.297365 -1.34796 
4.92544 0.0262603 -1.45954 4.94869 0.0761098 -1.42992 5.00832 0.10837 -1.45098 
4.85747 -0.0630615 -1.3194 5.12651 0.173405 -1.52278 5.17339 0.284693 -1.37969 
5.08436 0.193785 -1.50934 4.32478 0.235545 -1.17441 4.37172 0.214882 -1.0469 
4.40736 0.167582 -0.971244 4.44301 0.121711 -0.94006 4.46104 0.0652638 -0.93144 
4.45057 0.0112977 -0.935966 4.42784 -0.040189 -0.955667 4.39699 -0.0966288 -1.00023 
4.25374 0.16776 -1.39774 4.25708 0.105053 -1.4339 4.25626 0.0444051 -1.42326 
4.27066 -0.0228967 -1.35284 4.30145 -0.0937524 -1.22513 4.0872 -0.606999 -1.30327 
4.07445 -0.661925 -1.25844 4.04922 -0.710821 -1.2066 4.01328 -0.754531 -1.15513 
3.96378 -0.791691 -1.11151 3.92754 -0.835258 -1.05262 3.89997 -0.883023 -0.978631 
3.87512 -0.932095 -0.882329 3.85934 -0.985558 -0.785719 3.8572 -1.04562 -0.68867 
3.84182 -1.09927 -0.606863 4.14844 -0.514428 -1.33248 4.21096 -0.483562 -1.32379 
4.25924 -0.445816 -1.30076 4.31719 -0.412742 -1.25519 4.36403 -0.374256 -1.20008 
4.37248 -0.316493 -1.14626 4.37172 -0.249915 -1.10268 5.22147 0.427019 -1.28143 
5.1962 0.505461 -1.30535 5.18316 0.57361 -1.31646 5.19449 0.629269 -1.31193 
5.2176 0.679067 -1.28231 5.25109 0.721575 -1.20786 5.30185 0.740355 -1.08818 
5.34576 0.719123 -0.945937 5.37522 0.661559 -0.833253 5.40052 0.59062 -0.787195 
5.42711 0.516796 -0.822592 5.31445 0.382061 -1.05606 5.38278 0.415245 -0.943508 
5.60706 0.368694 -1.03821 5.55599 0.393388 -0.980601 5.50531 0.417891 -0.937807 
-0.872834 -0.873231 -0.493287 -0.744575 -0.952863 -0.528363 -0.692678 -0.982976 -0.378387 
-0.643801 -1.0051 -0.285401 -0.589627 -1.01582 -0.229476 -0.523648 -1.00214 -0.176022 
-0.452679 -0.977625 -0.115161 5.99904 -0.0652037 -0.214425 6.0561 -0.0316997 -0.131811 
6.11475 0.000913377 -0.049153 6.16145 0.037155 0.00349692 6.21789 0.0554535 0.0121778 
6.27271 0.044453 -0.0232764 -0.356401 -1.02203 0.0213742 -0.32743 -1.08388 0.0896316 
-0.291629 -1.1321 0.150492 -0.261376 -1.19231 0.203946 -0.229888 -1.25096 0.242597 
-0.187366 -1.2868 0.281247 -0.138661 -1.31035 0.312491 -0.0839704 -1.32152 0.343735 
-0.39655 -0.882703 0.114842 -0.388466 -0.825464 0.244007 -0.36716 -0.773775 0.325425 
-0.335195 -0.724739 0.373816 0.339834 -1.60531 0.0103769 0.289402 -1.5808 0.045774 
0.23981 -1.55456 0.0811611 0.195604 -1.51768 0.109151 0.163186 -1.45642 0.137142 
3.96736 1.10043 0.109214 3.99104 1.02788 0.177468 4.01308 0.956136 0.245678 
4.02603 0.888782 0.31359 4.02351 0.828907 0.380983 4.02196 0.768567 0.455831 
3.99396 0.721134 0.544626 3.93275 0.691903 0.65453 3.86422 0.679576 0.771435 
3.80663 0.694059 0.880873 3.75922 0.727835 0.960691 3.71909 0.775163 1.0183 
3.66921 0.801313 1.06109 3.61169 0.812174 1.11129 3.56143 0.838033 1.1615 
3.49808 0.836329 1.2043 3.43093 0.825246 1.22488 3.36917 0.824326 1.23066 
3.30073 0.809568 1.23644 3.22734 0.786102 1.26443 3.15218 0.761476 1.32944 
0.153089 -1.30967 0.340633 0.0691905 -1.39319 0.207936 0.0179215 -1.36841 0.27294 
-0.222856 -0.704725 0.428423 -0.163361 -0.717919 0.448706 -0.116422 -0.747235 0.479977 
-0.0653969 -0.766353 0.507523 -0.0251206 -0.806831 0.546174 0.013754 -0.850209 0.584814 
0.0485962 -0.901423 0.630872 0.0860294 -0.94848 0.660257 0.116808 -1.01279 0.654502 
0.143222 -1.09605 0.602544 0.0654419 -1.26729 0.448911 1.06837 -1.7132 0.431349 
1.01765 -1.6888 0.474142 0.96598 -1.66584 0.524353 0.910954 -1.65033 0.567147 
0.854273 -1.63975 0.587731 0.811177 -1.60208 0.59351 0.766075 -1.56907 0.591884 
0.718218 -1.54175 0.590257 0.673961 -1.50699 0.58863 0.636255 -1.45868 0.587004 
0.592195 -1.42401 0.577971 0.544775 -1.3968 0.56154 0.50111 -1.36232 0.537703 
0.463597 -1.31412 0.52867 0.419099 -1.27935 0.53445 0.369795 -1.25346 0.553182 
0.318109 -1.23004 0.558907 0.25499 -1.21106 0.547717 3.43556 0.196815 1.13677 
3.38453 0.221608 1.19437 3.33549 0.247468 1.20755 3.29143 0.282134 1.19852 
3.25441 0.332368 1.2043 3.21539 0.379989 1.23229 3.18362 0.443082 1.26768 
3.15644 0.515173 1.29568 3.13005 0.588902 1.32367 3.10331 0.662921 1.36646 
3.03422 0.783188 1.5187 
LINES 46 499
4 46 47 48 43 
18 45 49 50 51 52 53 54 55 56 57 58 59 60 61 62 63 64 36 
7 44 65 66 67 68 69 40 
10 41 72 73 74 75 76 77 78 79 30 
15 40 80 81 82 83 84 85 86 87 88 89 90 91 92 29 
3 40 93 38 
3 38 94 39 
5 36 95 96 97 32 
69 38 98 99 100 101 102 103 104 105 106 107 108 109 110 111 112 113 114 115 116 117 118 119 120 121 122 123 124 125 126 127 128 129 130 131 132 133 134 135 136 137 138 139 140 141 142 143 144 145 146 147 148 149 150 151 152 153 154 155 156 157 158 159 160 161 162 163 164 30 
3 36 175 31 
26 35 176 177 178 179 180 181 182 183 184 185 186 187 188 189 190 191 192 193 194 195 196 197 198 199 34 
18 33 200 201 202 203 204 205 206 207 208 209 210 211 212 213 214 215 32 
6 32 216 217 218 219 27 
3 31 220 27 
8 31 221 222 223 224 225 226 28 
6 30 227 228 229 230 25 
6 28 231 232 233 234 26 
13 28 235 236 237 238 239 240 241 242 243 244 245 21 
8 27 246 247 248 249 250 251 26 
8 26 252 253 254 255 256 257 22 
5 25 258 259 260 23 
3 25 261 20 
3 24 262 23 
3 24 263 19 
3 24 264 23 
10 22 265 266 267 268 269 270 271 272 17 
7 22 273 274 275 276 277 17 
13 21 278 279 280 281 282 283 284 285 286 287 288 14 
9 21 289 290 291 292 293 294 295 17 
13 19 296 297 298 299 300 301 302 303 304 305 306 16 
4 19 307 308 16 
5 18 309 310 311 16 
3 15 312 12 
8 15 313 314 315 316 317 318 10 
8 13 319 320 321 322 323 324 11 
10 10 325 326 327 328 329 330 331 332 6 
7 9 337 338 339 340 341 7 
23 8 342 343 344 345 346 347 348 349 350 351 352 353 354 355 356 357 358 359 360 361 362 1 
3 7 363 3 
4 7 364 365 6 
3 6 376 3 
20 5 377 378 379 380 381 382 383 384 385 386 387 388 389 390 391 392 393 394 3 
12 2 395 396 397 398 399 400 401 402 403 404 1 
3 1 405 0 
15 42 71 70 37 165 166 167 168 169 170 171 172 173 174 15 
17 10 333 334 335 336 4 366 367 368 369 370 371 372 373 374 375 3 

POINT_DATA 406
SCALARS DY_raw double
LOOKUP_TABLE default
16.0437 44.1409 62.9183 55.9586 19.4918 62.2009 49.3051 32.4111 54.8875 
63.995 35.4164 287.08 53.211 126.827 179.571 56.0705 134.854 92.4895 
141.363 161.25 260.883 91.9513 89.4943 153.241 138.826 126.065 81.6419 
90.909 95.8717 104.975 101.934 84.1581 86.2513 77.1151 99.8573 171.932 
96.233 60.5802 183.503 190.543 154.288 64.1742 55.9537 198.781 224.052 
117.738 133.379 145.584 148.098 123.525 109.884 117.386 163.109 144.106 
194.794 153.45 136.982 120.086 99.2183 86.5232 108.833 113.193 108.246 
112.337 106.107 207.775 208.174 193.996 168.513 149.955 80.7003 63.5586 
73.4805 95.4448 107.226 119.105 121.587 117.687 114.223 107.723 160.16 
168.379 160.699 159.127 151.956 145.209 127.898 131.915 132.54 134.081 
113.543 99.6899 108.189 163.51 172.704 81.5265 84.1867 80.1315 200.805 
205.205 203.315 204.272 188.694 220.32 206.42 229.864 207.323 207.323 
200.524 206.16 239.345 198.209 158.795 175.457 182.692 181.442 170.486 
185.369 194.201 206.068 205.099 262.637 235.993 213.822 191.934 233.947 
178.64 151.445 175.098 144.133 155.921 176.389 183.19 184.933 213.183 
185.351 166.12 185.299 165.468 119.312 107.585 133.973 130.416 181.83 
196.523 203.062 204.074 204.074 196.571 196.571 190.448 178.716 178.716 
194.747 213.523 213.523 217.711 209.502 209.502 244.451 210.045 181.633 
155.986 150.164 131.301 54.2042 57.7857 62.5598 54.8568 42.6449 45.0277 
49.2674 44.2135 41.8683 46.0517 119.224 119.208 142.663 140.349 140.349 
169.812 193.947 166.956 128.647 142.624 154.475 127.861 110.287 127.087 
133.201 135.758 126.2 120.762 120.762 108.863 122.13 106.638 106.638 
107.629 99.8573 71.8493 68.0074 76.0701 71.0759 71.0759 70.6949 57.9025 
57.9025 68.4196 68.4196 69.1136 70.6402 70.6402 71.9415 58.3589 67.3581 
84.9663 91.9056 94.5595 94.0404 75.8552 88.5235 96.6622 108.403 96.3443 
93.2617 86.9436 108.34 131.019 123.08 128.845 94.3199 90.1456 81.8918 
72.3333 116.252 145.992 148.342 124.149 101.02 100.847 81.8377 81.0145 
79.1511 85.3408 92.6582 101.274 105.975 87.387 71.3936 59.8729 61.8522 
92.7531 78.9987 87.5886 74.7782 92.7116 96.3223 141.816 136.478 154.778 
194.818 138.826 136.067 119.76 97.6588 109.824 100.707 106.098 116.914 
129.077 114.048 110.234 97.5442 97.5442 88.9138 91.6878 82.8047 108.04 
111.638 146.723 151.784 153.351 109.767 101.597 118.313 103.773 122.009 
152.163 92.0839 96.8607 102.53 99.1535 97.3605 97.8519 97.6211 132.709 
142.635 145.971 137.227 137.227 140.171 137.034 125.993 116.828 113.836 
124.707 167.958 145.502 141.944 154.387 150.812 43.3951 54.1119 60.2934 
66.1131 54.2104 51.8643 53.0128 119.748 194.869 192.59 227.721 257.305 
268.482 47.461 58.211 67.8863 57.2092 54.7938 52.517 37.6355 44.8789 
30.1803 27.8461 25.6887 19.4918 56.833 41.4494 49.0563 38.7988 33.1931 
70.451 65.973 58.3364 71.3805 78.4449 70.3604 79.8589 90.1699 92.8878 
92.8442 102.78 94.9357 91.5819 91.5819 80.628 82.951 78.3124 75.4764 
79.115 64.6849 52.2507 53.7394 35.6556 37.1184 22.5706 31.2443 36.5866 
52.7784 56.0823 63.1279 37.7144 37.702 44.0509 52.0435 66.807 72.3634 
75.2981 63.4191 61.7644 68.9212 67.4612 67.0325 58.9783 58.9783 56.0498 
61.0335 38.7143 40.6338 48.1328 53.9509 55.8646 73.9719 62.7035 63.4861 
43.7283 43.7283 35.9597 35.9597 45.5171 50.091 48.5261 41.6104 40.162 
36.4352 
FIELD FieldData 7
DY_minmax 1 406 double
0 0.103666 0.172946 0.147268 0.0127221 0.170299 0.122719 0.0603881 0.143316 
0.176918 0.0714765 1 0.13713 0.408738 0.60334 0.147681 0.438357 0.28205 
0.462372 0.535745 0.903346 0.280064 0.270999 0.506197 0.453012 0.405927 0.242028 
0.276219 0.294529 0.328117 0.316894 0.251311 0.259034 0.225326 0.309234 0.575157 
0.295862 0.16432 0.617847 0.643821 0.510057 0.177579 0.14725 0.674217 0.767454 
0.375204 0.432915 0.477946 0.487219 0.396556 0.346229 0.373905 0.542605 0.472491 
0.659506 0.506966 0.446206 0.38387 0.306876 0.260037 0.34235 0.358438 0.340183 
0.35528 0.332291 0.707402 0.708872 0.656564 0.562543 0.494072 0.238553 0.175308 
0.211915 0.292954 0.336421 0.380249 0.389406 0.375017 0.362238 0.338254 0.531725 
0.562049 0.533713 0.527913 0.501455 0.476561 0.412692 0.427513 0.429819 0.435504 
0.359728 0.308616 0.339973 0.544083 0.578007 0.241602 0.251417 0.236455 0.681683 
0.697918 0.690946 0.694476 0.636999 0.753685 0.702401 0.788901 0.705732 0.705732 
0.680648 0.701442 0.823881 0.672106 0.526688 0.588163 0.614858 0.610245 0.569822 
0.624735 0.65732 0.701102 0.697527 0.909816 0.811514 0.729713 0.648955 0.803965 
0.599907 0.499569 0.586837 0.472591 0.516084 0.5916 0.616694 0.623125 0.727355 
0.624665 0.553713 0.624474 0.551306 0.381014 0.337745 0.435105 0.421982 0.611675 
0.665885 0.690013 0.693744 0.693744 0.666063 0.666063 0.643473 0.600187 0.600187 
0.659332 0.728608 0.728608 0.74406 0.713771 0.713771 0.842717 0.715774 0.610949 
0.516323 0.494843 0.425245 0.140795 0.154009 0.171623 0.143203 0.0981462 0.106938 
0.12258 0.103934 0.0952811 0.110716 0.380687 0.38063 0.467166 0.458628 0.458628 
0.567335 0.656383 0.556799 0.415453 0.467022 0.51075 0.412556 0.347714 0.409697 
0.432258 0.441691 0.406428 0.386364 0.386364 0.342462 0.391408 0.334253 0.334253 
0.337908 0.309234 0.205897 0.191722 0.22147 0.203044 0.203044 0.201638 0.15444 
0.15444 0.193243 0.193243 0.195804 0.201436 0.201436 0.206237 0.156124 0.189327 
0.254293 0.279896 0.289688 0.287772 0.220677 0.267417 0.297445 0.340765 0.296272 
0.284899 0.261588 0.340532 0.424208 0.394914 0.416184 0.288804 0.273402 0.24295 
0.207683 0.369722 0.47945 0.488121 0.39886 0.313523 0.312885 0.24275 0.239713 
0.232837 0.255675 0.282673 0.31446 0.331806 0.263224 0.204216 0.16171 0.169013 
0.283023 0.232275 0.263968 0.216703 0.28287 0.296191 0.464043 0.444348 0.511865 
0.659595 0.453012 0.442832 0.382665 0.301122 0.346007 0.31237 0.33226 0.372166 
0.417042 0.36159 0.347518 0.300699 0.300699 0.268857 0.279092 0.246318 0.339423 
0.352701 0.482147 0.500818 0.506603 0.345795 0.315653 0.377326 0.323683 0.390963 
0.502218 0.280554 0.298178 0.319096 0.306637 0.300022 0.301835 0.300983 0.430441 
0.467064 0.479373 0.447109 0.447109 0.457972 0.4464 0.405663 0.371848 0.36081 
0.400918 0.560494 0.477643 0.464516 0.510424 0.497233 0.100914 0.140454 0.163261 
0.184733 0.140818 0.132162 0.136399 0.38262 0.659783 0.651374 0.780994 0.890145 
0.931381 0.115916 0.155578 0.191276 0.151882 0.14297 0.13457 0.0796638 0.106389 
0.0521578 0.0435455 0.0355857 0.0127221 0.150494 0.0937353 0.121801 0.0839559 0.0632737 
0.200738 0.184216 0.156041 0.204167 0.230232 0.200404 0.235449 0.273492 0.283519 
0.283359 0.320018 0.291075 0.278702 0.278702 0.238287 0.246857 0.229743 0.219279 
0.232704 0.179464 0.133587 0.13908 0.072359 0.0777559 0.0240814 0.0560835 0.075794 
0.135534 0.147724 0.173719 0.0799552 0.0799091 0.103334 0.132823 0.187293 0.207794 
0.218622 0.174793 0.168688 0.195094 0.189707 0.188125 0.158409 0.158409 0.147604 
0.165992 0.0836441 0.0907265 0.118394 0.13986 0.146921 0.213729 0.172153 0.175041 
0.102144 0.102144 0.0734809 0.0734809 0.108743 0.125619 0.119845 0.0943297 0.0889856 
0.0752354 
WidthEq 1 406 double
1.26374 2.56554 2.49252 2.66385 2.04163 2.84795 2.94179 3.51994 3.70476 
1 2.54585 1.87451 2.55652 3.03426 1.99584 4.97971 3.2574 3.18571 
1.14665 3.03997 1.37868 3.052 2.61206 3.16798 3.28363 3.35134 2.3077 
2.78064 2.29635 3.6771 5.73163 3.53638 3.61728 2.84049 3.01315 1.47177 
4.14281 4.4725 2.62484 1.7749 3.60473 2.8665 1.58944 1.05606 2.07227 
1.92033 1.63545 1.46331 1.64631 1.74034 1.72559 1.81492 1.90758 2.08968 
2.04419 2.42167 2.68638 2.90262 3.13163 3.37303 3.27883 3.29644 3.42494 
3.48748 3.89113 2.30857 2.45413 2.90482 3.3063 3.5795 3.22446 2.45529 
3.88831 4.08231 4.00906 3.68796 3.5987 4.2203 5.02835 5.83075 3.36372 
3.16081 3.31175 3.54154 3.83864 3.93257 4.24498 4.27513 4.21709 4.1919 
4.18136 4.38515 4.17193 3.19641 2.32284 4.09677 3.83653 3.66754 2.57098 
2.82632 2.87256 2.73888 3.10326 2.71008 2.85813 2.59355 2.31159 2.31159 
2.15248 2.30799 2.13108 2.55698 2.9044 2.79815 2.72565 2.82285 2.82882 
2.66174 2.5584 2.43577 2.51949 2.2232 2.50056 2.89373 3.03935 2.59099 
2.82162 2.82013 2.4442 2.52319 2.5501 2.44667 2.7939 3.0056 2.79724 
3.23698 3.45344 3.18753 3.36178 3.54393 3.48846 3.18075 3.41978 3.03556 
2.8687 3.11247 2.94127 2.94127 2.67234 2.67234 2.68054 2.82204 2.82204 
2.76449 2.65918 2.65918 2.66631 2.6823 2.6823 2.42673 2.84766 3.1124 
3.84198 4.82602 5.65112 4.75452 4.26758 3.77982 3.64357 3.53677 4.26015 
4.16797 4.19611 4.20879 4.40016 3.48165 2.1233 2.26545 2.34826 2.34826 
2.1792 1.76061 1.79828 2.06562 2.02859 1.8525 2.20884 2.37893 2.3124 
2.25812 2.14798 2.13854 2.10881 2.10881 2.25783 2.25683 2.47261 2.47261 
2.74568 3.01315 3.28876 3.32942 3.69863 3.69711 3.69711 3.56469 3.28613 
3.28613 2.69082 2.69082 2.82817 3.3442 3.3442 3.53489 3.89152 3.89285 
3.33315 3.28756 3.1054 3.12456 3.23821 3.26055 2.7037 2.31953 2.39417 
2.31869 2.38701 5.02883 4.09119 3.80278 3.67648 2.29045 2.12473 2.01552 
2.24343 2.05816 1.77396 1.63052 1.50968 1.96293 1.83888 2.13465 2.51233 
2.76086 3.1185 3.21963 2.61978 2.43052 2.32638 2.3112 2.24668 2.39434 
2.22424 2.42631 2.37297 2.50147 2.43243 2.4457 3.2374 3.15754 3.26103 
2.31383 3.28363 3.44517 3.35801 2.50377 2.1259 2.22035 2.36606 2.41839 
2.44106 2.64929 2.75039 2.63424 2.63424 2.80311 2.90437 3.1744 2.91925 
2.87862 2.16704 1.92817 1.88531 2.05395 2.36635 2.39226 3.0543 2.94098 
2.7047 2.91468 2.73738 2.37193 2.54005 2.50004 2.66939 3.0078 3.67169 
3.5106 3.15497 3.0885 3.0885 3.15283 3.35993 3.21736 3.14774 3.24181 
3.1398 2.64319 2.91098 2.17025 2.23072 2.65645 4.68728 4.85244 4.19673 
3.40772 2.76598 2.66686 2.5989 3.42967 3.1017 3.26515 2.95991 2.62406 
2.36331 2.43389 2.33951 1.9118 1.87234 1.85979 1.7919 2.62027 2.84532 
2.54089 2.36425 2.11396 2.04163 1.86239 2.75022 2.78323 3.57782 3.9103 
4.33074 4.50859 4.51202 4.30237 3.87106 3.85281 3.82155 4.07858 4.10092 
3.99061 3.47241 3.44449 3.21412 3.21412 2.76225 2.64186 2.47183 2.43169 
2.50477 2.69993 2.53691 3.01241 3.88144 3.44802 2.07726 2.07317 2.0047 
1.7906 1.61272 1.62757 1.39058 1.48785 1.9272 2.43921 2.67195 2.66329 
2.90067 3.14661 3.22767 2.95968 2.88203 2.41801 2.3362 2.3362 2.0629 
2.03945 2.34862 2.42323 2.52063 2.51275 2.54553 2.3292 2.62912 3.13494 
3.3954 3.3954 2.94733 2.94733 2.80016 2.8555 2.89484 2.88858 2.66359 
1.72896 
rRFP 1 406 double
2624.57 3026.06 3003.54 3056.38 2864.48 3113.16 3142.1 3320.41 3377.41 
2543.23 3019.99 2812.94 3023.28 3170.62 2850.36 3770.62 3239.44 3217.33 
2588.46 3172.38 2660.02 3176.09 3040.41 3211.86 3247.53 3268.41 2946.54 
3092.4 2943.04 3368.88 4002.52 3325.48 3350.43 3110.86 3164.11 2688.73 
3512.51 3614.19 3044.35 2782.22 3346.56 3118.88 2725.02 2560.52 2873.93 
2827.07 2739.21 2686.12 2742.56 2771.56 2767.01 2794.56 2823.14 2879.3 
2865.27 2981.69 3063.33 3130.02 3200.65 3275.1 3246.05 3251.48 3291.11 
3310.4 3434.89 2946.81 2991.7 3130.7 3254.52 3338.78 3229.28 2992.06 
3434.02 3493.85 3471.26 3372.23 3344.7 3536.41 3785.62 4033.09 3272.23 
3209.65 3256.2 3327.07 3418.7 3447.67 3544.02 3553.32 3535.42 3527.65 
3524.4 3587.25 3521.49 3220.63 2951.21 3498.31 3418.05 3365.93 3027.74 
3106.49 3120.75 3079.52 3191.9 3070.64 3116.3 3034.7 2947.74 2947.74 
2898.67 2946.63 2892.07 3023.42 3130.57 3097.8 3075.44 3105.42 3107.26 
3055.73 3023.86 2986.04 3011.86 2920.48 3006.02 3127.28 3172.19 3033.91 
3105.04 3104.58 2988.64 3013 3021.3 2989.4 3096.49 3161.78 3097.52 
3233.14 3299.9 3217.89 3271.63 3327.81 3310.7 3215.8 3289.52 3171.02 
3119.56 3194.74 3141.94 3141.94 3059 3059 3061.53 3105.17 3105.17 
3087.42 3054.94 3054.94 3057.14 3062.07 3062.07 2983.25 3113.07 3194.72 
3419.73 3723.22 3977.69 3701.17 3550.99 3400.56 3358.54 3325.6 3548.7 
3520.27 3528.95 3532.86 3591.88 3308.6 2889.67 2933.51 2959.05 2959.05 
2906.91 2777.81 2789.43 2871.88 2860.46 2806.15 2916.05 2968.51 2947.99 
2931.25 2897.28 2894.37 2885.2 2885.2 2931.16 2930.85 2997.4 2997.4 
3081.62 3164.11 3249.11 3261.65 3375.52 3375.05 3375.05 3334.21 3248.3 
3248.3 3064.7 3064.7 3107.06 3266.21 3266.21 3325.02 3435.01 3435.42 
3262.8 3248.74 3192.56 3198.47 3233.52 3240.41 3068.67 2950.19 2973.21 
2949.93 2971 3785.77 3496.59 3407.64 3368.69 2941.22 2890.11 2856.43 
2926.72 2869.58 2781.93 2737.69 2700.42 2840.21 2801.95 2893.17 3009.65 
3086.3 3196.6 3227.79 3042.79 2984.42 2952.3 2947.62 2927.72 2973.26 
2920.8 2983.12 2966.67 3006.3 2985.01 2989.1 3233.27 3208.64 3240.56 
2948.43 3247.53 3297.35 3270.47 3007.01 2890.47 2919.6 2964.54 2980.68 
2987.67 3051.89 3083.07 3047.25 3047.25 3099.33 3130.56 3213.84 3135.15 
3122.62 2903.16 2829.49 2816.27 2868.28 2964.63 2972.62 3176.8 3141.85 
3068.98 3133.74 3079.06 2966.35 3018.2 3005.86 3058.09 3162.46 3367.21 
3317.53 3207.85 3187.35 3187.35 3207.19 3271.06 3227.09 3205.62 3234.63 
3203.17 3050.01 3132.6 2904.15 2922.8 3054.1 3680.43 3731.37 3529.14 
3285.8 3087.88 3057.31 3036.35 3292.57 3191.42 3241.83 3147.69 3044.11 
2963.69 2985.46 2956.35 2824.44 2812.27 2808.4 2787.46 3042.94 3112.35 
3018.46 2963.98 2886.79 2864.48 2809.2 3083.02 3093.2 3338.26 3440.8 
3570.47 3625.32 3626.38 3561.72 3428.7 3423.07 3413.43 3492.7 3499.59 
3465.57 3305.75 3297.14 3226.09 3226.09 3086.73 3049.6 2997.16 2984.78 
3007.32 3067.51 3017.23 3163.88 3431.9 3298.23 2875.47 2874.21 2853.09 
2787.06 2732.2 2736.78 2663.69 2693.69 2829.19 2987.1 3058.88 3056.21 
3129.42 3205.27 3230.27 3147.62 3123.67 2980.56 2955.33 2955.33 2871.04 
2863.81 2959.16 2982.17 3012.21 3009.78 3019.89 2953.17 3045.67 3201.67 
3282 3282 3143.81 3143.81 3098.42 3115.49 3127.62 3125.69 3056.3 
2768.05 
rGFP 1 406 double
2450.23 2543.2 2586.78 2579.02 2469.75 2607.1 2575 2544.04 2633.3 
2493.95 2520.12 2968.09 2565.99 2814.78 2788.35 2709.17 2869.23 2724.6 
2592.05 2920.15 2789.63 2710.59 2663.72 2915.42 2885.81 2852.44 2618.36 
2682.74 2650.11 2815.96 3014.2 2727.57 2741.95 2649 2730.84 2683 
2828.63 2700.9 2911.62 2768.15 2986.12 2613.91 2518.89 2639.88 2894.25 
2656.05 2648.09 2642.99 2673.77 2644.93 2619.57 2643 2741.1 2731.09 
2828.15 2801.56 2797.94 2778.52 2740.67 2721.8 2786.8 2803.09 2800.69 
2821.73 2842.83 2909.62 2940.84 2993.48 2987.11 2966.72 2690.17 2586.01 
2715.67 2819.59 2859.83 2869.21 2867.51 2926.63 3004.31 3058.06 2968.69 
2962.17 2962.15 2993.51 3013.26 3001 2972.88 2993.91 2988.89 2992.01 
2904.72 2867.11 2881.31 2952.6 2831.12 2763.95 2752.94 2723.84 2946.22 
3009.93 3013.99 2989.43 3015.52 3027.04 3019.93 3026.12 2909.2 2909.2 
2861.58 2905.77 2940.02 2936.77 2891.16 2920.91 2927.91 2942.14 2912.23 
2923.36 2926.8 2931.89 2946.7 3013.85 3020.07 3048.7 3013.31 3036.11 
2934.01 2857.05 2857.93 2793.63 2827.57 2861.52 2941.77 2985.79 3026.28 
3029.93 3003.64 3020.6 2986.22 2852.79 2805.26 2856.09 2875.95 2981.91 
2993.72 3061.98 3030.19 3030.19 2955.26 2955.26 2940.46 2934.3 2934.3 
2968.33 2997.75 2997.75 3010.44 2991.9 2991.9 3023.17 3028.09 2995.27 
3029.25 3154.65 3171.95 2687.67 2676.56 2666.42 2629.83 2580.78 2621.78 
2635.3 2615.48 2606.17 2632.59 2845.05 2683.07 2753.15 2759.53 2759.53 
2800.01 2771.42 2730.19 2695.69 2719.28 2716.12 2712.38 2692.32 2723.83 
2730.74 2721.56 2699.84 2684.62 2684.62 2675.75 2705.58 2693.63 2693.63 
2725.47 2730.84 2666.25 2656.38 2711.31 2692.73 2692.73 2681.96 2620.23 
2620.23 2614.06 2614.06 2625.42 2666.19 2666.19 2684.26 2657.06 2692.17 
2713.16 2732.1 2723.6 2723.79 2675.59 2718.59 2691.3 2681.4 2660.62 
2646.2 2637.49 2974.78 2965.98 2898 2903.65 2645.99 2621.49 2595.01 
2592.23 2669.22 2688.94 2671.83 2617.38 2628.25 2615.4 2604.65 2633.49 
2648.48 2696.09 2728.28 2695.27 2687.53 2633.25 2594.96 2564.47 2578.05 
2636.26 2621.63 2637.8 2617.01 2655.47 2665.53 2889.07 2860.89 2934.69 
2880.73 2885.81 2898.73 2832.11 2674.47 2663.43 2653.56 2680.99 2712.7 
2745.04 2732.1 2733.14 2686.91 2686.91 2679.19 2696.25 2692.81 2745.35 
2751.32 2747.91 2722.62 2719.07 2655.41 2670.37 2712.99 2746.91 2788.78 
2841.51 2698.35 2695.1 2673.15 2681.81 2673.36 2691.16 2723.58 2917.22 
2930.69 2890.49 2853.78 2853.78 2871.89 2890.38 2835.32 2797.7 2798.99 
2821.51 2873.9 2853.51 2738.01 2774.35 2830.58 2633.36 2692.53 2682.99 
2655.25 2579.9 2568.27 2567.73 2840.65 3034.38 3058.79 3103.99 3105.14 
3064.46 2545.47 2566.14 2559.74 2537.07 2531.86 2524.06 2528.57 2557.65 
2506.64 2495.79 2484.26 2469.75 2535.8 2543.95 2566.49 2568.77 2559.75 
2735.06 2727.4 2693.17 2737.06 2733.62 2701.04 2735.14 2797.72 2810.88 
2800.46 2786.85 2756.96 2724.31 2724.31 2652.67 2649.1 2623.53 2613.49 
2628.12 2604.6 2562.51 2591.84 2568.35 2557.94 2476.84 2494.73 2503.3 
2524.46 2520.4 2532.7 2482.4 2486.05 2514.85 2556.9 2608.46 2622.68 
2648.37 2629.51 2629.31 2633.94 2624.38 2592.04 2567.74 2567.74 2545.58 
2554.43 2520.88 2528.42 2551.28 2565.52 2572.16 2602.25 2594.81 2628.98 
2578.43 2578.43 2535.94 2535.94 2557.41 2572.99 2570.43 2550.15 2536.93 
2492.95 
bkstRFP 1 406 double
389.752 791.242 768.722 821.562 629.662 878.342 907.282 1085.59 1142.59 
308.412 785.172 578.122 788.462 935.802 615.542 1535.8 1004.62 982.512 
353.642 937.562 425.202 941.272 805.592 977.042 1012.71 1033.59 711.722 
857.582 708.222 1134.06 1767.7 1090.66 1115.61 876.042 929.292 453.912 
1277.69 1379.37 809.532 547.402 1111.74 884.062 490.202 325.702 639.112 
592.252 504.392 451.302 507.742 536.742 532.192 559.742 588.322 644.482 