# vtk DataFile Version 3.0
vtk output
ASCII
DATASET POLYDATA
POINTS 231 float
0.527196 0.811797 0.360955 5.4499 0.112734 1.03804 3.86109 -1.21766 0.529062 
3.95867 -1.06811 0.349303 3.71728 0.705018 0.414464 4.49208 -0.429862 0.463058 
1.56083 -2.0274 -0.256454 3.68494 0.562221 0.0643082 4.10763 0.140279 0.236919 
2.24294 0.861127 -0.196182 1.29064 0.897482 -0.535182 1.6349 0.988409 -0.601377 
1.96188 0.944231 -0.434821 2.42652 1.27046 -0.348727 1.00581 0.999796 -0.90823 
2.21431 1.31829 -0.579338 0.361422 0.730894 -1.08473 1.21046 0.990394 -0.946447 
0.71142 0.924742 -1.22523 1.04985 1.22882 -1.15877 1.04921 1.16828 -1.05233 
1.03919 1.09661 -0.967872 0.775461 0.971511 -1.18328 0.823454 1.00579 -1.12687 
0.876811 0.995714 -1.0572 0.937773 0.980937 -0.981679 0.663337 0.82324 -1.1705 
0.618291 0.742585 -1.12164 0.572219 0.684636 -1.08665 0.516525 0.666798 -1.07327 
0.445834 0.689421 -1.07478 0.630886 0.950806 -1.22798 0.569671 0.937406 -1.21516 
0.518654 0.894452 -1.18004 0.463643 0.859962 -1.13751 0.409121 0.81533 -1.103 
1.15548 0.975244 -0.942808 1.09054 0.973178 -0.92989 1.23189 1.0552 -0.939661 
1.24139 1.11418 -0.934943 1.26841 1.16816 -0.927956 1.31072 1.20727 -0.919583 
1.3569 1.24041 -0.910986 1.41388 1.24114 -0.90265 1.47302 1.23534 -0.894369 
1.53645 1.21081 -0.876027 1.59617 1.1712 -0.827591 1.63423 1.1047 -0.731351 
1.25055 0.943938 -0.740815 0.289486 0.693485 -1.09731 0.231232 0.667463 -1.10727 
0.182308 0.63801 -1.11606 0.13864 0.593043 -1.11746 0.0912795 0.552208 -1.10417 
0.0423758 0.505116 -1.06898 -0.0122043 0.471936 -1.02631 -0.063436 0.437994 -0.990708 
-0.0941801 0.384407 -0.975726 -0.104879 0.325089 -0.973139 -0.128131 0.259683 -0.980224 
-0.160622 0.191127 -0.988832 -0.193114 0.12257 -0.99744 -0.217293 0.0566793 -0.997187 
-0.227663 -0.00480527 -0.979686 -0.247147 -0.0695399 -0.933706 -0.264873 -0.133889 -0.864948 
-0.297792 -0.203291 -0.791198 -0.324729 -0.270473 -0.746442 -0.321582 -0.327391 -0.741703 
-0.302011 -0.378595 -0.77174 -0.279563 -0.42879 -0.808801 -0.259246 -0.479814 -0.831219 
-0.242768 -0.532226 -0.839284 -0.236733 -0.588132 -0.841568 -0.243864 -0.648296 -0.85351 
-0.234634 -0.70296 -0.877748 -0.212932 -0.753337 -0.922417 -0.19123 -0.803713 -0.967096 
-0.181906 -0.858346 -0.991319 -0.191468 -0.919565 -0.973684 -0.180637 -0.974281 -0.930214 
-0.146215 -1.02125 -0.882881 -0.122053 -1.07146 -0.852214 -0.105363 -1.12412 -0.822775 
-0.0813233 -1.1745 -0.777146 -0.0330318 -1.21698 -0.72003 0.02645 -1.25579 -0.661088 
0.0888106 -1.29358 -0.609169 0.149142 -1.33217 -0.542591 0.207342 -1.37159 -0.46137 
0.264374 -1.41146 -0.372855 0.322894 -1.45064 -0.306574 0.37726 -1.49087 -0.278446 
0.418882 -1.53509 -0.274888 0.466424 -1.5773 -0.277855 0.505914 -1.62235 -0.259655 
0.559214 -1.66299 -0.224205 0.619762 -1.70138 -0.172584 0.681375 -1.73936 -0.128274 
0.73691 -1.77914 -0.10745 0.78141 -1.82235 -0.110916 0.841206 -1.86047 -0.119357 
0.907183 -1.89676 -0.104306 0.971638 -1.93362 -0.0670185 1.03563 -1.96873 -0.0296998 
1.10075 -1.99268 -0.0215748 1.16535 -2.00049 -0.0426008 1.23516 -2.02043 -0.0710555 
1.30333 -2.03906 -0.0921742 1.36417 -2.03545 -0.113102 1.42657 -2.02928 -0.148648 
1.49527 -2.03492 -0.198945 2.25703 1.32947 -0.505009 2.30451 1.32986 -0.438097 
2.3626 1.30535 -0.386048 1.7485 1.02504 -0.554276 1.83001 1.01405 -0.510048 
1.89673 0.980799 -0.46923 2.38444 1.19818 -0.291464 2.3527 1.12936 -0.239999 
2.33732 1.06603 -0.200841 2.31091 0.999282 -0.185972 2.27725 0.930278 -0.187276 
2.48252 1.27416 -0.340365 2.54437 1.26378 -0.339449 2.6073 1.25739 -0.353138 
2.67769 1.23571 -0.381608 2.74959 1.20575 -0.402823 2.81468 1.1819 -0.394698 
2.87079 1.17068 -0.357174 2.93059 1.14465 -0.312453 2.99554 1.10993 -0.282472 
3.06148 1.07375 -0.267419 3.11915 1.0348 -0.261228 3.16249 0.99114 -0.257388 
3.21833 0.95159 -0.251496 3.27408 0.912009 -0.245619 3.31444 0.86731 -0.234773 
3.3559 0.822844 -0.208763 3.37994 0.772465 -0.163135 3.40463 0.722237 -0.109893 
3.45381 0.680049 -0.0576421 3.51762 0.642121 -0.0180089 3.59223 0.603624 0.0206636 
1.5292 0.930206 -0.501598 1.44868 0.906836 -0.429178 1.38303 0.912268 -0.412932 
1.33226 0.908359 -0.45354 1.2059 0.882513 -0.34594 1.11803 0.880702 -0.16391 
1.03752 0.867493 -0.00394247 0.962829 0.858497 0.112132 0.8883 0.874535 0.177158 
0.81913 0.892539 0.205596 0.758897 0.887092 0.226509 0.700236 0.869592 0.261958 
0.641111 0.849844 0.304722 0.583089 0.830406 0.340155 3.77684 0.507421 0.0420964 
3.84483 0.462326 0.0269537 3.88884 0.417545 0.0208281 3.93274 0.373957 0.029753 
3.95816 0.324225 0.0531305 3.97272 0.270734 0.0972026 3.9957 0.219941 0.150163 
4.04505 0.177876 0.199947 4.07003 0.0698527 0.24995 4.03239 -0.000469999 0.262983 
3.99631 -0.0682364 0.261397 3.95924 -0.125687 0.245251 3.91955 -0.167914 0.214595 
3.88354 -0.224951 0.191136 3.84863 -0.292269 0.182247 3.81281 -0.361997 0.195576 
3.78436 -0.429544 0.225104 3.77293 -0.491443 0.249927 3.7609 -0.553279 0.244678 
3.75809 -0.611832 0.210968 3.74222 -0.67461 0.167617 3.72477 -0.7381 0.146486 
3.72513 -0.795996 0.158263 3.72478 -0.854385 0.199887 3.72214 -0.913587 0.248643 
3.7603 -0.959329 0.296589 3.82222 -0.997076 0.325958 3.88981 -1.03283 0.341275 
4.15305 0.0958938 0.405955 4.20475 0.0539577 0.531067 4.26413 0.0151194 0.589993 
4.3201 -0.024263 0.580922 4.34371 -0.07401 0.536557 4.33199 -0.135297 0.478905 
4.30972 -0.200112 0.427019 4.30728 -0.258351 0.370891 4.34511 -0.303431 0.328859 
4.38686 -0.347483 0.317454 4.43792 -0.388987 0.367519 3.70264 0.638136 0.246114 
4.45703 -0.49711 0.454152 4.41886 -0.55487 0.445328 4.37537 -0.596506 0.436641 
4.33346 -0.642946 0.427913 4.28936 -0.682749 0.419243 4.24639 -0.729604 0.417836 
4.1997 -0.772481 0.431103 4.15514 -0.832725 0.466187 4.11263 -0.902871 0.50852 
4.07223 -0.972084 0.536201 4.03451 -1.0276 0.520081 3.99578 -1.0545 0.452942 
4.54371 -0.412908 0.471533 4.59534 -0.395954 0.480009 4.6459 -0.379415 0.495805 
4.69434 -0.363703 0.526234 4.74064 -0.34882 0.571306 4.78691 -0.333832 0.616368 
4.83474 -0.316287 0.646823 4.88047 -0.288737 0.670029 4.92089 -0.245062 0.693382 
4.96186 -0.206711 0.724005 5.00121 -0.163449 0.75467 5.04478 -0.136623 0.792519 
5.08881 -0.118487 0.844934 5.12921 -0.0930073 0.904746 5.16594 -0.0527259 0.957349 
5.21003 -0.0238516 0.987891 5.25626 0.00584993 1.0038 5.29938 0.0486156 1.0125 
5.34727 0.0768891 1.02107 5.3983 0.0956753 1.02956 3.91041 -1.14268 0.435527 

LINES 21 274
4 19 20 21 14 
6 18 22 23 24 25 14 
7 18 26 27 28 29 30 16 
7 18 31 32 33 34 35 16 
4 17 36 37 14 
12 17 38 39 40 41 42 43 44 45 46 47 11 
3 17 48 10 
65 16 49 50 51 52 53 54 55 56 57 58 59 60 61 62 63 64 65 66 67 68 69 70 71 72 73 74 75 76 77 78 79 80 81 82 83 84 85 86 87 88 89 90 91 92 93 94 95 96 97 98 99 100 101 102 103 104 105 106 107 108 109 110 111 6 
5 15 112 113 114 13 
5 11 115 116 117 12 
7 13 118 119 120 121 122 9 
23 13 123 124 125 126 127 128 129 130 131 132 133 134 135 136 137 138 139 140 141 142 143 7 
6 11 144 145 146 147 10 
12 10 148 149 150 151 152 153 154 155 156 157 0 
10 7 158 159 160 161 162 163 164 165 8 
22 8 166 167 168 169 170 171 172 173 174 175 176 177 178 179 180 181 182 183 184 185 3 
13 8 186 187 188 189 190 191 192 193 194 195 196 5 
3 7 197 4 
14 5 198 199 200 201 202 203 204 205 206 207 208 209 3 
22 5 210 211 212 213 214 215 216 217 218 219 220 221 222 223 224 225 226 227 228 229 1 
3 3 230 2 

POINT_DATA 231
SCALARS DY_raw double
LOOKUP_TABLE default
94.3904 0 68.3676 33.4926 48.6326 66.8638 15.11 65.2908 45.5674 
86.7001 32.2552 42.1371 43.3831 31.5227 42.9101 33.4664 46.5039 28.5755 
33.1417 68.8732 46.1932 42.8848 36.454 38.558 41.91 42.0825 38.7488 
44.2283 41.7355 42.4422 38.4057 34.7001 39.9962 45.1462 45.7072 45.3422 
32.2886 34.3103 34.0168 42.2865 50.8164 60.4767 60.4767 56.3746 45.9033 
39.7836 39.756 42.9693 36.1262 47.7048 43.6234 46.591 55.5628 50.7152 
66.9636 55.8035 59.4675 51.9975 56.0819 52.8122 52.8122 53.6439 48.4541 
60.4595 44.5893 46.0264 60.7629 41.7824 37.1467 31.9021 35.3108 31.3884 
35.6296 43.651 43.651 45.9142 34.6191 38.1115 37.1561 34.6693 37.666 
41.2358 38.2253 36.7522 39.1776 32.9062 33.8016 32.3075 26.7874 33.8478 
29.499 30.192 33.8518 25.3375 21.4103 32.2798 24.6113 33.4377 29.0032 
22.5979 21.3554 28.8105 29.7376 31.7502 41.208 46.4144 47.3133 41.4012 
29.3212 29.3212 15.6442 12.273 38.1424 36.7898 33.4409 38.9909 42.5316 
47.9048 37.2183 40.2896 48.8022 59.4629 73.2141 37.025 39.7795 41.8454 
50.6752 46.58 50.4092 56.2684 59.5246 68.0066 71.015 64.8076 60.9493 
60.2959 47.4624 42.7595 50.8963 40.2095 45.4853 40.3993 49.0861 55.4357 
35.3588 30.096 26.5413 28.3966 41.9906 42.5572 44.7246 52.6077 50.9058 
59.7479 59.7479 62.829 69.9496 74.5796 47.027 45.8069 49.3895 48.5318 
41.0398 44.7245 47.9408 49.5457 47.9213 46.0236 46.5612 54.7865 102.396 
90.9247 79.4905 82.1938 91.3662 115.654 109.712 122.09 92.2152 72.4128 
72.4128 79.1966 64.6685 73.7991 38.7757 36.6905 50.1001 49.6676 44.3846 
37.112 35.8255 45.2 44.5978 54.1836 48.3097 66.2274 61.0591 85.7542 
62.4725 50.7647 42.8578 42.8578 52.4882 63.5002 53.9353 61.6253 56.5716 
60.1871 52.1708 44.816 66.8638 60.718 45.9289 45.9618 45.9618 36.9371 
31.3059 31.1637 27.6605 29.7374 37.0146 37.0146 44.0937 32.4771 33.2584 
31.3666 41.6596 44.5344 44.5344 40.9551 59.1445 
FIELD FieldData 7
DY_minmax 1 231 double
0.773122 0 0.559977 0.274327 0.398334 0.54766 0.123761 0.534776 0.373228 
0.710133 0.264192 0.345132 0.355337 0.258193 0.351463 0.274113 0.380899 0.234052 
0.271453 0.564118 0.378354 0.351255 0.298583 0.315816 0.343271 0.344684 0.317379 
0.36226 0.341842 0.347631 0.314569 0.284217 0.327596 0.369778 0.374373 0.371384 
0.264466 0.281025 0.278621 0.346355 0.416221 0.495345 0.495345 0.461746 0.375979 
0.325855 0.325629 0.351948 0.295898 0.390735 0.357306 0.381612 0.455097 0.415392 
0.548478 0.457069 0.487079 0.425895 0.459349 0.432568 0.432568 0.43938 0.396872 
0.495204 0.365217 0.376988 0.497689 0.342227 0.304257 0.2613 0.28922 0.257092 
0.291831 0.357531 0.357531 0.376069 0.283554 0.312159 0.304333 0.283965 0.30851 
0.337749 0.313091 0.301026 0.320891 0.269524 0.276858 0.264621 0.219407 0.277237 
0.241617 0.247293 0.277269 0.207532 0.175365 0.264393 0.201583 0.273878 0.237556 
0.185093 0.174916 0.235977 0.243571 0.260056 0.337522 0.380165 0.387528 0.339104 
0.240161 0.240161 0.128137 0.100524 0.312412 0.301334 0.273904 0.319362 0.348363 
0.392373 0.304844 0.329999 0.399723 0.487042 0.599673 0.30326 0.325822 0.342743 
0.415065 0.381522 0.412886 0.460877 0.487547 0.55702 0.581661 0.530818 0.499216 
0.493864 0.388749 0.35023 0.416875 0.329343 0.372556 0.330898 0.402049 0.454056 
0.289612 0.246507 0.217391 0.232588 0.343931 0.348573 0.366325 0.430893 0.416953 
0.489376 0.489376 0.514613 0.572935 0.610858 0.385183 0.37519 0.404534 0.397508 
0.336144 0.366324 0.392668 0.405813 0.392508 0.376964 0.381368 0.448739 0.838695 
0.744735 0.651082 0.673223 0.748352 0.947289 0.898612 1 0.755305 0.59311 
0.59311 0.648674 0.529679 0.604465 0.317599 0.30052 0.410354 0.406811 0.36354 
0.303972 0.293435 0.370219 0.365286 0.443801 0.395689 0.542448 0.500115 0.702386 
0.511693 0.415797 0.351034 0.351034 0.429914 0.52011 0.441767 0.504754 0.46336 
0.492973 0.427315 0.367074 0.54766 0.497322 0.376189 0.376458 0.376458 0.30254 
0.256417 0.255252 0.226558 0.24357 0.303175 0.303175 0.361157 0.26601 0.272409 
0.256914 0.341221 0.364767 0.364767 0.33545 0.484434 
WidthEq 1 231 double
1.70695 1 2.89304 5.26057 1.4661 3.06743 3.77234 3.56972 3.1731 
2.67566 10.2033 9.39576 7.41256 9.94426 9.41364 7.1131 6.74051 11.1365 
8.37707 3.35472 7.18915 8.60026 9.21134 9.8304 10.5163 10.0883 7.39274 
6.3733 5.6573 5.60527 6.7628 7.78903 7.16018 6.77864 6.58518 6.50762 
10.7335 10.3977 10.6371 8.8241 6.63861 4.92934 4.92934 4.8827 6.34421 
7.32412 8.19976 9.18377 10.3332 6.95045 7.515 7.5345 6.46044 6.75419 
5.25001 5.35396 4.83239 5.1214 4.84381 4.9498 4.9498 4.84995 5.1102 
4.54618 5.55335 5.87445 5.27296 7.81596 8.8242 9.09878 7.83697 7.89783 
6.9344 5.33253 5.33253 4.873 4.82797 4.65896 4.98654 4.87203 4.72974 
4.1738 3.80455 3.92357 3.99488 4.57117 5.19443 5.16072 4.8534 4.26881 
4.36963 4.42037 3.88577 3.82792 3.76501 3.55238 3.57112 3.68476 4.0161 
4.55749 4.68686 3.85797 3.54904 3.37604 2.88657 2.39624 2.53692 2.69968 
3.4354 3.4354 3.76049 3.28933 7.22319 9.51188 9.96084 9.56735 9.19551 
8.54425 8.89293 8.36048 6.01449 5.19282 4.31911 9.24592 8.19642 8.38515 
6.41714 6.50687 5.70372 4.56988 4.291 3.96138 3.86961 4.38375 4.51441 
4.55006 5.16556 5.34244 5.03986 5.06323 4.93742 5.22459 4.74126 4.14192 
9.72828 9.95083 10.0055 10.3942 8.34378 7.54419 6.45193 5.4243 5.4815 
5.24721 5.24721 4.71056 3.88566 3.64577 3.96645 4.07384 3.93079 3.91743 
3.81532 3.73755 3.52039 3.59708 3.55604 3.10319 3.21834 2.69537 2.01072 
2.24834 2.53326 2.61954 2.77444 2.44331 2.65013 2.57785 3.05741 3.49399 
3.49399 3.49712 3.74789 3.61238 4.86697 5.14574 3.1954 3.38994 3.31917 
3.26606 3.21587 2.99601 2.77099 2.16098 2.16023 2.29014 2.56342 2.40723 
3.25023 2.94733 2.90822 2.90822 3.0363 2.77401 3.04977 2.99763 3.33683 
3.14553 4.13718 4.566 3.06743 3.5011 4.39506 4.72349 4.72349 5.13928 
5.12075 4.88453 4.56536 3.84095 3.66936 3.66936 3.29095 3.51694 3.40696 
3.01627 3.03339 2.63527 2.63527 2.21926 3.90095 
rRFP 1 231 double
2402.59 2336.96 2512.7 2732.49 2380.23 2528.89 2594.33 2575.52 2538.7 
2492.52 3191.35 3116.38 2932.27 3167.3 3118.04 2904.47 2869.88 3277.98 
3021.81 2555.56 2911.53 3042.53 3099.26 3156.73 3220.41 3180.67 2930.43 
2835.79 2769.32 2764.49 2871.95 2967.22 2908.84 2873.42 2855.46 2848.26 
3240.57 3209.4 3231.62 3063.31 2860.42 2701.74 2701.74 2697.41 2833.09 
2924.06 3005.35 3096.7 3203.41 2889.37 2941.78 2943.59 2843.88 2871.15 
2731.51 2741.16 2692.74 2719.57 2693.8 2703.64 2703.64 2694.37 2718.53 
2666.17 2759.67 2789.48 2733.64 2969.72 3063.32 3088.81 2971.67 2977.32 
2887.88 2739.17 2739.17 2696.51 2692.33 2676.64 2707.05 2696.42 2683.21 
2631.6 2597.32 2608.37 2614.99 2668.49 2726.35 2723.22 2694.69 2640.42 
2649.78 2654.49 2604.86 2599.49 2593.65 2573.91 2575.65 2586.2 2616.96 
2667.22 2679.23 2602.28 2573.6 2557.54 2512.1 2466.58 2479.64 2494.75 
2563.05 2563.05 2593.23 2549.49 2914.69 3127.16 3168.84 3132.31 3097.79 
3037.33 3069.7 3020.27 2802.48 2726.2 2645.09 3102.47 3005.04 3022.56 
2839.86 2848.19 2773.63 2668.37 2642.48 2611.88 2603.36 2651.09 2663.22 
2666.53 2723.67 2740.09 2712 2714.17 2702.49 2729.15 2684.28 2628.64 
3147.25 3167.91 3172.99 3209.07 3018.72 2944.49 2843.09 2747.69 2753 
2731.25 2731.25 2681.43 2604.85 2582.58 2612.35 2622.32 2609.04 2607.8 
2598.32 2591.1 2570.94 2578.06 2574.25 2532.21 2542.9 2494.35 2430.79 
2452.85 2479.3 2487.31 2501.69 2470.95 2490.15 2483.44 2527.96 2568.49 
2568.49 2568.78 2592.06 2579.48 2695.95 2721.83 2540.77 2558.83 2552.26 
2547.33 2542.67 2522.26 2501.37 2444.74 2444.67 2456.73 2482.1 2467.6 
2545.86 2517.74 2514.11 2514.11 2526 2501.65 2527.25 2522.41 2553.9 
2536.14 2628.2 2668.01 2528.89 2569.15 2652.14 2682.63 2682.63 2721.23 
2719.51 2697.58 2667.95 2600.7 2584.77 2584.77 2549.64 2570.62 2560.41 
2524.14 2525.73 2488.77 2488.77 2450.15 2606.27 
rGFP 1 231 double
2652.49 2491.37 2689.16 2667.56 2562.67 2696.47 2548.37 2724.44 2635.96 
2723.35 2820.48 2887.28 2812.95 2804.84 2895.31 2729.42 2804.83 2809.6 
2769 2722.42 2823.46 2860.19 2827.16 2870.41 2932.11 2915.91 2777.83 
2773.25 2727.48 2729.27 2751.1 2761.65 2777.75 2797.4 2792.36 2786.44 
2837.94 2848.12 2853.21 2864.51 2828.72 2789.48 2789.48 2766.63 2782.59 
2782.75 2817.36 2885.99 2864.67 2822.94 2819.2 2842.41 2850.33 2833.91 
2842.93 2790.14 2778.74 2757.67 2763.02 2752.78 2752.78 2751.54 2738.98 
2766.23 2738.99 2761.75 2811.77 2817.94 2819.16 2781.64 2768.1 2739.27 
2738.44 2724.14 2724.14 2715.11 2658.51 2668.93 2676.65 2660.28 2669.52 
2663.48 2636.8 2635.57 2647.88 2641.79 2666.95 2658.1 2621.38 2635.86 
2620.27 2624.83 2622.91 2588.36 2571.98 2606.04 2579.26 2614.58 2607.85 
2594.36 2591.46 2602.52 2596.91 2598.56 2610.32 2602.59 2611.4 2603.14 
2592.1 2592.1 2550.2 2531.74 2766.88 2841.31 2824.47 2864.41 2882.47 
2900.68 2822.35 2828.21 2784.89 2800.15 2807.59 2833.7 2817.42 2842.25 
2816.56 2794.46 2778.89 2748.51 2746.79 2760.77 2766.17 2775.47 2766.52 
2765.72 2736.54 2719.81 2747.88 2694.96 2715.95 2702.44 2724.1 2720.98 
2835.35 2790.85 2756.93 2786.53 2841.73 2812.43 2779.93 2776.73 2770.41 
2804.88 2804.88 2787.33 2763.17 2763.27 2677.9 2677.98 2685.51 2681.49 
2647.95 2658.53 2660.14 2669.59 2661.78 2634.19 2641.22 2639.04 2697.26 
2695.8 2692.74 2706.68 2744.86 2773.95 2782.12 2806.1 2773.31 2744.38 
2744.38 2768.33 2733.74 2757.96 2680.09 2680.17 2651.46 2659.74 2638.69 
2612.58 2606.58 2626.79 2614.95 2608.46 2595.73 2643.04 2647.89 2697.8 
2694.42 2640.99 2616.01 2616.01 2650.74 2667.52 2655.86 2676.1 2680.14 
2680.69 2707.21 2696 2696.47 2703.95 2693.23 2708.47 2708.47 2681.2 
2651.68 2643.59 2617.65 2605.59 2627.19 2627.19 2636.48 2605.59 2604.68 
2585.98 2617.74 2608.73 2608.73 2582.26 2722.09 
bkstRFP 1 231 double
158.465 92.835 268.575 488.365 136.105 284.765 350.205 331.395 294.575 
248.395 947.225 872.255 688.145 923.175 873.915 660.345 625.755 1033.86 
777.685 311.435 667.405 798.405 855.135 912.605 976.285 936.545 686.305 
591.665 525.195 520.365 627.825 723.095 664.715 629.295 611.335 604.135 
996.445 965.275 987.495 819.185 616.295 457.615 457.615 453.285 588.965 
679.935 761.225 852.575 959.285 645.245 697.655 699.465 599.755 627.025 
487.385 497.035 448.615 475.445 449.675 459.515 459.515 450.245 474.405 
422.045 515.545 545.355 489.515 725.595 819.195 844.685 727.545 733.195 
643.755 495.045 495.045 452.385 448.205 432.515 462.925 452.295 439.085 
387.475 353.195 364.245 370.865 424.365 482.225 479.095 450.565 396.295 
405.655 410.365 360.735 355.365 349.525 329.785 331.525 342.075 372.835 
423.095 435.105 358.155 329.475 313.415 267.975 222.455 235.515 250.625 
318.925 318.925 349.105 305.365 670.565 883.035 924.715 888.185 853.665 
793.205 825.575 776.145 558.355 482.075 400.965 858.345 760.915 778.435 
595.735 604.065 529.505 424.245 398.355 367.755 359.235 406.965 419.095 
422.405 479.545 495.965 467.875 470.045 458.365 485.025 440.155 384.515 
903.125 923.785 928.865 964.945 774.595 700.365 598.965 503.565 508.875 
487.125 487.125 437.305 360.725 338.455 368.225 378.195 364.915 363.675 
354.195 346.975 326.815 333.935 330.125 288.085 298.775 250.225 186.665 
208.725 235.175 243.185 257.565 226.825 246.025 239.315 283.835 324.365 
324.365 324.655 347.935 335.355 451.825 477.705 296.645 314.705 308.135 
303.205 298.545 278.135 257.245 200.615 200.545 212.605 237.975 223.475 
301.735 273.615 269.985 269.985 281.875 257.525 283.125 278.285 309.775 
292.015 384.075 423.885 284.765 325.025 408.015 438.505 438.505 477.105 
475.385 453.455 423.825 356.575 340.645 340.645 305.515 326.495 316.285 
280.015 281.605 244.645 244.645 206.025 362.145 
bkstGFP 1 231 double
161.12 0 197.79 176.19 71.3 205.1 57 233.07 144.59 
231.98 329.11 395.91 321.58 313.47 403.94 238.05 313.46 318.23 
277.63 231.05 332.09 368.82 335.79 379.04 440.74 424.54 286.46 
281.88 236.11 237.9 259.73 270.28 286.38 306.03 300.99 295.07 
346.57 356.75 361.84 373.14 337.35 298.11 298.11 275.26 291.22 
291.38 325.99 394.62 373.3 331.57 327.83 351.04 358.96 342.54 
351.56 298.77 287.37 266.3 271.65 261.41 261.41 260.17 247.61 
274.86 247.62 270.38 320.4 326.57 327.79 290.27 276.73 247.9 
247.07 232.77 232.77 223.74 167.14 177.56 185.28 168.91 178.15 
172.11 145.43 144.2 156.51 150.42 175.58 166.73 130.01 144.49 
128.9 133.46 131.54 96.99 80.61 114.67 87.89 123.21 116.48 
102.99 100.09 111.15 105.54 107.19 118.95 111.22 120.03 111.77 
100.73 100.73 58.83 40.37 275.51 349.94 333.1 373.04 391.1 
409.31 330.98 336.84 293.52 308.78 316.22 342.33 326.05 350.88 
325.19 303.09 287.52 257.14 255.42 269.4 274.8 284.1 275.15 
274.35 245.17 228.44 256.51 203.59 224.58 211.07 232.73 229.61 
343.98 299.48 265.56 295.16 350.36 321.06 288.56 285.36 279.04 
313.51 313.51 295.96 271.8 271.9 186.53 186.61 194.14 190.12 
156.58 167.16 168.77 178.22 170.41 142.82 149.85 147.67 205.89 
204.43 201.37 215.31 253.49 282.58 290.75 314.73 281.94 253.01 
253.01 276.96 242.37 266.59 188.72 188.8 160.09 168.37 147.32 
121.21 115.21 135.42 123.58 117.09 104.36 151.67 156.52 206.43 
203.05 149.62 124.64 124.64 159.37 176.15 164.49 184.73 188.77 
189.32 215.84 204.63 205.1 212.58 201.86 217.1 217.1 189.83 
160.31 152.22 126.28 114.22 135.82 135.82 145.11 114.22 113.31 
94.61 126.37 117.36 117.36 90.89 230.72 
tubeWidth 1 231 double
0.158773 0.0315024 0.21322 0.213017 0.111975 0.154377 0.141412 0.190968 0.209019 
0.111779 0.206105 0.139451 0.23078 0.32289 0.218883 0.119881 0.233073 0.188971 
0.209964 0.0489451 0.163768 0.0456214 0.192855 0.28639 0.303608 0.266281 0.180345 
0.153877 0.0657037 0.0399595 0.11414 0.347197 0.299226 0.289447 0.227261 0.201364 
0.23602 0.265548 0.0943612 0.0871952 0.0773924 0.0809694 0.0976925 0.15555 0.196828 
0.203424 0.197988 0.125654 0.129271 0.264308 0.266939 0.273281 0.246571 0.239857 
0.245507 0.247244 0.180575 0.202008 0.222382 0.197559 0.21233 0.222093 0.212393 
0.203214 0.233289 0.156544 0.217394 0.27556 0.318839 0.304491 0.296837 0.274155 
0.233363 0.190781 0.180221 0.22755 0.261898 0.280656 0.268765 0.28308 0.243412 
0.225243 0.222005 0.229897 0.240325 0.241616 0.286241 0.244571 0.244414 0.211134 
0.193642 0.240975 0.229773 0.210856 0.224844 0.202168 0.176318 0.203069 0.230771 
0.187154 0.211328 0.199772 0.179838 0.206625 0.250389 0.233474 0.217489 0.219559 
0.228051 0.215424 0.203739 0.229702 0.248726 0.242696 0.243682 0.29522 0.256358 
0.2381 0.261798 0.249437 0.186816 0.128762 0.128374 0.301155 0.260204 0.201314 
0.201679 0.212 0.231474 0.221682 0.212561 0.206433 0.221759 0.223264 0.240388 
0.229242 0.240294 0.266721 0.251773 0.278133 0.267606 0.257884 0.224986 0.193916 
0.152676 0.212429 0.203139 0.189701 0.204701 0.156176 0.151069 0.225792 0.217428 
0.22394 0.227698 0.25933 0.32202 0.24037 0.220684 0.17305 0.193565 0.226017 
0.221718 0.24598 0.220344 0.205873 0.153116 0.176012 0.189776 0.184931 0.173731 
0.161198 0.164114 0.223002 0.235046 0.237563 0.228184 0.166775 0.142251 0.181789 
0.208903 0.189382 0.171899 0.222501 0.217223 0.153785 0.177834 0.225681 0.186829 
0.236921 0.223342 0.15443 0.125243 0.138711 0.144853 0.133926 0.146647 0.13642 
0.155679 0.166889 0.172577 0.188892 0.175115 0.194847 0.179916 0.200816 0.200299 
0.153227 0.190218 0.241254 0.21602 0.218349 0.215409 0.238152 0.279426 0.274266 
0.268422 0.268354 0.241318 0.214784 0.235422 0.231904 0.2387 0.240468 0.233746 
0.247282 0.255314 0.224373 0.182619 0.114779 0.155984 
