# vtk DataFile Version 3.0
vtk output
ASCII
DATASET POLYDATA
POINTS 512 float
1.6326 -1.18058 0.923865 0.344951 0.534882 0.937063 7.53133 0.37201 1.25312 
7.39781 0.451687 1.24833 7.24406 -1.01388 0.94414 7.91311 -0.46868 0.625579 
7.70561 -0.745465 0.542753 -0.656523 -0.135701 0.0177867 8.17287 -0.259723 0.229096 
7.99947 0.364083 0.28232 7.90434 -0.834002 0.267128 -0.737984 -0.217107 -0.328178 
7.85778 0.328362 0.269683 7.8323 -0.506274 0.148452 8.02671 -0.165105 -0.0168041 
8.02493 -0.600009 -0.0442291 4.09579 0.0687801 -0.223528 -0.732604 -0.071777 -0.586573 
8.02999 0.899424 -0.0837032 8.05294 -0.888057 -0.395132 -0.64058 0.446329 -0.8487 
8.30216 0.126816 -0.313155 8.19313 0.552681 -0.294426 4.32252 0.42691 -0.586278 
8.24667 -0.463106 -0.789594 7.87137 -0.993023 -0.615971 5.17688 -0.54028 -1.01965 
4.88623 -0.158861 -0.782615 2.2408 2.13863 -1.23436 7.9991 0.774503 -1.29939 
2.13787 2.01696 -1.65141 8.05875 -0.0516854 -1.54779 7.15805 1.47798 -1.51787 
7.82132 -0.159401 -1.7729 1.02849 0.786219 -2.36073 0.961218 -0.690015 -2.51041 
0.469581 0.73793 -2.52384 0.327564 0.680303 -2.47089 1.00063 1.06659 -2.5982 
1.20552 1.14594 -2.77912 1.14848 1.12919 -2.74715 1.08269 1.10492 -2.68652 
0.519906 0.836791 -2.57843 0.565334 0.91429 -2.61489 0.610035 0.970219 -2.62795 
0.65961 0.99939 -2.62744 0.709281 1.02631 -2.62211 0.755679 1.06601 -2.61621 
0.805931 1.09081 -2.61097 0.859917 1.10361 -2.6062 0.922065 1.10035 -2.60185 
1.00118 0.978977 -2.50692 1.00824 0.910365 -2.43629 1.02236 0.848859 -2.39446 
0.391968 0.703415 -2.49697 0.547453 0.703446 -2.51036 0.60959 0.697652 -2.49873 
0.665686 0.693623 -2.47006 0.72459 0.665752 -2.41291 0.782491 0.637342 -2.34347 
0.835333 0.636424 -2.295 0.886051 0.659452 -2.28984 0.934628 0.70162 -2.30595 
0.988139 0.738267 -2.33694 1.02138 -0.670604 -2.60152 1.07938 -0.653044 -2.66314 
1.13471 -0.637905 -2.6879 1.18886 -0.625914 -2.69062 1.24495 -0.624056 -2.68638 
1.30476 -0.636765 -2.68279 1.36037 -0.633039 -2.67848 1.41103 -0.609975 -2.67332 
1.45748 -0.570475 -2.66743 1.50766 -0.545543 -2.66218 1.56034 -0.530386 -2.65737 
1.61392 -0.518753 -2.65271 1.67001 -0.516895 -2.64848 1.72985 -0.52971 -2.64489 
1.78594 -0.527851 -2.64066 1.83955 -0.516325 -2.636 1.89271 -0.503035 -2.63127 
1.94533 -0.49021 -2.61916 1.99732 -0.480071 -2.59238 2.05016 -0.480989 -2.54391 
2.10622 -0.497034 -2.48872 2.15906 -0.497962 -2.44025 2.21105 -0.487822 -2.41347 
2.26367 -0.474997 -2.40136 2.3168 -0.461601 -2.39663 2.36993 -0.448206 -2.39189 
2.42307 -0.434811 -2.38715 2.4762 -0.421416 -2.38241 2.52933 -0.408021 -2.37767 
2.58247 -0.394625 -2.37293 2.6356 -0.38123 -2.36819 2.68873 -0.367835 -2.36345 
2.74186 -0.35444 -2.35872 2.79446 -0.341508 -2.3466 2.84597 -0.3295 -2.31975 
2.89585 -0.318881 -2.27077 2.9452 -0.308726 -2.21441 2.99509 -0.298107 -2.16544 
3.04714 -0.285637 -2.14595 3.10084 -0.271886 -2.14859 3.15607 -0.258971 -2.16605 
3.2127 -0.256649 -2.1692 3.27201 -0.269927 -2.15824 3.32647 -0.269457 -2.13189 
3.379 -0.258855 -2.11249 3.43105 -0.246386 -2.093 3.48205 -0.232404 -2.06606 
3.52848 -0.208274 -2.01649 3.56769 -0.158503 -1.95839 3.60493 -0.0984935 -1.90724 
3.64579 -0.0448966 -1.87856 3.69146 -0.00494148 -1.86526 3.73392 0.0501497 -1.85868 
3.7739 0.11491 -1.85169 3.81343 0.181432 -1.84461 3.85229 0.24757 -1.83017 
3.8881 0.312287 -1.80115 3.909 0.372269 -1.75121 3.89399 0.423196 -1.70446 
3.8527 0.468475 -1.68232 3.81776 0.517314 -1.70414 3.77924 0.566232 -1.74856 
3.75537 0.618841 -1.79165 3.72997 0.670087 -1.81262 3.69053 0.717139 -1.82001 
3.66351 0.766996 -1.81886 3.6365 0.816854 -1.81771 3.59651 0.863443 -1.81772 
3.57003 0.913763 -1.82395 3.544 0.964521 -1.83755 3.5044 1.01251 -1.86721 
3.46926 1.0613 -1.88905 3.42682 1.10793 -1.90413 3.38897 1.1544 -1.8891 
3.34559 1.19915 -1.86715 3.31621 1.24711 -1.83653 3.28624 1.29557 -1.82081 
3.23419 1.33879 -1.81447 3.18103 1.38206 -1.81565 3.14303 1.42947 -1.82291 
3.10225 1.47651 -1.83783 3.07665 1.52771 -1.85882 3.04831 1.57756 -1.86521 
2.99626 1.62078 -1.85887 2.94137 1.66263 -1.83795 2.89988 1.70819 -1.82326 
2.84597 1.75094 -1.81708 2.79262 1.79405 -1.81829 2.7526 1.83864 -1.81843 
2.70033 1.86973 -1.82031 2.64262 1.88196 -1.82378 2.58188 1.89875 -1.82718 
2.52233 1.91041 -1.83082 2.45905 1.93663 -1.83382 2.39566 1.96072 -1.82951 
2.33697 1.96133 -1.81145 2.27662 1.96065 -1.77128 2.20897 1.98337 -1.71528 
7.87445 -0.146006 -1.76816 7.92701 -0.132967 -1.75605 7.97748 -0.119448 -1.72173 
8.02231 -0.0968023 -1.65005 7.22033 1.45307 -1.50742 7.27575 1.4498 -1.48124 
7.32912 1.4468 -1.43286 7.38569 1.42877 -1.37774 7.44151 1.41621 -1.32979 
7.50071 1.39816 -1.30426 7.55921 1.38548 -1.28587 7.62136 1.35589 -1.26084 
7.68386 1.31468 -1.20675 7.74519 1.27033 -1.13062 7.80492 1.22447 -1.03237 
7.864 1.17813 -0.926755 7.9197 1.12996 -0.799187 7.96403 1.07793 -0.650361 
7.98968 1.0199 -0.473514 8.01748 0.961751 -0.281639 8.04523 0.0015742 -1.54544 
8.03292 0.0548143 -1.53556 8.02929 0.109589 -1.51007 8.04044 0.167112 -1.46099 
8.0466 0.223375 -1.41235 8.05937 0.282285 -1.38539 8.05898 0.339836 -1.40413 
8.05057 0.396343 -1.44586 8.04151 0.452359 -1.48021 8.03764 0.508052 -1.477 
8.03781 0.563132 -1.43633 8.01728 0.612341 -1.38265 8.0169 0.666957 -1.3346 
8.01141 0.721262 -1.30927 8.07667 -0.109386 -1.42359 8.11032 -0.162467 -1.31282 
8.14014 -0.215971 -1.21849 8.17611 -0.271402 -1.11267 8.2049 -0.3486 -0.970278 
2.17323 2.0637 -1.5417 2.20976 2.09559 -1.40306 2.07288 2.03956 -1.62499 
2.01257 2.03878 -1.58482 1.95168 2.03764 -1.53725 1.88513 2.06118 -1.49601 
1.81827 2.09625 -1.48383 1.75506 2.1248 -1.49412 1.69713 2.13785 -1.51987 
1.63787 2.15356 -1.53812 1.58227 2.15237 -1.54972 1.52818 2.14272 -1.55429 
1.47152 2.1405 -1.55114 1.4106 2.15239 -1.53998 1.35292 2.14904 -1.5221 
1.2987 2.13472 -1.51209 1.24741 2.10897 -1.50258 1.19937 2.06797 -1.48636 
1.14594 2.04026 -1.44737 1.0895 2.02176 -1.40057 1.03318 2.00538 -1.36108 
0.978901 1.98873 -1.34379 0.92818 1.96333 -1.34166 0.881783 1.92363 -1.34755 
0.832112 1.89671 -1.35289 0.782891 1.86803 -1.3583 0.739475 1.81669 -1.36471 
0.696485 1.76368 -1.37119 0.649765 1.72523 -1.37703 0.604326 1.68179 -1.38309 
0.557155 1.6451 -1.38885 0.511689 1.60176 -1.39491 0.464518 1.56508 -1.40067 
0.419052 1.52174 -1.40672 0.371882 1.48506 -1.41249 0.326416 1.44172 -1.41854 
0.279218 1.40514 -1.4243 0.233274 1.36367 -1.43027 0.183149 1.33852 -1.43553 
0.130972 1.32139 -1.44043 0.0808477 1.29625 -1.44569 0.0349036 1.25477 -1.45166 
-0.0123218 1.2183 -1.45741 -0.058266 1.17683 -1.46339 -0.108391 1.15168 -1.46864 
-0.16054 1.13445 -1.47355 -0.210211 1.10753 -1.47888 -0.253655 1.05629 -1.48529 
-0.29662 1.00318 -1.49177 -0.342859 0.962863 -1.4977 -0.385752 0.907336 -1.49688 
-0.426033 0.841195 -1.47422 -0.458917 0.773412 -1.41392 -0.479736 0.706924 -1.31543 
-0.514836 0.636073 -1.19966 -0.551394 0.56569 -1.08024 -0.581871 0.503092 -0.963619 
5.2385 -0.55304 -1.10896 5.30152 -0.526951 -1.21804 5.35125 -0.468723 -1.31492 
5.38701 -0.400788 -1.4085 5.40382 -0.336728 -1.47767 5.42221 -0.273139 -1.52442 
5.42369 -0.215118 -1.54299 5.42345 -0.15851 -1.53946 5.43445 -0.100045 -1.51266 
5.42899 -0.0467118 -1.46506 5.41149 0.00314862 -1.41112 5.3812 0.0477949 -1.35845 
5.32763 0.0741755 -1.30863 5.26808 0.0682937 -1.23895 5.21047 0.0393468 -1.14825 
5.15644 -0.00663001 -1.05092 5.09977 -0.0371151 -0.967683 5.04174 -0.0571126 -0.898771 
4.98481 -0.0762907 -0.844616 4.93187 -0.105877 -0.80571 5.14873 -0.488213 -0.947746 
5.12377 -0.433625 -0.927545 5.08267 -0.38637 -0.927594 5.04632 -0.338651 -0.930994 
5.00239 -0.294361 -0.901669 4.97192 -0.247331 -0.856295 4.9398 -0.20072 -0.811081 
8.2076 -0.591344 -0.769506 8.18387 -0.680196 -0.706125 8.13459 -0.769951 -0.576461 
4.81441 -0.124541 -0.688983 4.75429 -0.0859648 -0.624002 4.71162 -0.0413584 -0.594565 
4.65782 0.00141936 -0.588383 4.60631 0.0451027 -0.589421 4.57743 0.0944904 -0.58844 
4.54987 0.143885 -0.579917 4.51012 0.189556 -0.557643 4.49128 0.239516 -0.511244 
4.48519 0.292693 -0.463696 4.44226 0.337884 -0.449131 4.38257 0.381465 -0.495421 
7.92804 -1.01829 -0.516651 7.98557 -0.989587 -0.443659 7.88461 -0.926376 -0.767099 
7.91822 -0.861501 -0.849855 7.96042 -0.823865 -0.81464 8.00756 -0.844197 -0.648729 
7.82378 -1.06416 -0.519743 7.77484 -1.1248 -0.437837 7.72267 -1.17031 -0.362661 
7.67423 -1.23038 -0.288116 7.62669 -1.29908 -0.199178 7.57573 -1.35657 -0.102332 
7.5158 -1.37689 0.0110567 7.45543 -1.35748 0.134362 7.40749 -1.32099 0.267085 
7.35426 -1.28372 0.399479 7.31017 -1.24372 0.52526 7.27194 -1.20151 0.636731 
7.26612 -1.14915 0.736338 7.25729 -1.08943 0.836186 8.2537 -0.370543 -0.280201 
-0.547494 0.403969 -1.09383 -0.495566 0.363205 -1.31955 -0.465098 0.321326 -1.506 
-0.439537 0.277088 -1.64457 -0.409119 0.232329 -1.74189 -0.373686 0.187857 -1.81651 
-0.360705 0.137071 -1.87828 -0.339396 0.0874059 -1.91703 -0.342267 0.0300131 -1.92085 
-0.343601 -0.0289507 -1.88 -0.350539 -0.0906327 -1.80995 -0.381173 -0.158941 -1.72719 
-0.410726 -0.226325 -1.65917 -0.416784 -0.287132 -1.60389 -0.422302 -0.347476 -1.55599 
-0.452529 -0.415243 -1.4806 -0.487724 -0.483792 -1.36842 -0.515657 -0.537545 -1.225 
-0.565678 -0.556356 -1.08846 -0.624078 -0.536444 -0.964987 -0.668221 -0.498015 -0.854177 
-0.705316 -0.456033 -0.735202 -0.703549 -0.404177 -0.610266 -0.700211 -0.350269 -0.492529 
-0.726668 -0.294666 -0.401677 -0.64457 0.366441 -0.805632 -0.640322 0.302233 -0.775865 
-0.641898 0.243463 -0.764781 -0.666251 0.18044 -0.766805 -0.690935 0.117221 -0.76514 
-0.69483 0.0582647 -0.739358 -0.701429 -0.0030054 -0.676717 8.26928 0.522064 -0.447045 
8.33189 0.485748 -0.548913 8.37083 0.440201 -0.578682 8.39933 0.389739 -0.557435 
8.39322 0.32957 -0.517003 8.37991 0.267262 -0.469798 8.34673 0.198963 -0.402105 
8.22086 0.618625 -0.340345 8.22037 0.676149 -0.359094 8.19503 0.725125 -0.328111 
8.15038 0.767601 -0.261751 8.1173 0.812341 -0.17951 8.08409 0.858027 -0.119544 
8.14212 0.479166 -0.161388 8.08011 0.412333 0.0307988 8.23952 -0.0203781 -0.0422101 
8.22361 0.156501 -0.153337 8.14901 0.188602 -0.0228347 8.08701 0.227174 0.0792196 
8.04496 0.283278 0.176403 7.97252 -0.869054 -0.062478 7.92925 -0.552602 0.0435112 
8.07922 -0.216527 -0.133753 8.11586 -0.263591 -0.145432 8.15147 -0.286487 -0.00931164 
7.96765 0.875618 0.0441796 7.9077 0.83992 0.178935 7.85338 0.777085 0.32729 
7.80036 0.701432 0.497259 7.74683 0.62521 0.674589 7.69139 0.559013 0.844974 
7.63382 0.508867 0.993886 7.58108 0.444993 1.1274 -0.70185 -0.0491477 -0.381966 
-0.669948 -0.0780357 -0.180509 -0.732158 -0.139452 -0.46179 4.04259 0.0530542 -0.220973 
3.99085 0.0290646 -0.211395 3.93934 -0.000951053 -0.187291 3.88022 -0.00386506 -0.154598 
3.82327 -0.0229462 -0.100438 3.77146 -0.0672659 -0.0326062 3.71826 -0.108728 0.0427475 
3.66748 -0.154473 0.103131 3.61404 -0.184725 0.149403 3.56104 -0.216642 0.195603 
3.51381 -0.271121 0.24082 3.46658 -0.325599 0.286027 3.41414 -0.35716 0.324846 
3.36116 -0.389183 0.37104 3.31396 -0.443768 0.416253 3.26772 -0.499545 0.454007 
3.21881 -0.539753 0.477663 3.17073 -0.583174 0.501178 3.11733 -0.610989 0.540162 
3.06089 -0.629492 0.586961 3.00454 -0.645769 0.626452 2.94978 -0.660553 0.64383 
2.89668 -0.674054 0.639087 2.84511 -0.688392 0.619525 2.79655 -0.711946 0.592161 
2.75069 -0.751176 0.57889 2.70045 -0.778449 0.580937 2.64913 -0.806646 0.597726 
2.60165 -0.847274 0.606572 2.55096 -0.872775 0.608697 2.49878 -0.889906 0.603794 
2.44809 -0.915408 0.605919 2.40005 -0.956401 0.622145 2.34662 -0.98411 0.661133 
2.29018 -1.00261 0.707932 2.23329 -1.01935 0.754799 2.17691 -1.03552 0.794295 
2.11999 -1.05216 0.841166 2.06307 -1.06879 0.888047 2.00669 -1.08497 0.927543 
1.95194 -1.09975 0.944921 1.89826 -1.11361 0.947559 1.84513 -1.127 0.94282 
1.792 -1.1404 0.938081 1.73886 -1.15379 0.933343 1.68573 -1.16719 0.928604 
7.96437 -0.717237 0.115132 8.10112 -0.593421 0.022796 8.14881 -0.544554 0.0923735 
8.1733 -0.442184 0.161125 8.04264 -0.233433 0.1061 8.09318 -0.148643 0.107684 
7.75941 -0.620402 0.34742 7.87443 -0.479126 0.388907 7.92115 0.344339 0.275335 
-0.692054 -0.183336 -0.149045 7.80136 -0.806566 0.403303 8.01086 -0.37504 0.432242 
-0.637413 -0.0785714 0.119522 -0.629098 -0.0250578 0.197905 -0.601939 0.0238819 0.25506 
-0.561353 0.0605036 0.312427 -0.522821 0.109882 0.377888 -0.484246 0.156956 0.450653 
-0.439416 0.179602 0.522343 -0.391116 0.191269 0.586154 -0.341255 0.201995 0.635132 
-0.290313 0.213645 0.669368 -0.239822 0.227058 0.703681 -0.192888 0.249214 0.753162 
-0.150818 0.285213 0.818043 -0.105988 0.307859 0.889733 -0.0611579 0.330503 0.961423 
-0.0190875 0.366504 1.0263 0.0278192 0.388766 1.07579 0.0789134 0.404972 1.09544 
0.130147 0.430936 1.08594 0.179815 0.473317 1.0476 0.233781 0.501489 1.00123 
0.289681 0.519529 0.961813 7.60742 -0.760733 0.595986 7.53106 -0.768056 0.673642 
7.47208 -0.805421 0.778606 7.41599 -0.847259 0.88535 7.36342 -0.896679 0.960252 
7.3073 -0.943243 0.975536 7.77733 -0.690299 0.672407 7.82954 -0.651818 0.754935 
7.86191 -0.599596 0.768022 7.87994 -0.537842 0.715553 7.1546 -0.970621 1.03704 
7.07869 -0.931591 1.10833 7.01948 -0.891107 1.15118 6.97863 -0.846001 1.18078 
6.93644 -0.800294 1.188 6.9136 -0.749058 1.18209 6.91135 -0.691977 1.16319 
6.92685 -0.630862 1.15328 6.93927 -0.572835 1.15039 6.97059 -0.522552 1.15584 
7.01792 -0.494237 1.16109 7.06748 -0.467347 1.16642 7.11388 -0.427646 1.17231 
7.16406 -0.402713 1.17756 7.21671 -0.38745 1.18238 7.26982 -0.373948 1.18712 
7.32293 -0.360447 1.19186 7.37558 -0.345183 1.19669 7.42522 -0.320714 1.20931 
7.46999 -0.2824 1.23732 7.51685 -0.257824 1.27951 7.56191 -0.231388 1.31424 
7.59137 -0.181574 1.31953 7.59335 -0.125527 1.30086 7.5828 -0.0709784 1.28863 
7.56809 -0.0186702 1.30571 7.55108 0.0327306 1.33003 7.5278 0.0835306 1.33151 
7.5017 0.134925 1.30305 7.50551 0.194186 1.26984 7.50513 0.25174 1.2511 
7.50719 0.309255 1.24741 7.46403 0.411385 1.2581 
LINES 47 615
4 39 40 41 38 
11 36 42 43 44 45 46 47 48 49 50 38 
3 37 54 36 
100 35 64 65 66 67 68 69 70 71 72 73 74 75 76 77 78 79 80 81 82 83 84 85 86 87 88 89 90 91 92 93 94 95 96 97 98 99 100 101 102 103 104 105 106 107 108 109 110 111 112 113 114 115 116 117 118 119 120 121 122 123 124 125 126 127 128 129 130 131 132 133 134 135 136 137 138 139 140 141 142 143 144 145 146 147 148 149 150 151 152 153 154 155 156 157 158 159 160 161 30 
6 33 162 163 164 165 31 
18 32 166 167 168 169 170 171 172 173 174 175 176 177 178 179 180 181 18 
16 31 182 183 184 185 186 187 188 189 190 191 192 193 194 195 29 
7 31 196 197 198 199 200 24 
4 30 201 202 28 
57 30 203 204 205 206 207 208 209 210 211 212 213 214 215 216 217 218 219 220 221 222 223 224 225 226 227 228 229 230 231 232 233 234 235 236 237 238 239 240 241 242 243 244 245 246 247 248 249 250 251 252 253 254 255 256 257 20 
5 24 285 286 287 19 
14 27 288 289 290 291 292 293 294 295 296 297 298 299 23 
4 25 300 301 19 
6 25 302 303 304 305 19 
16 25 306 307 308 309 310 311 312 313 314 315 316 317 318 319 4 
3 24 320 8 
27 20 321 322 323 324 325 326 327 328 329 330 331 332 333 334 335 336 337 338 339 340 341 342 343 344 345 11 
9 20 346 347 348 349 350 351 352 17 
9 22 353 354 355 356 357 358 359 21 
8 22 360 361 362 363 364 365 18 
4 22 366 367 9 
3 21 368 8 
6 21 369 370 371 372 9 
3 19 373 10 
3 15 374 13 
5 14 375 376 377 8 
10 18 378 379 380 381 382 383 384 385 2 
4 17 386 387 7 
3 17 388 11 
48 16 389 390 391 392 393 394 395 396 397 398 399 400 401 402 403 404 405 406 407 408 409 410 411 412 413 414 415 416 417 418 419 420 421 422 423 424 425 426 427 428 429 430 431 432 433 434 0 
3 15 435 10 
5 15 436 437 438 8 
3 14 439 8 
3 14 440 8 
3 13 441 6 
3 13 442 5 
3 12 443 9 
3 11 444 7 
3 6 445 10 
3 8 446 5 
24 7 447 448 449 450 451 452 453 454 455 456 457 458 459 460 461 462 463 464 465 466 467 468 1 
8 6 469 470 471 472 473 474 4 
6 6 475 476 477 478 5 
34 4 479 480 481 482 483 484 485 486 487 488 489 490 491 492 493 494 495 496 497 498 499 500 501 502 503 504 505 506 507 508 509 510 2 
3 3 511 2 
15 38 51 52 53 34 63 62 61 60 59 58 57 56 55 36 
30 27 277 276 275 274 273 272 271 270 269 268 267 266 265 264 263 262 261 260 259 258 26 278 279 280 281 282 283 284 27 

POINT_DATA 512
SCALARS DY_raw double
LOOKUP_TABLE default
77.514 137.311 152.02 129.113 227.548 247.671 268.108 142.643 257.771 
192.651 283.577 130.665 158.02 186.285 209.921 252.347 185.107 137.807 
155.147 212.151 115.074 223.953 238.396 141.196 241.853 232.752 138.506 
105.562 223.335 175.236 118.838 155.107 105.167 157.954 118.891 150.052 
83.1026 90.4802 111.583 152.504 114.265 110.154 89.0196 101.588 112.53 
113.105 104.028 100.411 99.6554 103.363 107.688 117.591 113.846 106.633 
85.1712 93.3466 97.1223 103.011 108.593 117.611 123.35 122.345 126.891 
118.891 135.822 120.652 119.23 148.599 167.368 167.368 177.604 175.707 
175.707 177.479 203.775 213.763 213.763 214.614 190.579 190.579 171.887 
160.036 152.076 152.076 140.341 136.47 147.796 148.154 154.075 153.32 
153.32 149.405 153.651 153.651 131.766 131.766 118.129 126.48 126.48 
150.004 159.391 170.462 148.879 141.795 141.795 113.29 117.685 117.685 
110.597 110.597 117.08 144.143 143.492 157.729 209.189 185.7 191.624 
160.557 118.354 119.187 77.7477 87.8593 90.104 100.44 88.904 93.9951 
101.609 91.6607 96.6899 88.9566 88.9566 86.8274 86.8274 85.3565 99.9125 
90.5845 96.3532 119.32 119.32 159.913 181.164 167.263 167.717 154.024 
154.024 117.95 117.95 121.195 142.093 135.216 142.456 137.346 121.856 
111 111.246 109.181 101.136 104.831 103.376 103.376 123.36 132.319 
157.954 157.391 165.766 164.8 102.196 102.196 123.637 137.476 166.624 
156.242 174.749 179.495 141.623 125.526 108.921 109.014 110.871 130.04 
141.737 138.33 155.107 155.512 162.744 177.239 228.477 247.01 226.132 
172.805 174.044 174.044 146.535 166.902 171.505 165.291 178.783 192.199 
182.339 190.278 239.607 117.71 132.021 121.071 113.35 112.358 120.623 
120.623 144.573 131.735 131.735 133.164 130.359 130.359 137.149 169.821 
149.314 149.314 147.099 134.514 141.083 164.818 161.368 160.397 160.397 
188.771 161.878 171.689 171.689 156.324 137.274 167.883 143.045 143.273 
142.305 173.375 179.452 203.454 203.454 188.958 215.578 203.03 203.03 
208.37 148.658 148.658 168.233 153.634 196.088 142.604 171.128 162.905 
167.847 156.564 152.355 127.109 141.644 128.154 117.62 125.224 133.786 
133.258 141.367 113.601 115.151 134.514 119.354 133.349 133.705 141.85 
133.296 129.375 139.064 176.495 164.149 133.654 140.816 117.32 113.646 
114.513 119.428 114.253 118.847 116.896 124.13 206.515 194.832 191.798 
120.265 109.461 116.906 133.329 118.776 144.709 136.76 136.76 163.758 
203.14 184.82 156.689 213.915 208.701 223.604 217.959 205.261 183.798 
223.619 231.625 227.991 193.996 171.379 199.436 193.756 170.754 144.857 
182 193.616 194.498 203.613 225.718 259.324 137.651 125.916 111.227 
105.946 105.818 95.8472 102.728 100.997 100.997 111.596 134.915 121.513 
104.938 108.542 86.3265 77.263 86.8402 86.1803 82.9894 95.1262 86.7676 
92.9971 125.128 131.862 132.646 130.831 130.375 149.575 140.301 173.631 
173.631 151.276 192.003 184.139 212.197 239.214 254.162 224.971 218.224 
228.177 204.717 195.342 208.629 186.804 183.655 195.015 190.114 222.834 
204.032 179.093 163.812 161.009 290.525 221.506 212.904 229.012 241.753 
166.26 185.497 146.646 149.473 192.879 157.555 135.538 155.327 165.929 
136.792 135.285 145.564 131.414 151.957 139.639 134.449 141.771 138.151 
155.564 153.8 128.083 150.067 126.507 112.298 140.449 159.766 155.956 
199.275 128.09 141.015 135.928 126.815 126.815 151.807 164.824 147.405 
161.903 177.748 206.202 185.969 157.157 171.849 111.732 123.858 103.517 
111.494 111.494 116.894 114.607 123.123 120.451 109.327 113.912 113.912 
104.403 85.4527 77.514 289.427 289.237 298.212 301.667 233.425 226.686 
233.869 230.862 172.511 133.224 270.36 253.614 175.106 176.867 179.379 
166.831 183.108 150.339 140.785 165.411 125.355 136.735 131.269 144.318 
163.753 179.128 204.726 211.981 211.905 185.548 174.756 164.252 153.46 
136.126 231.557 222.316 218.967 232.705 220.027 240.236 273.563 300.984 
316.097 298.361 216.077 199.46 189.382 186.337 181.885 190.077 171.723 
180.067 195.386 213.152 237.104 252.75 252.75 264.787 270.644 266.547 
254.318 238.486 245.257 245.257 267.668 309.841 328.951 303.028 303.028 
283.1 269.97 269.97 196.397 166.814 167.656 132.793 119.948 
FIELD FieldData 7
DY_minmax 1 512 double
0.000997215 0.238579 0.297025 0.206011 0.597109 0.677062 0.758259 0.259765 0.717191 
0.458456 0.819721 0.212177 0.32086 0.433165 0.527073 0.695639 0.428485 0.240551 
0.309448 0.535932 0.15023 0.582823 0.640209 0.254015 0.653943 0.617783 0.24333 
0.112437 0.580371 0.389265 0.165186 0.309287 0.110866 0.320599 0.165396 0.289202 
0.0232018 0.0525142 0.136359 0.298946 0.147017 0.130682 0.046711 0.0966478 0.140123 
0.142407 0.106343 0.091973 0.0889688 0.103699 0.120886 0.160228 0.145351 0.11669 
0.0314207 0.0639029 0.0789046 0.1023 0.124479 0.160308 0.18311 0.179118 0.197181 
0.165396 0.232667 0.172392 0.166744 0.28343 0.358004 0.358004 0.398673 0.391136 
0.391136 0.398176 0.502656 0.542337 0.542337 0.545719 0.450224 0.450224 0.375959 
0.328873 0.297246 0.297246 0.250619 0.23524 0.280238 0.281661 0.305188 0.302189 
0.302189 0.286632 0.303504 0.303504 0.216551 0.216551 0.162366 0.195549 0.195549 
0.289012 0.326309 0.370295 0.284544 0.256397 0.256397 0.143141 0.160603 0.160603 
0.132443 0.132443 0.158198 0.265725 0.26314 0.319706 0.524165 0.43084 0.454374 
0.33094 0.16326 0.166573 0.00192599 0.0421008 0.0510196 0.0920844 0.0462516 0.0664796 
0.0967329 0.0572047 0.0771864 0.0464607 0.0464607 0.0380012 0.0380012 0.032157 0.0899905 
0.0529288 0.0758486 0.167101 0.167101 0.328385 0.412816 0.357587 0.359391 0.304986 
0.304986 0.161657 0.161657 0.174549 0.257579 0.230256 0.259021 0.238719 0.177176 
0.134043 0.135021 0.126816 0.0948527 0.109533 0.103753 0.103753 0.183152 0.218746 
0.320599 0.318361 0.351637 0.347799 0.0990637 0.0990637 0.184252 0.239236 0.355046 
0.313798 0.387329 0.406184 0.255714 0.191757 0.125782 0.126152 0.133531 0.209694 
0.256166 0.242631 0.309287 0.310897 0.339631 0.397223 0.600799 0.674436 0.591483 
0.379605 0.384528 0.384528 0.27523 0.356152 0.374442 0.349749 0.403359 0.45666 
0.417486 0.449027 0.645022 0.160702 0.217563 0.174055 0.143379 0.139439 0.172278 
0.172278 0.267434 0.216428 0.216428 0.222105 0.210959 0.210959 0.237939 0.367748 
0.286273 0.286273 0.277471 0.227468 0.253569 0.347869 0.334165 0.330306 0.330306 
0.443042 0.336191 0.375171 0.375171 0.314125 0.238435 0.360051 0.261365 0.26227 
0.258423 0.381869 0.406014 0.501377 0.501377 0.443783 0.549548 0.499695 0.499695 
0.520912 0.283666 0.283666 0.361438 0.303437 0.472112 0.259612 0.37294 0.34027 
0.359906 0.315078 0.298354 0.198046 0.255799 0.202201 0.160345 0.190558 0.224575 
0.222478 0.254697 0.144377 0.150535 0.227467 0.167237 0.222838 0.224255 0.256614 
0.222628 0.207051 0.245544 0.394266 0.345215 0.224053 0.252509 0.159155 0.144556 
0.148 0.16753 0.146966 0.165221 0.157468 0.186209 0.513539 0.46712 0.455069 
0.170854 0.127927 0.157508 0.222761 0.164939 0.267975 0.236394 0.236394 0.34366 
0.50013 0.427342 0.315573 0.542942 0.522227 0.581437 0.55901 0.508557 0.423281 
0.581499 0.613309 0.598869 0.463801 0.373937 0.485414 0.462846 0.371456 0.268562 
0.41614 0.462291 0.465793 0.502009 0.589839 0.723359 0.23993 0.193305 0.134944 
0.113962 0.113455 0.0738384 0.101177 0.0942997 0.0942997 0.136413 0.22906 0.175813 
0.109959 0.124277 0.0360108 0 0.0380518 0.03543 0.0227519 0.0709736 0.0377636 
0.0625145 0.190176 0.216933 0.220046 0.212834 0.211025 0.287309 0.25046 0.382888 
0.382888 0.294068 0.455883 0.424638 0.536118 0.643458 0.702849 0.586872 0.560063 
0.599606 0.506396 0.469148 0.521939 0.435224 0.422714 0.46785 0.448375 0.578378 
0.503677 0.404587 0.343873 0.332736 0.847328 0.573103 0.538925 0.602927 0.653549 
0.353599 0.430034 0.275669 0.286901 0.459361 0.319015 0.231535 0.310164 0.352285 
0.236518 0.230531 0.271373 0.215151 0.296771 0.247832 0.227208 0.256301 0.24192 
0.311105 0.304097 0.201916 0.289263 0.195656 0.139198 0.251048 0.327799 0.312662 
0.484774 0.201943 0.2533 0.233086 0.196878 0.196878 0.296177 0.347896 0.278687 
0.336288 0.399244 0.512296 0.431907 0.317431 0.375807 0.136952 0.185129 0.104314 
0.136004 0.136004 0.157462 0.148376 0.18221 0.171594 0.127398 0.145613 0.145613 
0.107834 0.0325391 0.000997215 0.842966 0.84221 0.87787 0.891596 0.620458 0.593683 
0.622222 0.610276 0.378439 0.222343 0.767209 0.700672 0.388745 0.395742 0.405725 
0.35587 0.420541 0.290343 0.252383 0.350227 0.191079 0.236291 0.214573 0.266421 
0.343642 0.404729 0.506431 0.535257 0.534956 0.430235 0.387356 0.345622 0.302743 
0.233874 0.613037 0.57632 0.563016 0.617599 0.567227 0.647519 0.779935 0.888882 
0.948929 0.878463 0.551531 0.485509 0.445468 0.433369 0.41568 0.44823 0.375307 
0.408459 0.469323 0.539909 0.635076 0.697241 0.697241 0.745067 0.768336 0.752057 
0.703469 0.640569 0.66747 0.66747 0.756512 0.924073 1 0.897002 0.897002 
0.817828 0.765659 0.765659 0.473339 0.355802 0.359149 0.220629 0.169594 
WidthEq 1 512 double
2.40865 1.72328 3.47916 3.17321 3.59746 5.14696 5.03941 3.38141 5.79601 
3.55713 5.01915 4.78324 3.21982 5.42723 5.13286 5.27929 1.73642 4.06979 
5.33902 4.94542 4.15431 4.603 3.21349 2.42305 4.02474 4.03784 3.67358 
3.4222 1.63429 3.14247 3.95061 4.06006 4.58714 4.03696 2.87308 1.68931 
3.81798 3.21998 2.68244 1 1.99067 2.39087 3.69081 3.27434 2.8447 
2.71052 2.57867 2.80181 2.91398 2.89702 2.75809 2.65612 2.78687 2.84936 
3.74873 3.41142 3.23586 2.75869 2.65712 2.29932 2.5013 2.5551 2.53764 
2.87308 2.03445 2.1593 2.09036 2.00415 1.90218 1.90218 1.81271 1.57406 
1.57406 1.54094 1.46217 1.53448 1.53448 1.69301 1.9112 1.9112 1.96282 
1.80186 1.86271 1.86271 1.98398 2.19729 2.17404 1.92202 1.98678 2.01209 
2.01209 2.04019 2.09666 2.09666 2.14648 2.14648 2.12416 2.14392 2.14392 
2.11364 2.11702 2.03227 2.16594 2.25081 2.25081 2.60839 2.76811 2.76811 
2.95879 2.95879 2.95461 2.50678 2.57383 2.37987 1.87263 2.07799 2.00985 
2.3108 2.64397 2.82533 3.41546 3.37089 3.36571 2.9205 3.01453 2.63741 
2.56565 2.62123 2.49048 2.44719 2.44719 2.37787 2.37787 2.26185 2.1251 
2.10162 2.03381 1.84599 1.84599 1.80263 1.76108 1.76592 1.90168 1.94076 
1.94076 2.19605 2.19605 2.32942 2.24849 2.26197 2.36793 2.55198 2.842 
3.0595 3.18711 3.1057 3.30518 3.23734 3.41436 3.41436 3.52881 3.72845 
4.03696 4.28675 4.12373 4.1794 4.72674 4.72674 4.13059 3.75305 3.36641 
3.26982 3.00879 2.84546 3.4088 3.64342 4.2232 4.57514 4.84251 4.74848 
4.44262 5.05821 4.06006 3.82044 2.95983 2.96771 2.25543 2.19681 2.22845 
2.49868 2.75927 2.75927 3.20499 3.07602 3.09794 3.16439 3.94345 4.0194 
4.03152 4.09677 3.80604 3.87839 3.13393 3.8444 3.67344 3.58277 2.71526 
2.71526 2.00497 1.9459 1.9459 1.81749 1.87915 1.87915 1.93376 1.82389 
1.84881 1.84881 1.79616 1.99559 2.11084 1.86645 2.29038 2.47252 2.47252 
2.38047 2.48702 2.20139 2.20139 2.10936 2.22703 1.98884 2.19381 2.17454 
2.22237 1.9371 2.1007 2.09028 2.09028 2.16828 1.9492 1.94318 1.94318 
1.78554 2.1249 2.1249 2.09118 2.56879 2.31638 3.1209 2.93661 3.08624 
3.16499 3.42418 3.35725 3.62732 3.74779 4.08963 3.66132 3.37055 3.37161 
3.32539 2.93182 3.13751 3.24196 3.0589 3.70237 3.70161 4.0253 4.02436 
4.10579 3.96369 3.68122 3.29156 3.33461 3.76713 3.62042 3.93609 4.27507 
4.42652 4.28051 3.48914 3.57471 3.45268 3.43322 4.45143 4.85011 4.74824 
3.81004 3.57273 3.14513 2.98467 2.95753 2.8825 3.06868 3.06868 3.02381 
2.69974 2.86 2.36861 4.52153 4.64427 3.6081 3.47576 3.70643 4.26945 
4.70095 4.77402 4.69985 4.9861 5.19963 4.67145 4.69557 4.97736 4.63357 
4.16584 3.65292 3.57343 3.52451 3.67282 5.22985 3.8282 3.76549 3.60268 
3.42056 3.56615 3.6617 3.86918 3.88867 3.88867 3.41798 3.00889 3.36025 
3.65228 3.84666 4.69397 5.59743 5.72136 5.52428 5.67596 5.45143 5.3714 
5.23913 4.7447 4.67771 4.70481 4.05022 3.8595 3.8512 3.88611 3.82422 
3.82422 3.91161 3.55215 3.34483 3.12697 3.28528 3.19007 3.87046 4.64511 
3.28576 3.29838 3.21213 3.14911 3.84106 4.62064 3.57579 3.70865 5.52252 
5.18934 4.83473 4.38018 4.0213 4.7585 5.79467 5.33482 5.64949 5.80589 
5.60133 5.25681 4.45301 3.83404 3.61976 3.6008 4.07285 3.8403 3.8163 
4.07769 4.49905 2.97411 3.54501 3.40165 4.05984 4.21822 4.02942 4.03698 
3.74343 3.78396 4.43544 3.68258 4.14327 4.33717 3.8232 3.73987 3.90189 
3.2618 4.11223 3.92825 3.8453 3.6511 3.6511 3.21647 2.8726 3.15487 
2.88602 2.56405 2.36658 2.56863 2.78171 2.52398 3.26132 3.17763 3.6571 
3.6076 3.6076 3.59594 3.76227 3.51741 3.33525 3.52587 3.34007 3.34007 
3.43058 2.9185 2.40865 4.9738 4.5801 4.45701 4.5977 5.23057 5.44919 
5.49464 5.30102 3.53979 4.38092 5.28437 5.60011 2.82957 2.7262 2.72018 
2.75443 2.63977 2.72314 2.35788 2.17424 2.31952 2.27678 2.02169 1.96326 
1.7366 1.97486 1.88317 2.01695 2.01951 2.20005 2.35994 2.56219 2.46073 
2.51828 4.96536 5.03021 5.004 4.49231 4.31739 3.83092 4.91021 4.39324 
4.19632 4.43386 3.29542 2.91018 2.56875 2.35822 2.77475 2.91694 3.05174 
3.16795 3.13239 2.86676 2.62397 2.31784 2.31784 2.173 2.16326 2.03013 
2.19853 2.59505 2.66294 2.66294 2.56667 2.48032 2.23843 2.20163 2.20163 
1.95854 1.89934 1.89934 2.37145 2.67534 2.81065 3.56039 3.4327 
rRFP 1 512 double
3456.4 3113.75 3991.6 3838.64 4050.74 4825.41 4771.64 3942.73 5149.9 
4030.58 4761.51 4643.57 3861.94 4965.53 4818.36 4891.57 3120.32 4286.88 
4921.43 4724.65 4329.14 4553.46 3858.78 3463.6 4264.36 4270.91 4088.8 
3963.12 3069.26 3823.27 4227.3 4282.02 4545.53 4270.47 3688.59 3096.77 
4160.99 3862.02 3593.28 2752.15 3247.43 3447.51 4097.41 3889.2 3674.4 
3607.32 3541.4 3652.96 3709.04 3700.56 3631.1 3580.12 3645.49 3676.73 
4126.37 3957.73 3869.96 3631.4 3580.62 3401.74 3502.72 3529.62 3520.89 
3688.59 3269.32 3331.74 3297.27 3254.17 3203.19 3203.19 3158.46 3039.15 
3039.15 3022.59 2983.21 3019.36 3019.36 3098.62 3207.7 3207.7 3233.51 
3153.04 3183.46 3183.46 3244.09 3350.73 3339.11 3213.11 3245.49 3258.14 
3258.14 3272.19 3300.42 3300.42 3325.33 3325.33 3314.17 3324.05 3324.05 
3308.91 3310.6 3268.23 3335.06 3377.49 3377.49 3556.26 3636.11 3636.11 
3731.44 3731.44 3729.35 3505.46 3538.98 3442.01 3188.42 3291.09 3257.02 