# vtk DataFile Version 3.0
vtk output
ASCII
DATASET POLYDATA
POINTS 260 float
0.138574 0.340836 0.0581658 0.260708 1.24389 0.188134 0.398509 1.15702 0.206988 
-0.307543 0.102976 -0.058879 -0.409993 0.25017 -0.343425 1.68431 1.50153 -0.0450906 
2.00877 1.42433 -0.205002 2.25822 1.36537 -0.374548 -0.544479 -0.313017 -0.885354 
-0.766955 0.303036 -1.1276 2.80994 1.19625 -0.90759 2.09533 -0.549433 -1.15961 
5.50368 -0.29395 -1.14819 5.10032 -0.172824 -1.51628 1.2449 -0.855773 -2.13125 
1.59291 -1.01929 -2.2192 3.56188 -0.535683 -2.18853 5.31998 -0.0491802 -2.14359 
5.34234 -0.350322 -2.51059 5.04653 -0.131124 -2.61895 5.45886 -0.383664 -2.65477 
5.54451 -0.386486 -2.77853 5.59064 -0.339117 -2.86593 5.623 -0.278218 -2.91053 
5.65527 -0.225955 -2.90768 5.67245 -0.160697 -2.86218 5.6682 -0.093349 -2.78204 
5.62518 -0.0441263 -2.66747 5.54389 -0.0172716 -2.52278 5.44039 -0.014331 -2.343 
5.26434 -0.367451 -2.55218 5.19919 -0.356123 -2.58285 5.14965 -0.324788 -2.59959 
5.09697 -0.293153 -2.60925 5.06014 -0.251449 -2.61468 5.0419 -0.198319 -2.61808 
4.95976 -0.110836 -2.53303 4.87661 -0.0911816 -2.47652 4.79804 -0.0724124 -2.45675 
4.72313 -0.0556707 -2.45888 4.65428 -0.0476085 -2.46753 4.59333 -0.0524117 -2.47494 
4.5253 -0.0431354 -2.47606 4.46033 -0.0188488 -2.46219 4.41312 0.020628 -2.42408 
4.36649 0.0613122 -2.37843 4.30801 0.0939886 -2.34156 4.25581 0.129102 -2.31889 
4.19923 0.16152 -2.2967 4.15524 0.203109 -2.25823 4.11801 0.250282 -2.20411 
4.08141 0.298563 -2.14247 4.04491 0.346902 -2.08082 4.00931 0.395081 -2.02653 
3.97552 0.442945 -1.98693 3.94445 0.490333 -1.96939 3.91529 0.537462 -1.96653 
3.88857 0.585382 -1.97086 3.86934 0.638618 -1.96691 3.8595 0.69906 -1.94703 
3.82398 0.745859 -1.90763 3.7553 0.7737 -1.85697 3.67561 0.795482 -1.80007 
3.60176 0.821569 -1.73508 3.53976 0.855663 -1.66133 3.46319 0.882225 -1.5743 
3.37969 0.904526 -1.48802 3.30222 0.931251 -1.39364 3.23849 0.965709 -1.30518 
3.16256 0.993383 -1.21063 3.08754 1.0209 -1.12341 3.02391 1.05541 -1.03496 
2.9517 1.08251 -0.969785 2.88384 1.11014 -0.926488 2.84102 1.1503 -0.910237 
5.07469 -0.0785587 -2.57929 5.11491 -0.051391 -2.50623 5.14983 -0.0186656 -2.39962 
5.21466 -0.0199149 -2.27366 5.3502 -0.252934 -2.40223 5.34531 -0.157954 -2.27947 
5.21523 -0.0900076 -1.89508 5.13604 -0.12795 -1.68231 3.51781 -0.56326 -2.22323 
3.47039 -0.582632 -2.27344 3.41513 -0.58768 -2.3324 3.36163 -0.596979 -2.38358 
3.30275 -0.601393 -2.41314 3.25171 -0.620133 -2.43396 3.20582 -0.647392 -2.45395 
3.16084 -0.674811 -2.4813 3.10901 -0.693571 -2.49475 3.0485 -0.700661 -2.49459 
2.99914 -0.72887 -2.47767 2.96363 -0.778673 -2.46605 2.92217 -0.81728 -2.46286 
2.87652 -0.84761 -2.46783 2.82988 -0.876294 -2.47296 2.78223 -0.903331 -2.47825 
2.72944 -0.921847 -2.48436 2.66793 -0.927274 -2.48435 2.61242 -0.945316 -2.46841 
2.55929 -0.97131 -2.42961 2.50525 -0.997145 -2.38345 2.44697 -1.01462 -2.34547 
2.38265 -1.01808 -2.33093 2.32275 -1.02618 -2.33067 2.25925 -1.02831 -2.33098 
2.19844 -1.03625 -2.32338 2.13407 -1.03962 -2.30885 2.07926 -1.05615 -2.30778 
2.02538 -1.07152 -2.32156 1.96124 -1.06723 -2.35195 1.89525 -1.06124 -2.37513 
1.83426 -1.06619 -2.38254 1.76179 -1.0575 -2.3618 1.67963 -1.03949 -2.30513 
1.55799 -1.04994 -2.3199 1.51844 -1.07831 -2.39134 1.46831 -1.09566 -2.42701 
1.40324 -1.08838 -2.44265 1.34126 -1.06326 -2.43838 1.30507 -1.01493 -2.39412 
1.28361 -0.94224 -2.28635 1.59392 -0.951464 -2.19068 1.57015 -0.897441 -2.14999 
1.52535 -0.855636 -2.10414 1.45716 -0.829328 -2.07082 1.38263 -0.812799 -2.06791 
1.31123 -0.815411 -2.09159 5.13506 -0.209922 -1.38207 5.17906 -0.243978 -1.28259 
5.23771 -0.267483 -1.21513 5.30698 -0.284536 -1.18011 5.37483 -0.292497 -1.1641 
5.43582 -0.287543 -1.15669 1.15178 -0.843732 -2.08077 1.07634 -0.84573 -2.02283 
0.999012 -0.836123 -1.97036 0.919222 -0.818532 -1.9333 0.840656 -0.799764 -1.91352 
0.762034 -0.7809 -1.89376 0.681601 -0.761721 -1.8593 0.60026 -0.742383 -1.81747 
0.518921 -0.723045 -1.77566 0.438488 -0.703865 -1.7412 0.357148 -0.684528 -1.69938 
0.275807 -0.66519 -1.65756 0.194468 -0.645852 -1.61575 0.114035 -0.626672 -1.58129 
0.0318822 -0.607119 -1.53211 -0.0505383 -0.586299 -1.46806 -0.127109 -0.559737 -1.38103 
-0.18928 -0.52432 -1.2924 -0.256741 -0.491441 -1.19691 -0.318819 -0.455966 -1.10828 
-0.393659 -0.428341 -1.02106 -0.464232 -0.400235 -0.955701 -0.51068 -0.359442 -0.91005 
2.04305 -0.575491 -1.12817 1.98105 -0.590843 -1.0683 1.90147 -0.582462 -0.981233 
1.81584 -0.563857 -0.895136 1.73439 -0.54329 -0.838438 1.66587 -0.51821 -0.817561 
1.61302 -0.485647 -0.817308 1.54978 -0.460189 -0.82565 1.48662 -0.434679 -0.833983 
1.43631 -0.401263 -0.840902 1.38153 -0.370601 -0.848314 1.33114 -0.337241 -0.855243 
1.26634 -0.312738 -0.863756 1.19298 -0.293501 -0.873212 1.11808 -0.275215 -0.882837 
1.04308 -0.256985 -0.892472 0.968079 -0.238755 -0.902108 0.893136 -0.22062 -0.911734 
0.818226 -0.203878 -0.913859 0.746655 -0.195341 -0.90047 0.681086 -0.199418 -0.871134 
0.607797 -0.190507 -0.843039 0.532804 -0.172385 -0.830268 0.467891 -0.146652 -0.823897 
0.425887 -0.106702 -0.814998 0.392088 -0.0602768 -0.790303 0.356571 -0.0134772 -0.750902 
0.30823 0.0290132 -0.675659 0.243165 0.0655124 -0.557552 0.194682 0.116069 -0.397897 
0.168472 0.181786 -0.228355 0.144406 0.251761 -0.0760654 2.74208 1.20266 -0.91609 
2.68019 1.19787 -0.916147 2.60862 1.2064 -0.902758 2.52837 1.22415 -0.860776 
2.44519 1.24509 -0.789362 2.36754 1.27314 -0.680092 2.30923 1.31594 -0.538895 
2.79194 1.26884 -0.709813 2.76095 1.33333 -0.513461 2.733 1.39683 -0.324182 
2.68833 1.4362 -0.158837 2.62542 1.44223 -0.0398092 2.55033 1.45135 0.0253881 
2.47985 1.45828 0.0389563 2.42163 1.45277 0.00949695 2.36204 1.45757 -0.0651296 
2.30806 1.45844 -0.168852 2.2741 1.42754 -0.27688 -0.69191 0.295455 -1.17791 
-0.632823 0.302214 -1.16331 -0.580984 0.306219 -1.06742 -0.538793 0.315778 -0.915613 
-0.49133 0.310109 -0.740433 -0.445431 0.288732 -0.547692 2.17507 1.38502 -0.318029 
2.09192 1.40468 -0.26152 1.63047 1.48475 -0.0513648 1.56876 1.48099 -0.0588888 
1.50877 1.47439 -0.06614 1.44003 1.48226 -0.0747812 1.36708 1.49711 -0.0840915 
1.29933 1.50334 -0.0925745 1.24458 1.48672 -0.0914959 1.19507 1.46009 -0.0820983 
1.14565 1.43198 -0.0651899 1.0981 1.40345 -0.062968 1.05236 1.37461 -0.0754515 
1.00746 1.3457 -0.0952869 0.958916 1.31882 -0.093223 0.901597 1.3011 -0.0625868 
0.834706 1.29653 -0.0184673 0.776512 1.27757 0.0270234 0.728585 1.24296 0.0666493 
0.683295 1.20265 0.11419 0.621427 1.18963 0.15911 0.556542 1.18046 0.196098 
0.482011 1.17611 0.209399 -0.375461 0.320348 -0.181419 -0.359726 0.392496 -0.0391965 
-0.339162 0.447743 0.0691455 -0.29397 0.465117 0.151477 -0.238652 0.474091 0.187962 
-0.1691 0.466001 0.189251 -0.091529 0.447475 0.156902 -0.0193884 0.421256 0.116592 
0.0466754 0.38243 0.0807735 -0.389519 0.177533 -0.239797 -0.359437 0.129457 -0.145471 
0.177767 0.420284 0.125975 0.200844 0.49771 0.171948 0.218227 0.573858 0.192353 
0.235998 0.649563 0.197891 0.254292 0.72516 0.198517 0.272644 0.800663 0.199153 
0.291933 0.874614 0.199937 0.316391 0.940091 0.20154 0.348866 0.993532 0.204392 
0.374842 1.06531 0.206047 0.312505 1.19899 0.195485 
LINES 20 301
12 18 20 21 22 23 24 25 26 27 28 29 17 
8 18 30 31 32 33 34 35 19 
41 19 36 37 38 39 40 41 42 43 44 45 46 47 48 49 50 51 52 53 54 55 56 57 58 59 60 61 62 63 64 65 66 67 68 69 70 71 72 73 74 10 
6 19 75 76 77 78 17 
4 18 79 80 17 
36 16 83 84 85 86 87 88 89 90 91 92 93 94 95 96 97 98 99 100 101 102 103 104 105 106 107 108 109 110 111 112 113 114 115 116 15 
9 15 117 118 119 120 121 122 123 14 
8 15 124 125 126 127 128 129 14 
25 14 136 137 138 139 140 141 142 143 144 145 146 147 148 149 150 151 152 153 154 155 156 157 158 8 
34 11 159 160 161 162 163 164 165 166 167 168 169 170 171 172 173 174 175 176 177 178 179 180 181 182 183 184 185 186 187 188 189 190 0 
9 10 191 192 193 194 195 196 197 7 
13 10 198 199 200 201 202 203 204 205 206 207 208 7 
8 9 209 210 211 212 213 214 4 
4 7 215 216 6 
23 5 217 218 219 220 221 222 223 224 225 226 227 228 229 230 231 232 233 234 235 236 237 2 
11 4 238 239 240 241 242 243 244 245 246 0 
4 4 247 248 3 
12 0 249 250 251 252 253 254 255 256 257 258 2 
3 2 259 1 
11 17 81 82 13 130 131 132 133 134 135 12 

POINT_DATA 260
SCALARS DY_raw double
LOOKUP_TABLE default
157.733 157.584 110.331 146.83 136.343 91.6398 148.81 78.2473 127.107 
224.818 140.257 61.1749 117.104 215.47 133.954 139.838 155.27 178.288 
178.503 157.619 162.849 138.001 131.623 121.36 129.036 119.712 106.523 
114.779 136.818 156.273 166.498 192.784 212.383 212.383 176.556 176.556 
149.71 159.902 169.168 174.962 169.644 176.947 166.115 170.711 182.855 
185.412 173.708 196.067 152.922 160.613 152.884 154.498 163.632 176.77 
161.319 173.488 168.313 179.095 179.095 170.809 182.488 182.887 149.403 
162.007 162.112 122.944 120.274 107.167 110.979 120.597 123.9 121.03 
138.69 139.265 148.529 168.781 182.589 197.349 184.58 177.852 174.322 
171.947 190.683 155.27 146.808 130.784 126.583 138.813 133.613 148.824 
173.702 173.702 166.506 161.518 161.518 181.981 201.85 201.85 216.876 
209.591 209.591 184.663 202.842 224.705 211.166 211.166 186.739 163.808 
171.367 156.079 129.081 129.081 128.8 120.78 115.364 118.104 119.651 
144.958 131.976 136.396 132.633 124.349 119.701 136.443 139.838 132.578 
136.16 148.412 139.521 136.613 209.887 206.439 185.594 172.414 142.333 
133.564 132.254 152.064 161.652 166.73 144.667 153.012 153.012 166.059 
167.838 175.329 137.021 136.01 132.035 116.934 121.047 122.432 111.637 
127.386 141.975 136.165 139.687 122.67 120.719 79.2236 82.7907 76.4049 
90.3972 116.621 115.8 123.32 128.264 141.845 150.222 134.746 123.526 
135.06 130.779 128.432 128.432 138.51 146.773 156.701 182.215 192.725 
186.507 171.116 149.867 149.867 139.615 101.958 114.771 113.249 118.043 
140.011 137.088 127.796 106.433 101.101 105.626 107.991 104.156 80.3539 
117.707 101.35 105.548 128.631 140.702 153.858 157.4 140.171 130.605 
76.9811 76.8379 185.552 136.31 141.929 148.326 142.647 139.554 99.5623 
133.438 107.632 139.327 139.294 151.646 142.42 145.612 147.463 145.117 
153.58 157.185 164.49 146.908 179.297 191.618 194.323 181.642 194.787 
189.353 133.19 115.774 100.704 146.109 142.771 165.655 153.766 167.811 
189.103 191.119 178.47 166.575 137.345 144.862 151.314 159.887 154.066 
152.649 177.7 164.763 152.47 112.645 115.786 114.761 121.171 
FIELD FieldData 7
DY_minmax 1 260 double
0.590055 0.589143 0.300385 0.523428 0.459342 0.186167 0.535524 0.104327 0.402902 
1 0.483259 0 0.341773 0.942873 0.444743 0.480698 0.575003 0.715661 
0.716977 0.589355 0.621318 0.469472 0.430498 0.367784 0.414686 0.357715 0.277115 
0.327565 0.462244 0.58113 0.643616 0.804245 0.924013 0.924013 0.705076 0.705076 
0.541024 0.603307 0.659931 0.695336 0.662837 0.707464 0.641272 0.669359 0.743567 
0.759197 0.687676 0.824305 0.560654 0.60765 0.560423 0.570284 0.626102 0.706388 
0.611968 0.68633 0.654708 0.720593 0.720593 0.669959 0.74133 0.743763 0.539148 
0.616172 0.616814 0.377459 0.361146 0.281053 0.304348 0.363117 0.383306 0.365763 
0.473681 0.477195 0.533806 0.657566 0.741944 0.832142 0.754108 0.712996 0.691423 
0.676915 0.791403 0.575003 0.523291 0.425371 0.3997 0.474433 0.442659 0.535611 
0.687637 0.687637 0.643662 0.613185 0.613185 0.738227 0.859642 0.859642 0.951469 
0.906951 0.906951 0.754616 0.865709 0.999306 0.916576 0.916576 0.767302 0.627174 
0.673369 0.579943 0.414963 0.414963 0.413244 0.364241 0.331142 0.347888 0.357342 
0.511989 0.432657 0.459665 0.43667 0.386048 0.357645 0.459956 0.480698 0.436334 
0.458221 0.533094 0.478762 0.460989 0.908756 0.887687 0.760308 0.679763 0.495946 
0.442359 0.434353 0.55541 0.614002 0.645034 0.510207 0.561204 0.561204 0.640933 
0.651803 0.69758 0.463485 0.457307 0.433013 0.340739 0.36587 0.374335 0.308367 
0.404607 0.493755 0.458251 0.479779 0.37579 0.363864 0.110293 0.132091 0.0930684 
0.178574 0.338823 0.333807 0.379757 0.409974 0.492962 0.544152 0.449583 0.381019 
0.451503 0.425343 0.410998 0.410998 0.472586 0.52308 0.583747 0.739657 0.803883 
0.765886 0.671833 0.541982 0.541982 0.479335 0.249218 0.327518 0.31822 0.347512 
0.481756 0.463895 0.407111 0.276568 0.243985 0.271636 0.286088 0.262651 0.1172 
0.345462 0.245503 0.271156 0.412217 0.485979 0.56637 0.588018 0.482734 0.424277 
0.0965894 0.0957149 0.760051 0.459142 0.493474 0.532567 0.497866 0.478965 0.23458 
0.441592 0.283893 0.477577 0.477377 0.552858 0.49648 0.515983 0.527294 0.512957 
0.564674 0.586702 0.631342 0.523902 0.721825 0.79712 0.813647 0.736157 0.816487 
0.783279 0.440073 0.333647 0.241558 0.519018 0.49862 0.638461 0.565808 0.651641 
0.781753 0.794069 0.716773 0.644083 0.465466 0.511401 0.550829 0.603215 0.567644 
0.558983 0.712068 0.633012 0.557892 0.314524 0.333718 0.327455 0.366629 
WidthEq 1 260 double
2.20232 1.00118 1.73868 1.72594 3.43516 1.56177 1.85519 2.9187 3.0291 
1.20102 2.71537 1.60899 1.24906 2.13835 3.63961 3.19255 2.88188 3.12702 
1.99615 2.62856 2.27265 2.32673 2.48103 2.38439 2.3168 2.43308 2.68496 
2.8128 3.13299 3.24612 1.99918 1.81721 1.78032 1.78032 2.3729 2.3729 
2.58674 2.44275 2.13645 2.13063 2.13117 2.20445 2.25988 2.19371 2.1184 
1.75458 1.63556 1.53759 1.76417 1.77863 1.93172 2.13233 2.06054 1.89342 
2.07861 1.88111 2.17368 2.33993 2.33993 2.55197 2.47813 2.54507 2.45323 
2.546 2.53818 2.58525 2.69743 2.85078 2.91144 3.07364 3.17868 3.31324 
3.24776 2.90993 2.8748 2.5062 2.2647 2.10323 2.52867 2.31057 2.94657 
2.89321 2.50149 2.88188 3.13825 3.23319 3.24909 3.06723 2.9578 2.7333 
2.5542 2.5542 2.53384 2.46659 2.46659 2.26376 1.96651 1.96651 1.81855 
1.84655 1.84655 2.04064 1.94195 1.8207 2.0741 2.0741 2.16045 2.5019 
2.2914 2.46267 2.67507 2.67507 2.78068 2.84152 2.925 3.11902 3.20481 
2.91359 2.90242 2.64399 2.61715 2.48454 2.70207 3.04654 3.19255 3.18779 
3.05436 3.11322 3.26452 3.47867 1.98869 1.81734 1.80016 1.71089 1.71366 
1.6342 3.66394 3.31288 2.83127 2.48305 2.50679 2.53941 2.53941 2.42618 
2.28655 2.37947 2.83796 2.85008 3.1232 3.33888 3.34721 3.33401 2.99515 
2.87716 2.8529 3.05189 3.15368 3.30642 3.11087 2.30234 2.21112 2.40757 
2.46667 2.26511 2.04672 1.9919 1.77547 1.83757 1.89759 2.05579 2.18755 
2.19776 1.98449 1.91977 1.91977 1.64674 1.6984 1.60146 1.52556 1.52949 
1.53533 1.54702 1.63512 1.63512 1.77037 2.18522 2.49392 3.0009 3.11497 
2.7345 2.60212 2.70337 2.63235 2.42954 2.30937 2.4189 2.35944 2.69545 
2.62507 2.90657 2.7615 2.66856 2.40259 2.14933 1.81747 1.68138 1.79978 
2.26991 2.60366 1.99728 3.13733 3.14602 3.13425 3.32316 3.62117 2.66486 
2.23309 1.57128 1.54536 1.46682 1.30363 1.3477 1.27799 1.36875 1.41582 
1.28578 1.2526 1.22263 1.21668 1.1433 1.13215 1.15674 1.23953 1.2354 
1.30196 1.55402 1.69304 1.7895 3.08887 2.74678 2.14561 1.81321 1.9479 
1.91567 1.9108 2.10276 2.23683 3.14143 2.573 1.86506 1.56023 1.31204 
1.23296 1 1.06887 1.0362 1.27001 1.44785 1.66076 1.54038 
rRFP 1 260 double
3083.95 2615.48 2903.12 2898.15 3564.78 2834.12 2948.56 3363.35 3406.41 
2693.42 3284.05 2852.54 2712.16 3059 3644.52 3470.16 3348.99 3444.6 
3003.54 3250.19 3111.38 3132.47 3192.65 3154.96 3128.6 3173.95 3272.19 
3322.05 3446.93 3491.05 3004.72 2933.75 2919.36 2919.36 3150.48 3150.48 
3233.88 3177.72 3058.26 3055.99 3056.2 3084.78 3106.4 3080.59 3051.22 
2909.32 2862.9 2824.69 2913.06 2918.7 2978.41 3056.65 3028.65 2963.47 
3035.7 2958.67 3072.78 3137.62 3137.62 3220.32 3191.52 3217.63 3181.81 
3217.99 3214.94 3233.3 3277.05 3336.86 3360.52 3423.78 3464.75 3517.23 
3491.69 3359.93 3346.23 3202.47 3108.28 3045.3 3211.23 3126.17 3374.22 
3353.41 3200.63 3348.99 3448.98 3486.01 3492.21 3421.28 3378.6 3291.04 
3221.19 3221.19 3213.25 3187.02 3187.02 3107.91 2991.98 2991.98 2934.27 
2945.19 2945.19 3020.89 2982.4 2935.11 3033.94 3033.94 3067.62 3200.79 
3118.69 3185.49 3268.33 3268.33 3309.52 3333.25 3365.81 3441.48 3474.94 
3361.36 3357 3256.21 3245.74 3194.02 3278.86 3413.21 3470.16 3468.3 
3416.26 3439.22 3498.23 3581.75 3000.63 2933.8 2927.1 2892.28 2893.36 
2862.37 3654.01 3517.09 3329.25 3193.44 3202.7 3215.42 3215.42 3171.26 
3116.8 3153.04 3331.86 3336.59 3443.11 3527.23 3530.48 3525.33 3393.17 
3347.15 3337.69 3415.3 3455 3514.57 3438.3 3122.96 3087.38 3164 
3187.05 3108.44 3023.26 3001.88 2917.47 2941.69 2965.1 3026.8 3078.19 
3082.17 2998.99 2973.75 2973.75 2867.26 2887.41 2849.6 2820 2821.53 
2823.81 2828.37 2862.73 2862.73 2915.48 3077.28 3197.68 3395.41 3439.9 
3291.51 3239.88 3279.37 3251.67 3172.57 3125.7 3168.42 3145.23 3276.28 
3248.83 3358.62 3302.04 3265.79 3162.06 3063.28 2933.85 2880.77 2926.95 
3110.31 3240.48 3003.98 3448.62 3452.01 3447.42 3521.1 3637.33 3264.35 
3095.95 2837.83 2827.72 2797.09 2733.44 2750.63 2723.44 2758.84 2777.2 
2726.48 2713.54 2701.85 2699.53 2670.91 2666.56 2676.15 2708.44 2706.83 
2732.79 2831.1 2885.32 2922.94 3429.72 3296.3 3061.83 2932.19 2984.72 
2972.15 2970.25 3045.12 3097.41 3450.22 3228.52 2952.41 2833.52 2736.72 
2705.88 2615.02 2641.88 2629.14 2720.33 2789.69 2872.73 2825.78 
rGFP 1 260 double
2800.38 2610.77 2644.83 2706.42 2921.36 2596.12 2729.07 2681.38 2838.02 
2723.01 2833.85 2551.43 2599.27 2913.75 2940.54 2899.44 2900.47 3010.51 
2809.32 2867.31 2823.1 2774.09 2779.56 2742.37 2751.95 2744.27 2739.01 
2775.85 2881.65 2960.28 2785.86 2803.33 2831.11 2831.11 2871.95 2871.95 
2840.26 2843.6 2814.42 2825.78 2814.54 2843.07 2828.4 2827.49 2840.36 
2778.32 2737.11 2754.47 2722.78 2738.67 2748.33 2782.44 2790.17 2787.7 
2788.32 2779.35 2818.86 2872.07 2872.07 2888.9 2905.23 2918.46 2819.52 
2865.47 2864.47 2770.84 2777.43 2758.51 2776.11 2823.67 2846.84 2854 
2903.43 2858.25 2879.99 2876 2866.51 2868.07 2919.74 2863.94 2966.65 
2950.48 2929.99 2900.47 2913.72 2875.85 2864.28 2878.77 2848.2 2859.78 
2896.67 2896.67 2874.9 2851.4 2851.4 2864.96 2849.94 2849.94 2847.4 
2840.02 2840.02 2829.83 2846.91 2862.12 2890.98 2890.98 2856.44 2862.83 
2845.67 2837.37 2798.3 2798.3 2811.15 2796.2 2790.44 2821.37 2836.46 
2875.35 2836.05 2813.63 2800.12 2761.95 2776.44 2868.68 2899.44 2875.63 
2868.88 2915.04 2908.47 2928.23 2870.4 2828.17 2787.1 2747.98 2696.91 
2671.27 2937.57 2956.77 2910.68 2867 2815.65 2841.56 2841.56 2855.89 
2836.77 2870.19 2841.86 2840.64 2865.37 2843.43 2858.17 2861.19 2787.37 
2819.51 2858.04 2868.56 2893.53 2858.6 2828.54 2635.4 2636.06 2636.95 
2675.98 2717.16 2690.01 2698.64 2680.73 2713.65 2738.06 2730.01 2723.22 
2749.83 2712.53 2699.56 2699.56 2681.09 2702.28 2703.95 2730.98 2747.77 
2739.35 2717.72 2698.05 2698.05 2700.17 2675.8 2739.23 2792.85 2820.7 
2835.86 2809.72 2798.48 2733.17 2698.63 2696.93 2714.22 2698.75 2669.59 
2761.99 2747.58 2744.47 2796.26 2791.05 2783.69 2739.07 2688.68 2688.06 
2627.74 2653.06 2823.6 2880.65 2899.51 2917.89 2927.04 2958.35 2718.32 
2750.98 2622.12 2668.31 2657.32 2650.69 2644.94 2639.09 2654.84 2658.46 
2650.47 2649.89 2654.11 2631.74 2657.99 2669.94 2677.78 2678.15 2693.64 
2699.53 2659.98 2649.01 2633.21 2904.31 2845.16 2808.43 2731.81 2779.88 
2815.26 2818.19 2828.28 2825.6 2884.46 2825.73 2735.21 2702.46 2655.14 
2641.21 2630.7 2629.11 2610.99 2596.06 2620.64 2643.59 2639.65 
bkstRFP 1 260 double
858.95 390.48 678.12 673.15 1339.78 609.12 723.56 1138.35 1181.41 
468.42 1059.05 627.54 487.16 834 1419.52 1245.16 1123.99 1219.6 
778.54 1025.19 886.38 907.47 967.65 929.96 903.6 948.95 1047.19 
1097.05 1221.93 1266.05 779.72 708.75 694.36 694.36 925.48 925.48 
1008.88 952.72 833.26 830.99 831.2 859.78 881.4 855.59 826.22 
684.32 637.9 599.69 688.06 693.7 753.41 831.65 803.65 738.47 
810.7 733.67 847.78 912.62 912.62 995.32 966.52 992.63 956.81 
992.99 989.94 1008.3 1052.05 1111.86 1135.52 1198.78 1239.75 1292.23 
1266.69 1134.93 1121.23 977.47 883.28 820.3 986.23 901.17 1149.22 
1128.41 975.63 1123.99 1223.98 1261.01 1267.21 1196.28 1153.6 1066.04 
996.19 996.19 988.25 962.02 962.02 882.91 766.98 766.98 709.27 
720.19 720.19 795.89 757.4 710.11 808.94 808.94 842.62 975.79 
893.69 960.49 1043.33 1043.33 1084.52 1108.25 1140.81 1216.48 1249.94 
1136.36 1132 1031.21 1020.74 969.02 1053.86 1188.21 1245.16 1243.3 
1191.26 1214.22 1273.23 1356.75 775.63 708.8 702.1 667.28 668.36 
637.37 1429.01 1292.09 1104.25 968.44 977.7 990.42 990.42 946.26 
891.8 928.04 1106.86 1111.59 1218.11 1302.23 1305.48 1300.33 1168.17 
1122.15 1112.69 1190.3 1230 1289.57 1213.3 897.96 862.38 939 
962.05 883.44 798.26 776.88 692.47 716.69 740.1 801.8 853.19 
857.17 773.99 748.75 748.75 642.26 662.41 624.6 595 596.53 
598.81 603.37 637.73 637.73 690.48 852.28 972.68 1170.41 1214.9 
1066.51 1014.88 1054.37 1026.67 947.57 900.7 943.42 920.23 1051.28 
1023.83 1133.62 1077.04 1040.79 937.06 838.28 708.85 655.77 701.95 
885.31 1015.48 778.98 1223.62 1227.01 1222.42 1296.1 1412.33 1039.35 
870.95 612.83 602.72 572.09 508.44 525.63 498.44 533.84 552.2 
501.48 488.54 476.85 474.53 445.91 441.56 451.15 483.44 481.83 
507.79 606.1 660.32 697.94 1204.72 1071.3 836.83 707.19 759.72 
747.15 745.25 820.12 872.41 1225.22 1003.52 727.41 608.52 511.72 
480.88 390.02 416.88 404.14 495.33 564.69 647.73 600.78 
bkstGFP 1 260 double
347.38 157.77 191.83 253.42 468.36 143.12 276.07 228.38 385.02 
270.01 380.85 98.43 146.27 460.75 487.54 446.44 447.47 557.51 
356.32 414.31 370.1 321.09 326.56 289.37 298.95 291.27 286.01 
322.85 428.65 507.28 332.86 350.33 378.11 378.11 418.95 418.95 
387.26 390.6 361.42 372.78 361.54 390.07 375.4 374.49 387.36 
325.32 284.11 301.47 269.78 285.67 295.33 329.44 337.17 334.7 
335.32 326.35 365.86 419.07 419.07 435.9 452.23 465.46 366.52 
412.47 411.47 317.84 324.43 305.51 323.11 370.67 393.84 401 
450.43 405.25 426.99 423 413.51 415.07 466.74 410.94 513.65 
497.48 476.99 447.47 460.72 422.85 411.28 425.77 395.2 406.78 
443.67 443.67 421.9 398.4 398.4 411.96 396.94 396.94 394.4 
387.02 387.02 376.83 393.91 409.12 437.98 437.98 403.44 409.83 
392.67 384.37 345.3 345.3 358.15 343.2 337.44 368.37 383.46 
422.35 383.05 360.63 347.12 308.95 323.44 415.68 446.44 422.63 
415.88 462.04 455.47 475.23 417.4 375.17 334.1 294.98 243.91 
218.27 484.57 503.77 457.68 414 362.65 388.56 388.56 402.89 
383.77 417.19 388.86 387.64 412.37 390.43 405.17 408.19 334.37 
366.51 405.04 415.56 440.53 405.6 375.54 182.4 183.06 183.95 
222.98 264.16 237.01 245.64 227.73 260.65 285.06 277.01 270.22 
296.83 259.53 246.56 246.56 228.09 249.28 250.95 277.98 294.77 
286.35 264.72 245.05 245.05 247.17 222.8 286.23 339.85 367.7 
382.86 356.72 345.48 280.17 245.63 243.93 261.22 245.75 216.59 
308.99 294.58 291.47 343.26 338.05 330.69 286.07 235.68 235.06 
174.74 200.06 370.6 427.65 446.51 464.89 474.04 505.35 265.32 
297.98 169.12 215.31 204.32 197.69 191.94 186.09 201.84 205.46 
197.47 196.89 201.11 178.74 204.99 216.94 224.78 225.15 240.64 
246.53 206.98 196.01 180.21 451.31 392.16 355.43 278.81 326.88 
362.26 365.19 375.28 372.6 431.46 372.73 282.21 249.46 202.14 
188.21 177.7 176.11 157.99 143.06 167.64 190.59 186.65 
tubeWidth 1 260 double
0.27463 0.215265 0.248434 0.135553 0.293593 0.216104 0.125716 0.243024 0.284719 
0.149189 0.132044 0.126196 0.200562 0.264616 0.28321 0.211463 0.304497 0.299512 
0.185029 0.22608 0.186175 0.22304 0.23977 0.190265 0.166153 0.107891 0.138572 
0.245037 0.243256 0.252656 0.180064 0.109789 0.0689716 0.0829742 0.119386 0.162803 
0.251689 0.211271 0.153628 0.151687 0.16068 0.206171 0.239385 0.263951 0.253156 
0.205201 0.188213 0.17641 0.20577 0.254411 0.257605 0.223144 0.276685 0.235055 
0.211485 0.202274 0.201468 0.204795 0.216015 0.24667 0.239215 0.261038 0.239901 
0.253634 0.199738 0.196744 0.230338 0.244198 0.260802 0.26557 0.283868 0.269185 
0.267983 0.276002 0.217866 0.211164 0.215796 0.148849 0.221747 0.0619068 0.164349 
0.248725 0.233234 0.285741 0.288419 0.282698 0.307562 0.247661 0.235926 0.227074 
0.238832 0.265922 0.254337 0.239461 0.252442 0.247468 0.226032 0.225053 0.218302 
0.200012 0.194582 0.215313 0.250243 0.237499 0.213005 0.202785 0.214902 0.222637 
0.229832 0.250015 0.253368 0.265584 0.246093 0.224497 0.251025 0.285421 0.314723 
0.169542 0.144798 0.163216 0.147943 0.184393 0.224312 0.168452 0.218011 0.240292 
0.26584 0.219247 0.178621 0.2256 0.209318 0.215491 0.222998 0.242791 0.263919 
0.233541 0.264687 0.258196 0.263287 0.21817 0.218087 0.260673 0.266374 0.254265 
0.214967 0.219261 0.269484 0.258365 0.24719 0.247111 0.272188 0.300952 0.267234 
0.257049 0.226527 0.202823 0.230771 0.32749 0.323413 0.228368 0.277562 0.285378 
0.255499 0.223384 0.216275 0.202328 0.183849 0.167295 0.172535 0.19585 0.2236 
0.235954 0.216032 0.203439 0.207177 0.210514 0.213374 0.208935 0.225104 0.243559 
0.252606 0.195396 0.169317 0.129078 0.122096 0.174977 0.217181 0.275423 0.214088 
0.236908 0.297609 0.143375 0.195272 0.243323 0.262964 0.206329 0.222509 0.217898 
0.0736149 0.227913 0.245035 0.280642 0.249843 0.236399 0.205772 0.178892 0.193623 
0.177806 0.276375 0.261764 0.286753 0.257545 0.230377 0.242076 0.283306 0.268081 
0.248159 0.293177 0.299984 0.256233 0.209401 0.165565 0.168792 0.198549 0.216201 
0.235183 0.236471 0.233633 0.224225 0.208321 0.219365 0.178756 0.172571 0.161441 
0.199009 0.181914 0.194371 0.19072 0.266877 0.247873 0.213271 0.203636 0.192758 
0.152747 0.15021 0.165442 0.231522 0.212777 0.208203 0.175015 0.117041 0.149483 
0.149949 0.134888 0.154897 0.168549 0.173323 0.191717 0.178329 0.241548 
