# vtk DataFile Version 3.0
vtk output
ASCII
DATASET POLYDATA
POINTS 395 float
2.64325 -0.0956891 1.96968 2.80035 0.0252095 1.97496 2.57276 0.0791132 1.78333 
4.18912 1.28054 1.23288 3.5657 -1.4942 0.241491 8.87501 -0.493486 0.398873 
9.17799 -0.0875185 0.421578 9.35823 0.0336189 0.283978 3.21382 -1.58744 0.244381 
3.94369 -1.18993 0.218022 4.7599 0.535218 0.0630844 6.90558 0.246984 0.0281194 
8.56629 -0.66381 -0.07464 4.58403 0.846724 -0.0107385 9.27195 -0.806479 -0.234313 
9.53252 -0.0820503 -0.321306 8.47707 -0.517133 -0.396322 9.56304 -0.276617 -0.40294 
4.75216 1.4123 -0.775776 6.04757 1.00759 -0.83378 6.16413 1.16724 -0.891654 
8.62092 -0.352886 -0.989327 9.43511 0.638487 -0.935525 3.56579 1.78437 -0.923124 
3.02517 1.78119 -1.37939 0.396869 1.22325 -1.49534 0.311423 1.61695 -1.66549 
-0.426989 -0.802288 -2.025 -0.311478 -0.610976 -2.0137 0.713455 1.32978 -1.89577 
1.41534 1.74652 -2.14855 -0.110868 -1.2273 -2.46394 1.35076 1.68029 -2.20888 
1.29404 1.63029 -2.23353 1.24115 1.59575 -2.20267 1.19057 1.54607 -2.13581 
1.14033 1.49693 -2.04912 1.08805 1.47397 -1.97533 1.03448 1.46427 -1.92285 
0.980249 1.45682 -1.89991 0.926372 1.4405 -1.89247 0.873484 1.40781 -1.89366 
0.820245 1.38028 -1.89448 0.767365 1.34749 -1.89568 -0.155338 -1.17596 -2.4518 
-0.18442 -1.12464 -2.42516 -0.218134 -1.07583 -2.36888 -0.246171 -1.02826 -2.29052 
-0.290743 -0.982869 -2.19711 -0.344506 -0.935733 -2.11821 -0.393211 -0.878727 -2.061 
1.49677 1.7416 -2.15566 1.56035 1.75333 -2.15622 1.61483 1.78332 -2.15278 
1.66917 1.79825 -2.14299 1.72455 1.80185 -2.11424 1.78071 1.8015 -2.05608 
1.8372 1.79996 -1.98316 1.89337 1.7995 -1.92501 1.94889 1.80118 -1.8964 
2.00392 1.80435 -1.88996 2.05891 1.80625 -1.89104 2.11458 1.7982 -1.89286 
2.17128 1.77498 -1.8958 2.22709 1.765 -1.89775 2.28305 1.7545 -1.89232 
2.34009 1.7301 -1.8805 2.39655 1.71799 -1.85291 2.453 1.70587 -1.82533 
2.51053 1.67998 -1.79133 2.56685 1.66979 -1.7636 2.62249 1.66954 -1.73513 
2.67785 1.67165 -1.71392 2.73337 1.67332 -1.68532 2.7892 1.67404 -1.64193 
2.84521 1.67579 -1.58609 2.90122 1.6889 -1.522 2.95937 1.72906 -1.45352 
1.34274 1.81997 -2.10943 1.2797 1.87546 -2.0743 1.22213 1.90954 -2.03837 
1.16812 1.90444 -1.9905 1.1161 1.87197 -1.93969 1.06303 1.85318 -1.89531 
1.00896 1.84519 -1.86497 0.954897 1.83721 -1.83464 0.901829 1.81832 -1.79027 
0.849962 1.78371 -1.73962 0.797026 1.76289 -1.69539 0.743599 1.74368 -1.67331 
0.690751 1.71229 -1.66698 0.636546 1.69703 -1.67432 0.581621 1.69044 -1.68843 
0.52709 1.67626 -1.71054 0.473907 1.64604 -1.71898 0.420022 1.62982 -1.71153 
0.365785 1.62248 -1.68858 -0.349484 -0.669323 -2.01708 -0.377649 -0.730885 -2.02092 
-0.508156 -0.794987 -1.99296 -0.572575 -0.784163 -1.94618 -0.630421 -0.750318 -1.89044 
-0.687901 -0.704612 -1.84129 -0.744007 -0.655282 -1.81419 -0.788378 -0.603933 -1.80205 
-0.803822 -0.550571 -1.79041 -0.795201 -0.496627 -1.76441 -0.757163 -0.442276 -1.71675 
-0.706891 -0.387621 -1.66189 -0.654989 -0.332304 -1.61447 -0.605373 -0.275508 -1.58917 
-0.568053 -0.218475 -1.57843 -0.557663 -0.163315 -1.56723 -0.558917 -0.110058 -1.54106 
-0.561474 -0.0585317 -1.49271 -0.562173 -0.00742291 -1.43698 -0.552862 0.0449294 -1.38882 
-0.52712 0.0995182 -1.35572 -0.508261 0.153627 -1.32251 -0.492067 0.206459 -1.27447 
-0.497653 0.257227 -1.21866 -0.48136 0.310065 -1.17062 -0.460669 0.364849 -1.14483 
-0.423548 0.421869 -1.13409 -0.388187 0.479313 -1.13071 -0.376066 0.53514 -1.12693 
-0.363838 0.590864 -1.12317 -0.326444 0.64641 -1.11997 -0.276375 0.691022 -1.11785 
-0.222704 0.710761 -1.1176 -0.169097 0.731044 -1.12475 -0.117524 0.777399 -1.14482 
-0.0672456 0.837121 -1.18617 -0.017263 0.899299 -1.23478 0.0327208 0.961476 -1.28338 
0.082992 1.02131 -1.32473 0.133785 1.07162 -1.37421 0.185733 1.10505 -1.42494 
0.237501 1.14297 -1.46791 0.290241 1.17222 -1.48924 0.342958 1.20555 -1.49543 
3.11343 1.70047 -1.29557 3.18213 1.65768 -1.21848 3.24279 1.61385 -1.15366 
3.30195 1.57506 -1.08102 3.3584 1.57223 -1.01562 3.41257 1.59924 -0.96286 
3.46605 1.62709 -0.939742 3.51612 1.67299 -0.930094 3.55355 1.72865 -0.92689 
3.06434 1.86557 -1.20823 3.11235 1.92805 -1.10077 3.16431 1.97225 -1.06653 
3.21821 1.98839 -1.0715 3.27403 1.97992 -1.06592 3.33236 1.94226 -1.03281 
3.39115 1.90151 -0.985053 3.44889 1.87443 -0.943725 3.50716 1.83378 -0.925677 
6.24913 1.12672 -0.834565 6.31814 1.07762 -0.765358 6.37909 1.03329 -0.685729 
6.43793 1.00275 -0.597633 6.49724 0.958354 -0.52787 6.55499 0.904945 -0.473588 
6.60073 0.849976 -0.434017 6.62147 0.79261 -0.386634 6.64039 0.735117 -0.33921 
6.67432 0.678669 -0.292052 6.70293 0.622397 -0.252195 6.73856 0.566067 -0.205067 
6.76552 0.509133 -0.15778 6.78947 0.452102 -0.112921 6.79382 0.392966 -0.0752116 
6.83491 0.327778 -0.028836 3.61849 1.82528 -0.899043 3.6732 1.83882 -0.869559 
3.72939 1.83055 -0.841687 3.78704 1.80284 -0.807825 3.84431 1.77876 -0.781123 
3.90274 1.73768 -0.755678 3.96143 1.68762 -0.745752 4.01826 1.63615 -0.743308 
4.06496 1.58453 -0.748082 4.09641 1.53377 -0.752456 4.14217 1.49583 -0.756218 
4.19619 1.48369 -0.758294 4.25189 1.4736 -0.760258 4.3086 1.45037 -0.763196 
4.36426 1.44233 -0.765011 4.41926 1.44423 -0.766092 4.47413 1.44783 -0.767046 
4.52912 1.44972 -0.768126 4.58479 1.44168 -0.769941 4.64149 1.41855 -0.772872 
4.69716 1.41051 -0.774687 9.45482 0.584874 -0.939846 9.49965 0.532464 -0.937204 
9.55456 0.479662 -0.919962 9.59818 0.424434 -0.880362 9.60509 0.366106 -0.832732 
9.58496 0.306442 -0.792042 9.57933 0.249427 -0.773765 9.59325 0.194319 -0.763203 
9.62252 0.138965 -0.73567 9.62545 0.0773105 -0.656011 9.58916 0.00426344 -0.511936 
8.57327 -0.412086 -0.791988 8.52472 -0.457933 -0.593661 6.10255 1.07936 -0.861989 
6.09257 1.22722 -0.846101 6.03016 1.27726 -0.796526 5.97302 1.31237 -0.73081 
5.91805 1.32881 -0.651632 5.86335 1.3469 -0.552545 5.81004 1.34607 -0.454849 
5.76016 1.32347 -0.358816 5.72375 1.27455 -0.287262 5.71639 1.21727 -0.239251 
5.72838 1.16213 -0.228648 5.74679 1.10953 -0.24773 5.73434 1.05695 -0.295831 
5.72503 1.00515 -0.351387 5.71418 0.952691 -0.399515 5.69215 0.897813 -0.425287 
5.6939 0.843498 -0.436692 5.71275 0.789826 -0.440998 5.71316 0.734872 -0.444989 
5.7341 0.680799 -0.441939 5.74841 0.625171 -0.424002 5.75505 0.567371 -0.38377 
5.76208 0.50905 -0.336142 5.78089 0.45155 -0.288726 5.82653 0.396574 -0.249153 
5.88411 0.343701 -0.20226 5.94293 0.30101 -0.154647 6.00053 0.275857 -0.113177 
6.05785 0.249105 -0.0941009 6.1137 0.240417 -0.0885354 6.16885 0.241779 -0.0822266 
6.22421 0.243882 -0.0610161 6.28005 0.244379 -0.0176495 6.33619 0.242529 0.0329821 
6.39284 0.231276 0.0754801 6.45003 0.206544 0.0947058 6.50587 0.197856 0.100271 
6.56099 0.197833 0.0990487 6.61667 0.189681 0.0972253 6.67337 0.166555 0.0942943 
6.72902 0.158832 0.0900257 6.78428 0.164197 0.0792829 6.84201 0.188218 0.0574613 
9.55876 -0.221413 -0.38646 9.55028 -0.159422 -0.359498 8.417 -0.46141 -0.457816 
8.35726 -0.406867 -0.50454 8.29831 -0.356276 -0.521853 8.24102 -0.318945 -0.495596 
8.18554 -0.300748 -0.441051 8.13017 -0.280419 -0.371491 8.07597 -0.277083 -0.303188 
8.02228 -0.283152 -0.243009 7.96826 -0.288041 -0.1976 7.91294 -0.279674 -0.173486 
7.85559 -0.245123 -0.162281 7.79794 -0.208117 -0.158324 7.74136 -0.184789 -0.147949 
7.68406 -0.147349 -0.121684 7.62657 -0.101573 -0.0725277 7.56913 -0.0545234 -0.0158384 
7.51152 -0.00693782 0.0334525 7.45355 0.0403331 0.0604447 7.39606 0.0768144 0.0717914 
7.34025 0.0869959 0.0737649 7.28512 0.0871287 0.0749952 7.22943 0.0953906 0.0768266 
7.1726 0.120437 0.0798996 7.11599 0.140663 0.0801415 7.0574 0.169025 0.0735857 
6.99076 0.196528 0.0547701 8.50602 -0.587788 -0.233701 9.4652 -0.0356524 -0.0700701 
9.42153 0.00929059 0.138437 9.2174 -0.812971 -0.226144 9.16381 -0.831649 -0.211458 
9.11209 -0.875866 -0.191233 9.06004 -0.919012 -0.185776 9.00595 -0.935974 -0.193239 
8.95061 -0.938296 -0.214465 8.89478 -0.929718 -0.220038 8.83827 -0.905642 -0.20218 
8.78263 -0.886911 -0.155024 8.72597 -0.85147 -0.10167 8.66886 -0.803581 -0.0622769 
8.61425 -0.74327 -0.056698 4.73112 0.584174 0.0189805 4.71183 0.635286 -0.0103146 
4.70306 0.689833 -0.0210308 4.68516 0.743794 -0.0204352 4.64048 0.795668 -0.0156876 
4.75257 0.468048 0.114099 4.75622 0.404231 0.165104 4.73352 0.342376 0.220555 
4.71315 0.281826 0.272338 4.72923 0.224682 0.312409 4.73142 0.168212 0.330553 
4.71015 0.111201 0.334324 4.7021 0.0556579 0.330478 4.7038 0.000792743 0.326465 
4.7055 -0.054072 0.322452 4.69724 -0.10963 0.31861 4.67195 -0.166374 0.315059 
4.64986 -0.222894 0.311453 4.61074 -0.2806 0.308138 4.56165 -0.338999 0.304993 
4.51257 -0.397398 0.301849 4.47333 -0.455002 0.298544 4.44909 -0.509743 0.295115 
4.40905 -0.555596 0.292679 4.35801 -0.587068 0.291529 4.3063 -0.633724 0.289293 
4.25713 -0.690746 0.293682 4.2184 -0.749954 0.312533 4.19519 -0.809285 0.345894 
4.15855 -0.869004 0.372094 4.12126 -0.926583 0.368748 4.09648 -0.980804 0.330077 
4.0562 -1.03697 0.278611 4.00503 -1.10456 0.235846 8.64809 -0.640639 0.053996 
8.71264 -0.611609 0.180951 8.7694 -0.588932 0.287822 8.82293 -0.54732 0.358979 
3.86633 -1.26207 0.212652 3.80337 -1.32359 0.213299 3.74704 -1.38114 0.202955 
3.67499 -1.43696 0.211648 3.45788 -1.56645 0.296218 3.38627 -1.62021 0.3329 
3.32931 -1.63728 0.336644 3.27263 -1.6266 0.299672 9.29008 -0.0135754 0.365024 
9.23234 -0.0651353 0.403424 4.13684 1.25758 1.30665 4.08563 1.22083 1.38685 
4.03354 1.19873 1.47553 3.98045 1.18764 1.5502 3.92675 1.17986 1.60282 
3.87267 1.17198 1.63316 3.81928 1.15417 1.66277 3.76724 1.12019 1.70603 
3.71434 1.10066 1.75779 3.66073 1.08979 1.80276 3.60718 1.0724 1.82497 
3.55449 1.04057 1.83869 3.50093 1.02318 1.8609 3.44732 1.01231 1.90587 
3.39442 0.992775 1.95763 3.34238 0.958803 2.00089 3.28883 0.941411 2.0231 
3.23441 0.933108 2.03113 3.1805 0.915292 2.03104 3.12843 0.870641 2.02895 
3.07717 0.814239 2.026 3.02591 0.757729 2.02304 2.97413 0.710622 2.02821 
2.92152 0.67944 2.0494 2.86963 0.643448 2.09251 2.81672 0.624024 2.14428 
2.76285 0.616887 2.18952 2.70765 0.621829 2.20596 2.65159 0.633731 2.20064 
2.59697 0.61891 2.17106 2.54133 0.619044 2.14258 2.48407 0.641096 2.1083 
2.42857 0.63921 2.07968 2.37474 0.611026 2.04168 2.32093 0.584241 2.0038 
2.26977 0.54155 1.94984 2.22937 0.489512 1.89495 2.2063 0.436311 1.84704 
2.18041 0.381166 1.82134 2.17016 0.326016 1.81014 2.16211 0.270472 1.80629 
2.15267 0.214832 1.80247 2.1856 0.161703 1.80532 2.24059 0.110836 1.8227 
2.29899 0.0690997 1.85553 2.35638 0.0432058 1.8821 2.41389 0.00822926 1.87829 
2.46981 -0.0108266 1.84596 2.522 0.0227101 1.81009 2.78798 -0.0284856 1.97135 
2.74973 -0.0721744 1.96903 2.69786 -0.0897402 1.9689 
LINES 23 436
14 30 32 33 34 35 36 37 38 39 40 41 42 43 29 
9 31 44 45 46 47 48 49 50 27 
29 30 51 52 53 54 55 56 57 58 59 60 61 62 63 64 65 66 67 68 69 70 71 72 73 74 75 76 77 24 
21 30 78 79 80 81 82 83 84 85 86 87 88 89 90 91 92 93 94 95 96 26 
4 28 97 98 27 
44 27 99 100 101 102 103 104 105 106 107 108 109 110 111 112 113 114 115 116 117 118 119 120 121 122 123 124 125 126 127 128 129 130 131 132 133 134 135 136 137 138 139 140 25 
11 24 141 142 143 144 145 146 147 148 149 23 
11 24 150 151 152 153 154 155 156 157 158 23 
18 20 159 160 161 162 163 164 165 166 167 168 169 170 171 172 173 174 11 
23 23 175 176 177 178 179 180 181 182 183 184 185 186 187 188 189 190 191 192 193 194 195 18 
13 22 196 197 198 199 200 201 202 203 204 205 206 15 
4 21 207 208 16 
3 20 209 19 
44 20 210 211 212 213 214 215 216 217 218 219 220 221 222 223 224 225 226 227 228 229 230 231 232 233 234 235 236 237 238 239 240 241 242 243 244 245 246 247 248 249 250 251 11 
4 17 252 253 15 
28 16 254 255 256 257 258 259 260 261 262 263 264 265 266 267 268 269 270 271 272 273 274 275 276 277 278 279 11 
3 16 280 12 
14 14 283 284 285 286 287 288 289 290 291 292 293 294 12 
6 12 329 330 331 332 5 
51 3 343 344 345 346 347 348 349 350 351 352 353 354 355 356 357 358 359 360 361 362 363 364 365 366 367 368 369 370 371 372 373 374 375 376 377 378 379 380 381 382 383 384 385 386 387 388 389 390 391 2 
5 1 392 393 394 0 
7 15 281 282 7 341 342 6 
47 13 299 298 297 296 295 10 300 301 302 303 304 305 306 307 308 309 310 311 312 313 314 315 316 317 318 319 320 321 322 323 324 325 326 327 328 9 333 334 335 336 4 337 338 339 340 8 

POINT_DATA 395
SCALARS DY_raw double
LOOKUP_TABLE default
59.69 52.6558 50.9075 28.4999 43.971 9.27891 19.6219 18.4846 40.0808 
42.7665 39.1523 23.0202 24.8779 48.672 10.8776 22.945 16.1257 14.1556 
69.22 43.219 40.1087 0 25.8601 82.3886 71.6473 60.8321 116.852 
44.8447 71.0538 88.0908 46.5033 79.7753 45.9449 47.6089 46.8687 47.9841 
59.3997 62.7959 68.3951 69.7405 69.7405 68.2746 77.4493 88.0908 58.6606 
47.486 48.9113 42.5329 38.796 41.7289 39.5976 45.6801 42.4184 46.492 
46.827 57.8246 62.1209 64.0471 61.7533 60.5544 60.5544 66.2989 73.1303 
73.1303 84.827 67.5457 70.7796 62.0946 55.1692 53.1863 41.9045 41.9045 
45.7771 48.5448 49.7889 56.8982 56.2225 60.4066 51.0742 55.9218 77.9016 
96 101.082 101.082 104.66 84.1906 81.1146 86.8826 114.238 102.317 
108.798 114.561 95.983 95.983 83.9366 85.1714 85.1714 57.0311 49.2217 
46.1827 56.8876 70.4774 77.2346 87.7129 109.479 109.479 100.073 77.1004 
64.1845 63.7776 54.4745 49.9367 44.9263 47.6853 44.5536 56.785 58.1094 
70.6895 66.0308 64.9404 54.1752 49.0913 46.8409 53.4956 47.9378 42.2856 
39.9921 41.7459 49.4012 51.0269 59.2345 69.3936 69.3669 78.9277 77.7368 
77.8167 73.088 56.5732 53.5409 54.6828 54.3878 56.5349 67.5746 78.7728 
93.5515 109.399 114.133 126.269 105.231 76.0924 84.0005 91.1047 108.81 
108.81 108.651 108.061 114.181 105.691 82.3886 47.6112 49.6777 54.8493 
52.6844 46.8989 50.5376 56.3473 71.8634 83.7923 91.0268 75.5224 80.0152 
61.728 47.7794 41.2134 27.6478 66.3485 64.2954 57.0081 48.3908 42.842 
45.2528 53.7102 55.6515 62.9659 71.537 102.29 99.3192 97.5167 88.1222 
88.1222 74.1598 61.8616 55.4074 55.7931 55.7931 57.8638 22.6826 13.7909 
13.7909 15.6278 20.1696 22.3194 20.8558 20.8558 15.6903 14.9707 17.7281 
15.6654 16.4013 42.1009 44.9748 50.5017 55.6238 59.8184 55.632 54.5223 
47.1214 46.6464 43.5223 50.0974 50.0974 58.1029 70.78 66.6841 83.9658 
78.09 78.09 52.6189 52.6189 44.8796 53.3786 57.7918 52.137 49.4529 
50.1554 50.914 67.9552 67.6737 67.6737 65.223 45.4285 50.5053 55.931 
52.393 50.1035 50.1035 41.4617 41.4527 36.0009 28.879 21.9595 20.1994 
23.9104 25.1326 15.3681 9.15727 9.04322 19.7154 24.7263 31.5314 29.1712 
32.4892 31.544 30.3593 29.6221 21.9369 18.1007 18.8414 13.416 15.5971 
12.8982 23.2508 24.6827 19.0255 20.4118 20.4118 18.2178 18.9838 17.6127 
18.9546 20.7178 8.15845 9.99832 10.419 12.6367 10.2847 16.1699 12.9839 
12.9839 8.8369 7.6728 7.76006 13.8779 13.0417 19.5659 33.7194 31.1626 
25.0948 25.0948 30.6713 37.8634 34.7978 31.0519 41.3609 44.2 45.7387 
48.1971 48.1971 39.9327 34.1151 34.1151 23.3225 20.8279 19.045 30.0551 
36.5359 45.744 56.7026 58.911 65.1404 60.8364 46.1363 44.9935 43.7931 
43.7931 37.3464 27.0014 33.1107 42.5088 23.601 22.5507 13.5839 6.60832 
46.7255 50.0389 47.9191 48.6783 36.4445 34.6879 32.9535 33.745 20.7541 
22.528 28.7024 38.7002 41.4046 48.3759 30.9269 30.9269 27.0242 33.6018 
31.2388 25.4745 22.1488 29.0605 37.8334 30.6888 31.4396 35.4201 35.4201 
29.6937 25.8423 27.8063 29.6606 29.6606 24.8653 20.4944 19.6868 19.1129 
40.0129 40.0129 32.2509 36.7149 36.7149 38.4006 50.7525 55.611 42.0549 
35.0553 35.8624 44.3283 44.3283 41.0851 44.6199 38.0007 34.8702 37.0705 
38.8394 41.3568 45.9993 45.6863 49.1425 52.6558 50.9214 61.8555 
FIELD FieldData 7
DY_minmax 1 395 double
0.47272 0.417012 0.403166 0.225707 0.348232 0.0734851 0.155398 0.14639 0.317423 
0.338693 0.31007 0.182311 0.197022 0.385462 0.086146 0.181715 0.127709 0.112106 
0.548194 0.342276 0.317644 0 0.204801 0.652483 0.567417 0.481765 0.925416 
0.355151 0.562717 0.697642 0.368287 0.631787 0.363864 0.377043 0.371181 0.380014 
0.470421 0.497318 0.541661 0.552316 0.552316 0.540707 0.613366 0.697642 0.464568 
0.37607 0.387357 0.336843 0.307249 0.330476 0.313597 0.361767 0.335936 0.368198 
0.37085 0.457947 0.491972 0.507227 0.489061 0.479565 0.479565 0.52506 0.579161 
0.579161 0.671795 0.534934 0.560545 0.491764 0.436917 0.421214 0.331866 0.331866 
0.362535 0.384455 0.394307 0.45061 0.445259 0.478395 0.404487 0.442877 0.616948 
0.76028 0.800529 0.800529 0.828868 0.666755 0.642394 0.688074 0.904717 0.810311 
0.861634 0.907276 0.760146 0.760146 0.664743 0.674522 0.674522 0.451662 0.389816 
0.365748 0.450527 0.558152 0.611666 0.69465 0.867031 0.867031 0.792536 0.610603 
0.508315 0.505092 0.431415 0.395478 0.355798 0.377648 0.352846 0.449714 0.460202 
0.559832 0.522936 0.514301 0.429045 0.388782 0.37096 0.423663 0.379648 0.334885 
0.316721 0.330611 0.391237 0.404112 0.469113 0.549569 0.549357 0.625075 0.615643 
0.616276 0.578827 0.448036 0.424022 0.433065 0.430729 0.447733 0.535163 0.623848 
0.740889 0.866396 0.903883 1 0.83339 0.60262 0.665249 0.721512 0.861732 
0.861732 0.860473 0.855799 0.904265 0.837033 0.652483 0.377061 0.393427 0.434384 
0.417238 0.37142 0.400236 0.446247 0.569128 0.663601 0.720895 0.598106 0.633687 
0.48886 0.378393 0.326393 0.218959 0.525452 0.509193 0.451481 0.383235 0.339291 
0.358383 0.425363 0.440737 0.498664 0.566543 0.810094 0.786567 0.772292 0.697891 
0.697891 0.587315 0.489918 0.438804 0.441859 0.441859 0.458258 0.179637 0.109218 
0.109218 0.123766 0.159735 0.17676 0.165169 0.165169 0.12426 0.118562 0.140399 
0.124063 0.129892 0.333421 0.356182 0.399952 0.440518 0.473737 0.440582 0.431794 
0.373182 0.36942 0.344679 0.396751 0.396751 0.460151 0.560549 0.52811 0.664974 
0.61844 0.61844 0.41672 0.41672 0.355428 0.422737 0.457687 0.412904 0.391646 
0.39721 0.403218 0.538177 0.535947 0.535947 0.516539 0.359775 0.399981 0.44295 
0.414931 0.396799 0.396799 0.32836 0.328288 0.285112 0.22871 0.17391 0.159971 
0.18936 0.19904 0.121709 0.0725218 0.0716186 0.156138 0.195822 0.249716 0.231024 
0.257301 0.249816 0.240433 0.234595 0.173731 0.14335 0.149216 0.106249 0.123523 
0.102149 0.184137 0.195476 0.150674 0.161653 0.161653 0.144277 0.150344 0.139485 
0.150112 0.164076 0.0646116 0.0791825 0.0825144 0.100077 0.0814503 0.128059 0.102827 
0.102827 0.0699846 0.0607654 0.0614565 0.109907 0.103285 0.154953 0.267043 0.246795 
0.198741 0.198741 0.242904 0.299863 0.275584 0.245918 0.327562 0.350046 0.362231 
0.381701 0.381701 0.31625 0.270178 0.270178 0.184705 0.164949 0.150829 0.238024 
0.289349 0.362274 0.449061 0.466551 0.515885 0.481799 0.36538 0.35633 0.346823 
0.346823 0.295768 0.21384 0.262223 0.336652 0.18691 0.178593 0.107579 0.0523352 
0.370046 0.396287 0.379499 0.385512 0.288626 0.274714 0.260978 0.267246 0.164364 
0.178413 0.227311 0.306489 0.327907 0.383117 0.244928 0.244928 0.21402 0.266112 
0.247398 0.201748 0.175409 0.230147 0.299625 0.243043 0.248989 0.280513 0.280513 
0.235162 0.204661 0.220215 0.2349 0.2349 0.196923 0.162307 0.155911 0.151366 
0.316886 0.316886 0.255414 0.290767 0.290767 0.304117 0.401939 0.440416 0.333057 
0.277624 0.284015 0.351062 0.351062 0.325377 0.353371 0.30095 0.276158 0.293583 
0.307592 0.327529 0.364295 0.361817 0.389188 0.417012 0.403276 0.48987 
WidthEq 1 395 double
1.44044 1.52614 1.31002 2.33194 2.39226 2.14142 1.18745 2.3663 1.75496 
2.5562 2.39884 3.85053 3.34072 1.23439 1.30452 2.52474 3.09259 2.16735 
1 3.43854 4.7658 1.43838 1.68522 1.81712 3.23725 3.36631 1.823 
5.9715 2.69542 2.20137 4.89363 2.24944 5.38689 5.17613 4.70228 4.3404 
3.55911 3.46997 3.25155 3.14079 3.14079 3.02338 2.53237 2.20137 3.31756 
4.03656 3.89337 5.17505 6.02613 6.00998 6.33169 4.75919 4.65057 4.37817 
4.28685 4.19112 4.09605 3.83515 3.80239 3.5895 3.5895 3.4346 3.16367 
3.16367 2.50404 2.87435 2.7498 2.78672 3.24946 3.62537 4.25778 4.25778 
5.02719 5.202 4.76854 4.95604 4.94731 4.05271 4.40927 3.96572 3.15552 
3.0326 2.71086 2.71086 2.41065 2.72655 2.76005 2.55448 2.12705 2.64061 
2.49518 2.4408 2.89093 2.89093 2.87979 2.7467 2.7467 3.90805 5.22574 
5.76363 4.64125 3.49076 2.8104 2.53372 2.11665 2.11665 2.55943 3.59596 
4.25227 4.62514 5.28486 5.78673 5.40596 5.22257 5.03663 4.12591 4.04582 
3.39541 3.69888 3.66089 3.80617 3.78092 4.35624 4.75479 5.58578 6.40029 
6.51428 6.70293 6.31078 5.9886 5.37305 4.04446 3.61008 3.17062 3.44792 
3.44952 3.39344 3.7767 3.89553 3.81875 4.00678 4.17707 3.64545 3.15616 
2.36116 1.78009 1.63161 1.52832 1.67098 1.91241 2.47272 1.946 1.65554 
1.65554 1.60827 1.61113 1.51313 1.54099 1.81712 4.12004 3.42749 2.81517 
2.44532 2.40176 2.29414 2.29878 2.13975 2.08706 2.11564 2.39253 2.31256 
2.35258 2.62917 2.91289 3.35398 1.98045 1.95846 1.94674 2.0942 2.28491 
2.40958 2.14689 2.09285 1.71426 1.4756 1.26816 1.18225 1.18616 1.18665 
1.18665 1.23463 1.45567 1.53211 1.46004 1.46004 1.16066 2.37583 2.56691 
2.56691 2.31382 2.28562 2.22139 2.39118 2.39118 2.49518 2.53495 2.56768 
2.16018 2.99671 4.58684 4.51253 4.10838 3.58012 2.87453 3.21344 3.20621 
3.20873 3.49073 3.47132 3.34967 3.34967 2.8706 2.30333 2.29155 2.18672 
2.26085 2.26085 2.32597 2.32597 2.26851 2.07424 2.0117 1.94948 1.82173 
1.87258 1.98079 1.94025 1.89054 1.89054 1.77744 1.99346 1.98316 2.07953 
2.53698 2.65949 2.65949 2.77509 2.68306 2.72187 2.95266 3.30655 3.85606 
2.74943 2.76971 3.21381 2.95285 3.07081 2.88302 2.74242 2.90631 2.92618 
2.41926 2.26445 2.24412 2.05286 2.06547 1.95904 2.06938 2.16384 2.38826 
2.35768 2.32379 2.42883 2.95288 3.30055 3.30055 3.60088 4.12668 4.22536 
4.22062 3.21753 2.35584 2.16036 1.5059 1.6365 1.72684 1.98888 2.05563 
2.05563 2.07765 2.00709 1.80411 2.05578 2.72818 3.31291 2.33812 2.12819 
1.94662 1.94662 1.72278 2.46808 2.59499 2.61723 2.56546 2.43145 2.3479 
2.16507 2.16507 2.00137 1.86926 1.86926 2.0954 2.04677 2.06353 2.39493 
2.20413 1.84308 1.55354 1.40704 1.36505 1.48809 1.72229 1.73247 2.27319 
2.27319 2.52929 3.02873 2.9199 2.6618 2.88505 2.67441 2.33954 2.17756 
2.4858 2.4371 2.17888 2.20899 2.94393 3.09705 2.97875 2.74737 2.09838 
1.5696 2.68653 2.74676 2.66565 2.2042 2.14926 2.14926 1.82207 1.74336 
1.72798 1.73899 1.72786 1.67375 1.50661 1.75797 1.79614 1.89525 1.89525 
2.17285 2.06676 2.34335 2.42342 2.42342 2.56703 2.32259 2.25227 1.91023 
1.34257 1.34257 1.23842 1.28259 1.28259 1.488 1.52525 1.59267 1.82238 
1.9512 2.05034 2.00346 2.00346 2.16039 2.10287 2.19128 2.33523 2.12622 
1.90657 1.7262 1.6222 1.69132 1.59455 1.52614 1.56692 1.59501 
rRFP 1 395 double
2710.42 2738.28 2668.02 3000.25 3019.86 2938.31 2628.17 3011.42 2812.67 
3073.16 3022 3493.95 3328.21 2643.43 2666.23 3062.93 3247.54 2946.74 
2567.23 3360.01 3791.51 2709.75 2790 2832.88 3294.57 3336.53 2834.79 
4183.49 3118.42 2957.8 3833.07 2973.43 3993.43 3924.91 3770.86 3653.21 
3399.21 3370.23 3299.22 3263.21 3263.21 3225.04 3065.41 2957.8 3320.68 
3554.43 3507.88 3924.56 4201.25 4196 4300.59 3789.36 3754.05 3665.49 
3635.8 3604.68 3573.77 3488.95 3478.3 3409.09 3409.09 3358.73 3270.65 
3270.65 3056.2 3176.59 3136.1 3148.1 3298.54 3420.75 3626.35 3626.35 
3876.49 3933.32 3792.4 3853.36 3850.52 3559.68 3675.6 3531.4 3268 
3228.04 3123.44 3123.44 3025.84 3128.54 3139.43 3072.6 2933.64 3100.6 
3053.32 3035.64 3181.98 3181.98 3178.36 3135.09 3135.09 3512.65 3941.04 
4115.91 3751.02 3376.99 3155.8 3065.85 2930.26 2930.26 3074.21 3411.19 
3624.56 3745.78 3960.26 4123.42 3999.63 3940.01 3879.56 3583.48 3557.44 
3345.99 3444.65 3432.3 3479.53 3471.32 3658.36 3787.93 4058.09 4322.89 
4359.95 4421.28 4293.79 4189.05 3988.93 3557 3415.78 3272.91 3363.06 
3363.58 3345.35 3469.95 3508.58 3483.62 3544.75 3600.11 3427.28 3268.21 
3009.75 2820.84 2772.57 2738.99 2785.37 2863.86 3046.02 2874.78 2780.35 
2780.35 2764.98 2765.91 2734.05 2743.11 2832.88 3581.57 3356.42 3157.35 
3037.11 3022.95 2987.96 2989.47 2937.77 2920.64 2929.93 3019.95 2993.95 
3006.96 3096.88 3189.12 3332.52 2885.98 2878.83 2875.02 2922.96 2984.96 
3025.49 2940.09 2922.52 2799.44 2721.85 2654.41 2626.48 2627.75 2627.91 
2627.91 2643.51 2715.37 2740.22 2716.79 2716.79 2619.46 3014.52 3076.64 
3076.64 2994.36 2985.19 2964.31 3019.51 3019.51 3053.32 3066.25 3076.89 
2944.41 3216.37 3733.33 3709.17 3577.78 3406.04 3176.65 3286.83 3284.48 
3285.3 3376.98 3370.67 3331.12 3331.12 3175.37 2990.95 2987.12 2953.04 
2977.14 2977.14 2998.31 2998.31 2979.63 2916.47 2896.14 2875.91 2834.38 
2850.91 2886.09 2872.91 2856.75 2856.75 2819.98 2890.21 2886.86 2918.19 
3066.91 3106.74 3106.74 3144.32 3114.4 3127.02 3202.05 3317.1 3495.75 
3135.98 3142.57 3286.95 3202.11 3240.46 3179.41 3133.7 3186.98 3193.44 
3028.64 2978.31 2971.7 2909.52 2913.62 2879.02 2914.89 2945.6 3018.56 
3008.62 2997.6 3031.75 3202.12 3315.15 3315.15 3412.79 3583.73 3615.81 
3614.27 3288.16 3008.02 2944.47 2731.7 2774.16 2803.53 2888.72 2910.42 
2910.42 2917.58 2894.64 2828.65 2910.47 3129.07 3319.17 3002.26 2934.01 
2874.98 2874.98 2802.21 3044.51 3085.77 3093 3076.17 3032.6 3005.44 
2946 2946 2892.78 2849.83 2849.83 2923.35 2907.54 2912.99 3020.73 
2958.7 2841.32 2747.19 2699.56 2685.91 2725.91 2802.05 2805.36 2981.15 
2981.15 3064.41 3226.78 3191.4 3107.49 3180.07 3111.59 3002.72 2950.06 
3050.27 3034.44 2950.49 2960.28 3199.21 3248.99 3210.53 3135.31 2924.32 
2752.41 3115.53 3135.11 3108.74 2958.72 2940.86 2940.86 2834.49 2808.9 
2803.9 2807.48 2803.86 2786.27 2731.93 2813.65 2826.06 2858.28 2858.28 
2948.53 2914.04 3003.96 3029.99 3029.99 3076.68 2997.21 2974.35 2863.15 
2678.6 2678.6 2644.74 2659.1 2659.1 2725.88 2737.99 2759.91 2834.59 
2876.47 2908.7 2893.46 2893.46 2944.48 2925.78 2954.52 3001.32 2933.37 
2861.96 2803.32 2769.51 2791.98 2760.52 2738.28 2751.54 2760.67 
rGFP 1 395 double
2420.36 2414.74 2401.07 2400.84 2439.57 2354.25 2357.68 2378.12 2404.72 
2443.7 2428.3 2423.02 2417.49 2394.46 2348.57 2392.31 2384.25 2365.06 
2403.6 2482.99 2525.53 2334.38 2377.96 2484.09 2566.32 2539.16 2547.4 
2602.17 2525.9 2528.3 2561.95 2513.83 2581.88 2580.81 2554.77 2542.65 
2545.79 2552.28 2556.77 2553.42 2553.42 2540.8 2530.51 2528.3 2528.99 
2526.06 2524.81 2554.49 2568.17 2585.17 2585.1 2551.78 2531.65 2537.93 
2535.12 2576.73 2588.83 2580.01 2569.19 2551.74 2551.74 2562.09 2565.74 
2565.74 2546.79 2528.53 2529.01 2507.42 2513.65 2527.2 2512.8 2512.8 
2564.51 2586.91 2571.8 2616.37 2612.53 2579.19 2559.58 2556.15 2580.2 
2625.51 2608.4 2608.4 2586.68 2563.93 2558.26 2556.32 2577.37 2604.56 
2605.85 2614 2611.86 2611.86 2576.1 2568.32 2568.32 2557.26 2591.6 
2600.56 2598.41 2580.4 2551.44 2556.62 2566.11 2566.11 2590.51 2611.63 
2607.31 2629.36 2622.27 2623.35 2577.25 2583.42 2558.78 2568.67 2569.48 
2574.4 2578.62 2572.12 2540.58 2519.99 2538.43 2588.74 2602.15 2605.02 
2594.9 2614.2 2646.14 2639.96 2652.65 2615.04 2584.8 2584.63 2602.41 
2602.81 2582.4 2548.04 2542.95 2543.2 2552.3 2570.53 2580.72 2583 
2555.27 2529.12 2520.6 2527.36 2510.22 2479.9 2542.09 2511.67 2514.52 
2514.52 2509.12 2508.48 2507.15 2497.25 2484.09 2530.54 2504.65 2488.79 
2463.21 2447.02 2450.32 2463.91 2488.15 2509.26 2526.96 2515.07 2519.42 
2479.6 2460 2454.43 2427.11 2465.78 2460.3 2445.36 2435.72 2432.27 
2443.42 2449.69 2450.85 2442.32 2439.94 2464.1 2451.8 2450.05 2438.95 
2438.95 2425.94 2424.43 2419.27 2415.84 2415.84 2401.54 2388.27 2369.78 
2369.78 2370.54 2380.48 2383.96 2384.25 2384.25 2373.53 2372.33 2379.9 
2368.22 2383.53 2527.49 2537.33 2541.86 2533.52 2506.33 2513.15 2509.19 
2485.58 2497.21 2485.46 2502.19 2502.19 2501.17 2497.41 2487.19 2517.99 
2510.93 2510.93 2456.77 2456.77 2436.19 2445.1 2450.64 2436.02 2424.47 
2428.3 2435.23 2466.23 2462.32 2462.32 2450.31 2424.94 2434.54 2450.69 
2467.3 2467.63 2467.63 2449.44 2445.6 2432.37 2419.65 2406.99 2412.27 
2400.12 2403.99 2383.77 2361.42 2362.15 2391.22 2402.19 2426.02 2419.74 
2412.98 2405.81 2402.51 2395.19 2379.69 2369.84 2373.37 2363.41 2371.63 
2364.79 2388.41 2394.33 2390.56 2401.75 2401.75 2399.98 2412.72 2408.8 
2414.38 2401.04 2353.6 2355.98 2350.07 2355.06 2352.14 2366.54 2361.07 
2361.07 2352.74 2349.78 2348.38 2362.91 2369.96 2399.2 2413.22 2400.7 
2383.23 2383.23 2387.22 2427.83 2424.68 2415.65 2440.49 2441.85 2441.77 
2438.73 2438.73 2414.3 2398.15 2398.15 2383.25 2377.01 2373.68 2406.36 
2414.91 2418.69 2422.47 2417.27 2423.3 2424.91 2413.84 2412.33 2433.93 
2433.93 2428.84 2416.16 2431.06 2447.53 2402.47 2394.69 2366.16 2348.77 
2450.53 2456.33 2438.79 2441.91 2441.67 2441.81 2432.54 2427.09 2377.93 
2369.74 2411.49 2440.68 2444.75 2441.01 2400.85 2400.85 2383.62 2392.96 
2388.36 2378.68 2372.65 2383.02 2391.38 2388.33 2390.85 2401.51 2401.51 
2398.9 2387.79 2399.54 2406.26 2406.26 2398.21 2381.98 2378.72 2370.89 
2388.1 2388.1 2374.32 2381.47 2381.47 2391.52 2411.79 2422.95 2411.02 
2402.78 2407.91 2423.19 2423.19 2423.14 2428.21 2417.65 2415.81 2413.2 
2408.43 2405.77 2409 2411.65 2412.74 2414.74 2414.17 2433.04 
bkstRFP 1 395 double
468.295 496.155 425.895 758.125 777.735 696.185 386.045 769.295 570.545 
831.035 779.875 1251.82 1086.09 401.305 424.105 820.805 1005.42 704.615 
325.105 1117.89 1549.39 467.625 547.875 590.755 1052.45 1094.41 592.665 
1941.36 876.295 715.675 1590.95 731.305 1751.3 1682.78 1528.74 1411.09 
1157.09 1128.11 1057.09 1021.09 1021.09 982.915 823.285 715.675 1078.55 
1312.3 1265.76 1682.43 1959.13 1953.88 2058.47 1547.24 1511.93 1423.36 
1393.68 1362.55 1331.65 1246.82 1236.18 1166.97 1166.97 1116.61 1028.53 
1028.53 814.075 934.465 893.975 905.975 1056.42 1178.63 1384.22 1384.22 
1634.36 1691.2 1550.28 1611.24 1608.4 1317.55 1433.47 1289.28 1025.88 
985.915 881.315 881.315 783.715 886.415 897.305 830.475 691.515 858.475 
811.195 793.515 939.855 939.855 936.235 892.965 892.965 1270.53 1698.92 
1873.78 1508.9 1134.86 913.675 823.725 688.135 688.135 832.085 1169.07 
1382.43 1503.66 1718.14 1881.3 1757.51 1697.89 1637.43 1341.36 1315.32 
1103.86 1202.53 1190.18 1237.41 1229.2 1416.24 1545.8 1815.97 2080.77 
2117.82 2179.15 2051.67 1946.93 1746.8 1314.88 1173.66 1030.78 1120.93 
1121.45 1103.22 1227.82 1266.45 1241.49 1302.63 1357.99 1185.16 1026.09 
767.625 578.715 530.445 496.865 543.245 621.735 803.895 632.655 538.225 
538.225 522.855 523.785 491.925 500.985 590.755 1339.45 1114.3 915.225 
794.985 780.825 745.835 747.345 695.645 678.515 687.805 777.825 751.825 
764.835 854.755 946.995 1090.4 643.855 636.705 632.895 680.835 742.835 