# vtk DataFile Version 3.0
vtk output
ASCII
DATASET POLYDATA
POINTS 467 float
1.87931 0.751589 2.78924 1.9227 0.722675 2.54129 3.14798 0.349224 2.49153 
1.79321 0.691049 2.31219 4.33108 -0.376668 1.68382 1.26967 -0.411712 2.00617 
7.26105 -0.180114 0.621173 4.90022 -0.258364 0.983385 9.35029 0.503555 -0.70559 
1.02255 1.35919 -0.645644 4.8641 0.0542572 -0.104543 4.65495 0.219546 -0.233617 
3.84472 0.902724 -0.772264 -0.0857826 0.793541 -0.300564 9.56956 -0.925923 0.0618744 
3.95124 0.416642 -0.614266 4.13589 0.570816 -0.770728 9.25122 0.150975 -1.41804 
6.57687 -0.193521 -0.853613 7.39242 0.355227 -1.42554 -0.0982025 -0.846383 0.0602248 
-0.299301 -0.615011 -0.000641154 8.58849 0.240655 -1.70579 6.22732 -0.665711 -1.02467 
6.65204 -0.506549 -1.11846 7.50841 0.0385209 -1.69095 1.22982 -1.62328 -0.136965 
1.19352 -1.5888 -0.164586 1.13491 -1.56189 -0.183274 1.06945 -1.54501 -0.192266 
1.0089 -1.54052 -0.190563 0.946224 -1.53243 -0.191899 0.885624 -1.52804 -0.190097 
0.819052 -1.51302 -0.197304 0.752962 -1.49299 -0.199083 0.693158 -1.4724 -0.181971 
0.628914 -1.42628 -0.15745 0.561774 -1.36326 -0.127894 0.494437 -1.29402 -0.0939288 
0.427149 -1.22467 -0.060059 0.36151 -1.15488 -0.0267587 0.305127 -1.08255 0.00339362 
0.262491 -1.00648 0.028859 0.205678 -0.939078 0.0534888 0.13999 -0.884463 0.0690538 
0.0776364 -0.846512 0.0650557 0.0124324 -0.829208 0.0528089 6.27834 -0.755872 -1.16484 
6.32515 -0.815153 -1.26581 6.3727 -0.834201 -1.3198 6.42284 -0.823809 -1.34059 
6.47604 -0.791542 -1.33474 6.53556 -0.735256 -1.29115 6.60007 -0.646748 -1.2071 
7.47125 -0.075164 -1.71493 7.42767 -0.15392 -1.72978 7.37026 -0.184579 -1.74669 
7.31857 -0.219552 -1.75025 7.27503 -0.280759 -1.75093 7.22696 -0.333912 -1.75845 
7.18121 -0.373579 -1.74835 7.14726 -0.404856 -1.69695 7.11378 -0.431111 -1.64012 
7.06888 -0.454662 -1.61464 7.01852 -0.486119 -1.61149 6.97201 -0.524432 -1.60254 
6.93621 -0.564172 -1.56333 6.89647 -0.596908 -1.53006 6.84039 -0.606421 -1.52616 
6.78585 -0.624574 -1.52461 6.74123 -0.636873 -1.4893 6.71084 -0.633379 -1.3996 
6.68471 -0.59046 -1.26586 7.56166 0.0707102 -1.68503 7.61913 0.107138 -1.66335 
7.67919 0.144826 -1.63303 7.72752 0.197527 -1.62514 7.78025 0.224761 -1.6247 
7.84112 0.225771 -1.62139 7.89622 0.231164 -1.63149 7.94814 0.242215 -1.64638 
8.00381 0.252486 -1.65092 8.06596 0.257076 -1.64097 8.12343 0.275877 -1.63339 
8.18062 0.283434 -1.63563 8.24667 0.263477 -1.63392 8.31561 0.22662 -1.63724 
8.38186 0.200439 -1.63993 8.4419 0.191174 -1.64728 8.50296 0.185952 -1.64838 
8.55265 0.200992 -1.66665 7.45042 0.196874 -1.55825 6.63625 -0.359722 -0.979378 
6.28719 -0.489673 -0.925748 6.34206 -0.357695 -0.849977 6.38689 -0.266019 -0.823557 
6.43246 -0.215595 -0.830005 6.48767 -0.187126 -0.850902 6.15616 -0.665967 -0.974364 
6.10359 -0.675632 -0.930677 6.06407 -0.703471 -0.888506 6.02369 -0.727363 -0.84981 
5.98632 -0.746699 -0.798853 5.94459 -0.740645 -0.740375 5.90458 -0.725902 -0.669892 
5.87494 -0.717656 -0.574541 5.84935 -0.695371 -0.462254 5.83208 -0.636104 -0.334086 
5.84836 -0.556007 -0.177902 5.88225 -0.469483 -0.00919836 5.92833 -0.384437 0.149694 
5.99333 -0.305441 0.272257 6.06121 -0.232634 0.36014 6.13422 -0.194699 0.428975 
6.2097 -0.178579 0.487247 6.28476 -0.173658 0.535653 6.35871 -0.164321 0.590184 
6.4235 -0.157479 0.647847 6.47385 -0.159301 0.704676 6.5358 -0.170896 0.739224 
6.60189 -0.1828 0.753673 6.66243 -0.187292 0.75197 6.72507 -0.195304 0.75324 
6.78495 -0.198415 0.750356 6.84698 -0.211221 0.746005 6.90501 -0.222791 0.730933 
6.96006 -0.240794 0.701944 7.00245 -0.236278 0.653863 7.04682 -0.236594 0.607455 
7.09819 -0.227557 0.584433 7.16497 -0.207239 0.58727 -0.202852 -0.670898 -0.00989818 
-0.135125 -0.740419 0.00346935 -0.334551 -0.695624 0.0420289 -0.352851 -0.74883 0.0917098 
-0.340399 -0.773424 0.147909 -0.303538 -0.795678 0.185404 -0.224592 -0.824787 0.16129 
8.65848 0.196066 -1.71224 8.72742 0.141588 -1.72967 8.7958 0.0822324 -1.75266 
8.86446 0.0341326 -1.76581 8.9316 0.0239877 -1.75306 8.99248 0.0660913 -1.71682 
9.05587 0.132901 -1.65309 9.12739 0.181609 -1.57382 9.19055 0.199256 -1.50577 
9.22706 0.18405 -1.45555 8.60933 0.353273 -1.6793 8.60506 0.439812 -1.66692 
8.58734 0.498669 -1.67829 8.56672 0.547125 -1.69999 8.54478 0.599936 -1.71551 
8.51421 0.663327 -1.70976 8.46328 0.717894 -1.68411 8.40639 0.748879 -1.65666 
8.33988 0.763992 -1.66396 8.2707 0.754281 -1.69861 8.20701 0.728917 -1.72968 
8.14353 0.720809 -1.74633 8.08873 0.726833 -1.72657 8.0354 0.73955 -1.70297 
7.97975 0.75754 -1.71389 7.93197 0.766549 -1.75746 7.87352 0.766037 -1.79143 
7.81469 0.770914 -1.79023 7.75552 0.80232 -1.76294 7.70408 0.831549 -1.71441 
7.65684 0.84739 -1.66423 7.61346 0.83876 -1.62235 7.57975 0.801177 -1.57529 
7.55021 0.750289 -1.52663 7.52091 0.693101 -1.48231 7.49061 0.625945 -1.4489 
7.45875 0.543953 -1.43197 7.42585 0.452064 -1.42601 -0.309646 -0.573153 -0.080693 
-0.327905 -0.5406 -0.138276 -0.347782 -0.506858 -0.180125 -0.359085 -0.471819 -0.223957 
-0.35522 -0.435894 -0.276681 -0.357072 -0.41114 -0.338793 -0.351897 -0.379663 -0.397633 
-0.352616 -0.344996 -0.448802 -0.344833 -0.288785 -0.480193 -0.342944 -0.229383 -0.503914 
-0.334027 -0.163258 -0.524362 -0.330305 -0.103357 -0.548707 -0.310574 -0.0342801 -0.572841 
-0.280454 0.0472372 -0.589187 -0.247598 0.139024 -0.595048 -0.212889 0.239456 -0.588876 
-0.172774 0.347689 -0.560276 -0.125865 0.469546 -0.494601 -0.0931445 0.623804 -0.406806 
-0.164344 -0.85886 0.266239 -0.168768 -0.840713 0.413103 -0.144433 -0.825079 0.512364 
-0.107832 -0.820557 0.586211 -0.0577711 -0.817742 0.648887 -0.0198915 -0.80384 0.732716 
0.0102977 -0.777622 0.836174 0.0393566 -0.746912 0.945678 0.0672823 -0.726116 1.04424 
0.0947783 -0.710243 1.13728 0.124537 -0.688947 1.23521 0.166857 -0.649812 1.34586 
0.234441 -0.598976 1.45357 0.312501 -0.550086 1.55204 0.390737 -0.515558 1.63345 
0.468024 -0.490895 1.70385 0.544224 -0.47605 1.7632 0.618664 -0.469825 1.81049 
0.687603 -0.471434 1.83538 0.749489 -0.472234 1.84022 0.8161 -0.487319 1.84749 
0.883233 -0.497458 1.86025 0.946161 -0.488368 1.87606 1.01662 -0.475062 1.91735 
1.09078 -0.462453 1.96893 1.16044 -0.447717 2.009 1.2179 -0.428909 2.01658 
7.34671 0.385989 -1.35895 7.30052 0.411725 -1.29779 7.25401 0.42629 -1.24653 
7.20991 0.418936 -1.20573 7.17094 0.38484 -1.1713 7.12836 0.339531 -1.15641 
7.08682 0.280624 -1.14937 7.03988 0.237217 -1.14578 6.99518 0.207448 -1.1247 
6.9607 0.171218 -1.07879 6.92514 0.125184 -1.04392 6.87815 0.0818469 -1.04039 
6.82671 0.0405727 -1.0483 6.77952 0.00346677 -1.04036 6.74003 -0.0355773 -1.01143 
6.69904 -0.0661641 -0.979975 6.66051 -0.102331 -0.943727 6.6179 -0.138631 -0.90697 
9.27193 -0.0127485 -1.53237 9.30474 -0.15876 -1.63382 9.31755 -0.281411 -1.69445 
9.31149 -0.370776 -1.70332 9.32233 -0.412293 -1.66693 9.3464 -0.411766 -1.58973 
9.37475 -0.386049 -1.48564 9.4031 -0.360333 -1.38156 9.42769 -0.354865 -1.29887 
9.44052 -0.376621 -1.2405 9.43789 -0.417007 -1.19386 9.44864 -0.45855 -1.15744 
9.46854 -0.497593 -1.12415 9.49011 -0.536181 -1.09143 9.51168 -0.574769 -1.05871 
9.53158 -0.613813 -1.02542 9.54222 -0.655383 -0.98897 9.53774 -0.696276 -0.941696 
9.53734 -0.726448 -0.884487 9.52463 -0.745572 -0.806078 9.51402 -0.75931 -0.722709 
9.52424 -0.772173 -0.652121 9.53333 -0.794953 -0.592473 9.51948 -0.823991 -0.525008 
9.49761 -0.845614 -0.443479 9.48585 -0.854867 -0.354057 9.49765 -0.852885 -0.266995 
9.5112 -0.850421 -0.180537 9.51214 -0.85621 -0.0954415 9.52601 -0.868077 -0.0260966 
9.54747 -0.892283 0.0236604 9.28694 0.245916 -1.2371 9.32197 0.340055 -1.05536 
9.3501 0.425855 -0.87546 4.20588 0.526227 -0.777181 4.27691 0.491534 -0.772651 
4.34836 0.461755 -0.762604 4.41648 0.416656 -0.768419 4.47263 0.358679 -0.781493 
4.50448 0.298884 -0.780607 4.52802 0.260834 -0.748556 4.5524 0.247027 -0.688461 
4.57772 0.243096 -0.617342 4.60251 0.234211 -0.551722 4.62617 0.215408 -0.497041 
4.64857 0.20107 -0.436267 4.66223 0.203555 -0.34985 4.10085 0.5296 -0.730261 
4.05573 0.503878 -0.702798 4.00494 0.47343 -0.670538 4.14799 0.618594 -0.81493 
4.12622 0.657127 -0.847584 4.06929 0.690901 -0.86261 4.00038 0.736334 -0.857021 
3.92705 0.807751 -0.824455 3.87088 0.512143 -0.562738 3.81035 0.587064 -0.534545 
3.77884 0.642705 -0.541707 3.7668 0.688733 -0.572039 3.77177 0.734596 -0.613837 
3.7748 0.780447 -0.65544 3.79916 0.835299 -0.70718 3.97268 0.352191 -0.568227 
4.00542 0.299574 -0.543909 4.06118 0.254807 -0.538851 4.11805 0.220992 -0.523781 
4.15304 0.190874 -0.489966 4.18001 0.168171 -0.442086 4.21562 0.143019 -0.402819 
4.27542 0.119672 -0.377462 4.34558 0.0944354 -0.361385 4.41727 0.0759829 -0.341567 
4.4854 0.0758043 -0.317894 4.54443 0.109449 -0.293848 4.59981 0.161347 -0.265905 
3.78701 0.952472 -0.81161 3.74044 0.991708 -0.842541 3.67995 1.02549 -0.857234 
3.61198 1.06432 -0.855783 3.54783 1.11047 -0.831305 3.49008 1.15091 -0.792284 
3.42583 1.19703 -0.767772 3.35608 1.23532 -0.765664 3.28462 1.26492 -0.775546 
3.21331 1.28837 -0.789904 3.14593 1.30481 -0.798324 3.08453 1.31063 -0.797734 
3.01719 1.327 -0.806089 2.94664 1.3491 -0.819299 2.87931 1.36547 -0.827654 
2.81795 1.37122 -0.827005 2.75138 1.38622 -0.834206 2.68553 1.39996 -0.840326 
2.62886 1.39735 -0.832593 2.57271 1.39969 -0.819368 2.50847 1.42818 -0.808956 
2.44579 1.47151 -0.782078 2.39282 1.50345 -0.735848 2.34 1.52923 -0.694095 
2.27969 1.55073 -0.677752 2.22037 1.55871 -0.669311 2.15778 1.56665 -0.670516 
2.09794 1.56968 -0.667567 2.03606 1.57634 -0.66769 1.98016 1.57237 -0.658803 
1.92426 1.5684 -0.649916 1.86238 1.57506 -0.65004 1.80206 1.57307 -0.652516 
1.73862 1.56489 -0.669106 1.67959 1.53125 -0.693151 1.62008 1.49258 -0.722636 
1.55584 1.4682 -0.754538 1.49913 1.44804 -0.76097 1.44669 1.43204 -0.751572 
1.39154 1.42672 -0.741538 1.33047 1.43195 -0.740449 1.27537 1.42655 -0.73035 
1.22421 1.41414 -0.714313 1.17376 1.40046 -0.697195 1.12336 1.3867 -0.680011 
1.07296 1.37295 -0.662827 4.72505 0.194205 -0.217441 4.78433 0.165909 -0.197575 
4.81879 0.130841 -0.169248 4.84233 0.0927906 -0.137197 9.3023 0.592569 -0.581322 
9.23971 0.691163 -0.494298 9.17928 0.775761 -0.424839 9.12467 0.845759 -0.352789 
9.06332 0.910235 -0.305094 9.00116 0.958514 -0.272725 8.94686 0.969311 -0.247313 
8.89617 0.961932 -0.22585 8.84573 0.948252 -0.208732 8.79532 0.934495 -0.191548 
8.74492 0.920738 -0.174365 8.69452 0.90698 -0.157181 8.64412 0.893223 -0.139997 
8.59376 0.879389 -0.122748 8.54411 0.864278 -0.104417 8.49841 0.842164 -0.0801492 
8.45867 0.809427 -0.0468769 8.41297 0.787306 -0.0226028 8.36332 0.772196 -0.00427218 
8.31296 0.758361 0.0129769 8.26256 0.744604 0.0301606 8.21216 0.730847 0.0473443 
8.16176 0.71709 0.064528 8.11135 0.703332 0.0817117 8.06095 0.689575 0.0988954 
8.01055 0.675818 0.116079 7.96019 0.661983 0.133328 7.91054 0.646873 0.151659 
7.86488 0.624682 0.175992 7.82591 0.590586 0.210417 7.78442 0.555089 0.236344 
7.74516 0.50975 0.260942 7.70215 0.459339 0.270468 7.66238 0.409052 0.289574 
7.62041 0.36853 0.310075 7.58276 0.337952 0.351204 7.54256 0.30605 0.383769 
7.50728 0.253623 0.414362 7.46996 0.181348 0.423064 7.42634 0.108515 0.412867 
7.38854 0.0236388 0.410475 7.35489 -0.05413 0.433763 7.3161 -0.116707 0.501339 
4.84982 -0.272121 1.00057 4.79941 -0.285878 1.01775 4.74953 -0.294687 1.04043 
4.70074 -0.293684 1.07414 4.65422 -0.27912 1.12541 4.61221 -0.266682 1.18817 
4.57636 -0.271103 1.25553 4.53696 -0.286815 1.30341 4.49931 -0.317393 1.34454 
4.45967 -0.344424 1.38266 4.42772 -0.373393 1.44179 4.40055 -0.393253 1.52223 
4.37048 -0.396205 1.60771 7.35465 -0.238373 0.517341 7.42705 -0.327543 0.433376 
7.47951 -0.432908 0.363414 7.50689 -0.535882 0.316148 7.52565 -0.618469 0.298832 
7.54355 -0.677273 0.310135 7.55368 -0.723791 0.34109 7.54919 -0.764684 0.388364 
7.5487 -0.794884 0.445608 7.5346 -0.809492 0.530079 7.512 -0.810353 0.632967 
7.48388 -0.787205 0.744717 7.44102 -0.738012 0.834411 7.38683 -0.668465 0.906827 
7.33387 -0.609222 0.96844 7.28455 -0.539901 1.01061 7.25554 -0.461667 1.03284 
7.2363 -0.384098 1.04474 7.21954 -0.315377 1.04438 7.21223 -0.258487 1.02379 
7.22797 -0.210827 0.976854 7.25095 -0.18245 0.899118 7.26509 -0.176951 0.780372 
1.82154 0.697546 2.39362 1.8606 0.706964 2.47137 3.09677 0.336897 2.5075 
3.04163 0.331575 2.51754 2.97933 0.333306 2.51189 2.91894 0.323345 2.49662 
2.85996 0.317886 2.45716 2.81213 0.326969 2.41353 2.75573 0.346322 2.40145 
2.69819 0.372407 2.4234 2.63356 0.413538 2.44246 2.56457 0.450472 2.44571 
2.49776 0.471789 2.44285 2.43692 0.482485 2.44899 2.37187 0.512408 2.45819 
2.30839 0.557169 2.48385 2.25025 0.592632 2.5174 2.18621 0.624392 2.52485 
2.12482 0.640857 2.49586 2.07685 0.656082 2.4567 2.0212 0.67408 2.44577 
1.96968 0.695327 2.4815 1.90074 0.734661 2.66252 
LINES 29 528
22 26 27 28 29 30 31 32 33 34 35 36 37 38 39 40 41 42 43 44 45 46 20 
9 23 47 48 49 50 51 52 53 24 
21 25 54 55 56 57 58 59 60 61 62 63 64 65 66 67 68 69 70 71 72 24 
20 25 73 74 75 76 77 78 79 80 81 82 83 84 85 86 87 88 89 90 22 
3 25 91 19 
3 24 92 18 
7 23 93 94 95 96 97 18 
35 23 98 99 100 101 102 103 104 105 106 107 108 109 110 111 112 113 114 115 116 117 118 119 120 121 122 123 124 125 126 127 128 129 130 6 
4 21 131 132 20 
7 21 133 134 135 136 137 20 
12 22 138 139 140 141 142 143 144 145 146 147 17 
30 22 148 149 150 151 152 153 154 155 156 157 158 159 160 161 162 163 164 165 166 167 168 169 170 171 172 173 174 175 19 
21 21 176 177 178 179 180 181 182 183 184 185 186 187 188 189 190 191 192 193 194 13 
29 20 195 196 197 198 199 200 201 202 203 204 205 206 207 208 209 210 211 212 213 214 215 216 217 218 219 220 221 5 
20 19 222 223 224 225 226 227 228 229 230 231 232 233 234 235 236 237 238 239 18 
33 17 240 241 242 243 244 245 246 247 248 249 250 251 252 253 254 255 256 257 258 259 260 261 262 263 264 265 266 267 268 269 270 14 
15 16 274 275 276 277 278 279 280 281 282 283 284 285 286 11 
5 16 287 288 289 15 
7 16 290 291 292 293 294 12 
9 15 295 296 297 298 299 300 301 12 
15 15 302 303 304 305 306 307 308 309 310 311 312 313 314 11 
48 12 315 316 317 318 319 320 321 322 323 324 325 326 327 328 329 330 331 332 333 334 335 336 337 338 339 340 341 342 343 344 345 346 347 348 349 350 351 352 353 354 355 356 357 358 359 360 9 
6 11 361 362 363 364 10 
15 7 408 409 410 411 412 413 414 415 416 417 418 419 420 4 
25 6 421 422 423 424 425 426 427 428 429 430 431 432 433 434 435 436 437 438 439 440 441 442 443 6 
4 3 444 445 1 
22 2 446 447 448 449 450 451 452 453 454 455 456 457 458 459 460 461 462 463 464 465 1 
3 1 466 0 
49 17 271 272 273 8 365 366 367 368 369 370 371 372 373 374 375 376 377 378 379 380 381 382 383 384 385 386 387 388 389 390 391 392 393 394 395 396 397 398 399 400 401 402 403 404 405 406 407 6 

POINT_DATA 467
SCALARS DY_raw double
LOOKUP_TABLE default
336.061 208.965 251.809 116.295 177.329 214.718 243.649 115.809 205.546 
157.858 264.824 184.094 124.949 110.192 255.508 126.576 131.018 154.097 
246.803 229.687 95.5414 102.982 156.289 219.789 269.629 128.416 265.475 
223.262 186.707 156.136 148.967 148.967 147.209 147.273 147.273 135.892 
114.859 106.375 121.134 104.197 117.821 129.129 137.655 179.68 152.772 
161.452 133.263 219.117 224.165 217.199 223.091 246.374 243.809 281.398 
141.806 144.826 144.826 154.19 185.473 202.349 182.319 208.298 227.642 
227.642 211.171 192.003 188.387 186.877 180.937 174.236 175.656 216.679 
247.192 153.723 153.227 178.505 184.063 211.393 218.764 191.488 213.26 
204.794 198.662 251.905 251.905 283.126 223.205 255.301 277.98 201.319 
201.319 151.681 259.474 297.726 267.27 252.187 203.15 209.189 203.323 
196.532 200.327 199.549 193.86 206.903 177.415 185.314 195.101 219.98 
251.404 190.47 163.819 187.337 196.807 211.629 208.001 237.353 220.724 
256.042 225.06 212.491 222.607 244.209 244.209 255.941 247.064 298.663 
250.494 250.494 220.754 215.648 238.537 88.4766 106.161 101.413 92.7775 
88.4266 88.0387 88.0194 158.083 197.146 168.946 161.934 168.171 185.335 
212.76 201.929 170.152 170.152 208.401 215.254 206.671 230.039 212.889 
225.849 234.566 267.308 251.26 249.389 200.177 200.177 189.25 205.026 
211.426 227.083 213.824 216.083 237.07 253.851 289.365 289.679 315.49 
334.531 323.539 279.029 250.946 210.315 107.976 97.9395 94.4287 115.659 
115.659 118.958 144.327 125.974 144.643 137.789 161.875 155.158 142.196 
108.536 111.726 118.802 113.546 102.824 91.521 104.776 119.152 137.04 
144.99 152.331 156.773 158.677 158.324 147.888 123.24 128.067 145.533 
138.548 136.002 174.709 200.9 172.745 195.813 205.746 200.399 183 
204.423 210.517 196.865 209.375 189.576 194.091 262.389 288.957 301.942 
281.94 281.94 281.668 248.212 247.379 253.493 281.99 277.867 277.867 
255.762 260.607 249.563 256.024 234.762 221.134 145.589 127.601 110.367 
86.0962 86.0962 99.9848 107.018 126.756 123.827 132.334 136.429 167.861 
167.861 195.415 199.999 199.999 200.977 196.834 192.932 186.85 189.032 
174.289 145.573 142.758 152.361 153.024 159.266 170.674 204.75 224.382 
229.305 197.553 192.27 192.075 121.212 123.288 139.823 126.563 136.45 
128.88 127.053 119.493 132.431 125.926 146.216 153.523 144.102 123.682 
115.709 108.68 138.795 130.915 126.392 117.848 109.686 144.953 146.116 
127.751 139.09 137.172 131.722 129.016 139.393 135.153 131.501 139.942 
138.705 118.874 137.705 143.687 134.655 147.31 151.351 141.191 152.152 
124.687 131.801 133.969 133.593 148.295 167.867 166.234 144.334 150.603 
122.242 120.862 118.944 108.889 133.025 119.184 113.946 132.651 111.213 
119.592 110.789 111.782 112.617 134.039 131.825 166.623 171.629 171.629 
180.781 180.781 161.083 177.309 177.309 161.042 189.063 177.514 162.433 
171.466 149.009 136.795 120.723 108.399 108.399 115.205 124.713 124.713 
137.355 184.094 199.823 199.823 214.107 185.384 206.556 207.468 225.881 
360.197 365.27 403.872 403.872 330.231 330.231 303.495 279.646 279.646 
257.826 233.422 233.422 223.21 222.715 223.641 242.211 240.25 245.29 
245.29 247.659 275.078 287.633 287.633 291.446 272.726 272.726 279.947 
286.505 306.764 306.764 315.536 345.994 375.895 367.092 322.174 293.505 
251.338 234.227 232.912 121.851 129.255 138.999 146.971 152.979 150.057 
132.862 146.188 135.139 117.946 128.672 125.135 156.649 224.135 215.933 
239.006 234.02 210.32 197.495 188.028 188.028 159.931 162.365 152.419 
167.766 171.706 185.985 181.8 176.175 177.595 193.746 204.095 212.516 
244.203 283.059 301.606 150.103 158.852 251.809 249.229 256.929 209.726 
191.481 188.672 167.263 161.873 142.058 146.743 151.794 147.229 164.264 
218.986 214.466 206.946 189.177 207.34 197.568 201.945 289.703 
FIELD FieldData 7
DY_minmax 1 467 double
0.786607 0.386653 0.521476 0.0950332 0.287099 0.404756 0.495798 0.093503 0.375894 
0.225826 0.562434 0.308387 0.122264 0.0758272 0.533117 0.127385 0.141364 0.21399 
0.505723 0.451863 0.0297229 0.0531369 0.220887 0.420714 0.577556 0.133174 0.564482 
0.431642 0.31661 0.220405 0.197847 0.197847 0.192313 0.192515 0.192515 0.156701 
0.0905128 0.0638134 0.11026 0.0569608 0.0998346 0.13542 0.162249 0.294498 0.20982 
0.237136 0.148428 0.418599 0.434484 0.412564 0.431106 0.504375 0.496301 0.614589 
0.175311 0.184816 0.184816 0.214284 0.312726 0.365832 0.302802 0.384553 0.445426 
0.445426 0.393594 0.333274 0.321897 0.317145 0.298451 0.277364 0.281835 0.410927 
0.506947 0.212812 0.211252 0.290798 0.308288 0.394292 0.417488 0.331656 0.400167 
0.373527 0.354231 0.521778 0.521778 0.620027 0.431465 0.532466 0.603835 0.362591 
0.362591 0.206388 0.545599 0.665972 0.570132 0.522668 0.368353 0.387357 0.368898 
0.347527 0.35947 0.357022 0.339118 0.380164 0.287369 0.312224 0.343026 0.421317 
0.520202 0.328452 0.244585 0.318592 0.348392 0.395037 0.38362 0.475986 0.423658 
0.534796 0.437303 0.397749 0.429583 0.497561 0.497561 0.534479 0.506545 0.668919 
0.517339 0.517339 0.423752 0.407684 0.479711 0.00749086 0.0631418 0.0482 0.0210252 
0.00733359 0.00611278 0.0060522 0.226534 0.349461 0.260718 0.238653 0.25828 0.312291 
0.398595 0.364512 0.264512 0.264512 0.384877 0.406442 0.379434 0.452969 0.399002 
0.439783 0.467215 0.57025 0.519749 0.513861 0.358997 0.358997 0.324612 0.374257 
0.394398 0.443667 0.401943 0.409053 0.475097 0.527904 0.639662 0.640648 0.721874 
0.781791 0.747203 0.607134 0.518762 0.390901 0.0688545 0.0372695 0.0262213 0.093031 
0.093031 0.103411 0.183245 0.125491 0.184239 0.162671 0.238466 0.217328 0.17654 
0.0706157 0.0806538 0.102921 0.0863811 0.0526415 0.0170711 0.0587841 0.104023 0.160315 
0.185331 0.208432 0.222411 0.228402 0.227291 0.194451 0.116886 0.132077 0.18704 
0.165059 0.157046 0.278852 0.361273 0.272671 0.345264 0.376523 0.359697 0.304944 
0.372359 0.391537 0.348576 0.387942 0.325637 0.339845 0.554772 0.638377 0.679239 
0.616296 0.616296 0.61544 0.510159 0.507536 0.526775 0.616452 0.603477 0.603477 
0.533916 0.549164 0.514408 0.534742 0.467833 0.424948 0.187218 0.130612 0.0763769 
0 0 0.0437057 0.0658368 0.12795 0.118733 0.145503 0.158392 0.257305 
0.257305 0.344013 0.358437 0.358437 0.361514 0.348477 0.336199 0.317059 0.323926 
0.277532 0.187165 0.178308 0.208528 0.210614 0.230256 0.266155 0.373388 0.435169 
0.450659 0.350739 0.334116 0.333503 0.110506 0.117037 0.16907 0.127343 0.158457 
0.134635 0.128887 0.105094 0.14581 0.125339 0.189191 0.212182 0.182536 0.118277 
0.093187 0.0710682 0.165835 0.141039 0.126807 0.0999204 0.0742352 0.185214 0.188876 
0.131083 0.166764 0.160729 0.143578 0.135062 0.167718 0.154375 0.142882 0.169446 
0.165555 0.103148 0.162406 0.18123 0.15281 0.192634 0.205349 0.173378 0.20787 
0.121441 0.143829 0.150651 0.149468 0.195732 0.257322 0.252182 0.183266 0.202996 
0.113747 0.109404 0.103369 0.0717262 0.14768 0.104124 0.0876386 0.146503 0.079038 
0.105407 0.0777042 0.0808286 0.0834586 0.15087 0.143903 0.253408 0.26916 0.26916 
0.29796 0.29796 0.235975 0.287034 0.287034 0.235846 0.324022 0.28768 0.240222 
0.268649 0.19798 0.159542 0.108967 0.0701836 0.0701836 0.0916012 0.121522 0.121522 
0.161305 0.308387 0.357885 0.357885 0.402834 0.312447 0.379072 0.381943 0.439885 
0.862561 0.878524 1 1 0.768262 0.768262 0.684125 0.609077 0.609077 
0.540412 0.463615 0.463615 0.431478 0.429921 0.432835 0.491274 0.485103 0.500964 
0.500964 0.508417 0.594703 0.63421 0.63421 0.64621 0.5873 0.5873 0.610023 
0.63066 0.694414 0.694414 0.722017 0.817865 0.91196 0.884258 0.742908 0.652688 
0.519995 0.466149 0.462012 0.112517 0.135814 0.166478 0.191564 0.210472 0.201276 
0.147166 0.189102 0.154332 0.100228 0.13398 0.122852 0.222021 0.43439 0.40858 
0.481189 0.465496 0.390917 0.350558 0.320767 0.320767 0.23235 0.240008 0.208711 
0.257004 0.269404 0.314339 0.301169 0.283466 0.287936 0.33876 0.371326 0.397826 
0.497542 0.619818 0.678183 0.201421 0.228952 0.521476 0.513358 0.53759 0.389047 
0.331631 0.322792 0.25542 0.238459 0.176104 0.190849 0.206742 0.192377 0.245983 
0.418187 0.403964 0.3803 0.324381 0.381538 0.350787 0.364563 0.640726 
WidthEq 1 467 double
1 1.75489 1.86444 1.15637 3.6897 1.99281 4.89209 3.2697 3.75702 
2.24037 1.74969 2.72133 3.2515 4.12807 2.20479 2.97798 3.25635 5.28843 
3.80628 3.50681 2.69256 2.6195 3.6853 3.75474 2.85396 4.80425 1.46704 
1.96891 2.28042 2.50405 2.57024 2.57024 2.6527 2.82653 2.82653 2.81474 
2.81189 2.87739 2.85585 2.85844 2.83957 2.91089 2.81066 2.55098 2.69094 
2.61105 2.60921 3.51238 3.23977 3.21673 3.03741 2.93152 2.77283 2.67483 
4.87083 4.4695 4.4695 4.2445 3.81237 3.40966 3.47775 2.91348 2.65378 
2.65378 2.58578 3.14538 3.39869 3.19826 3.46099 3.63737 3.53475 3.15356 
2.86135 4.97891 4.84517 4.18936 3.94094 3.71054 3.4813 3.29989 2.91322 
2.87523 2.84443 2.34708 2.34708 1.99477 2.48435 2.21649 2.21894 2.99968 
2.99968 4.55252 3.17535 2.98617 3.33681 4.09763 4.54497 4.40358 3.78029 
3.77039 3.64714 3.62397 3.71104 3.7999 4.30257 4.35587 4.37532 4.07314 
3.5663 4.54355 4.76245 4.16325 3.6853 3.16535 2.94205 2.62369 2.58957 
2.53186 2.63596 2.83174 2.95346 3.0331 3.0331 3.12358 3.11847 2.93887 
3.3955 3.3955 3.94625 4.24585 4.55683 2.55854 2.49791 2.38501 2.18718 
2.30396 2.42588 2.94504 3.39986 3.00128 3.21672 3.06125 3.22089 3.13342 
3.381 4.34153 5.20301 5.20301 3.21242 3.17166 3.22648 3.06114 3.18687 
3.13693 2.99413 2.73838 2.75719 2.80703 2.92787 2.92787 2.91388 3.0104 
2.95479 3.01304 2.95337 2.89967 2.94854 2.88784 2.67064 2.52 2.69397 
2.67704 2.53033 3.10234 3.29673 3.64577 2.71208 2.78949 3.01424 2.84812 
2.84812 2.84808 2.53259 2.7955 2.65759 2.62032 2.33669 2.54851 2.75015 
3.37418 3.39197 3.2923 3.33328 3.66286 4.28755 3.2308 3.28086 3.07538 
3.0836 3.07075 3.00352 2.92425 2.86559 2.86934 3.08132 3.06099 2.76811 
2.66089 2.73336 2.57292 2.37582 2.43794 2.18796 2.06663 2.15191 2.17531 
2.05937 2.16933 2.41018 2.36118 2.43639 2.13999 3.2403 2.91455 2.59809 
2.62513 2.62513 2.46457 2.73722 2.80311 2.81784 2.61538 2.54291 2.54291 
2.57017 2.62023 2.74368 3.1483 3.51062 3.87715 4.25849 4.0998 3.98463 
3.83816 3.83816 3.74878 3.74706 3.37248 3.75631 3.73602 3.77955 3.47799 
3.47799 2.93621 2.87612 2.87612 2.78113 2.68359 2.65534 2.7741 2.73743 
2.9602 3.46384 3.41523 3.61464 4.27652 4.2097 4.32545 3.68323 3.05332 
2.93453 4.10165 4.194 4.16353 3.41163 3.07371 2.80191 2.99338 2.6955 
2.78803 2.64236 2.42509 2.28875 2.28183 2.45418 2.39587 2.94702 3.27882 
3.30088 3.31102 3.19963 2.98973 2.99338 3.14574 3.441 2.621 2.39242 
2.57493 2.5915 2.49636 2.74071 3.00213 2.85467 2.69732 2.99185 2.94744 
2.79406 3.12356 2.92714 2.57429 2.68404 2.32808 2.12996 2.60718 2.54667 
3.25278 3.04944 2.7222 2.50021 2.48903 2.39786 2.43964 2.73956 2.71801 
3.08928 3.0961 3.05118 2.98718 2.82038 2.90777 2.85488 2.83986 3.02431 
3.02387 3.11477 3.01052 2.98348 2.76383 2.89104 2.67766 2.72053 2.72053 
2.55371 2.55371 2.43589 2.21219 2.21219 2.27065 2.18198 2.3201 2.33057 
2.33615 2.40321 2.42993 2.6097 2.90963 2.90963 2.98461 3.06088 3.06088 
2.9493 2.72133 2.65835 2.65835 2.44976 3.58116 3.06072 2.92855 2.65326 
1.97706 2.02757 1.82875 1.82875 2.00112 2.00112 2.27922 2.47413 2.47413 
2.75799 2.88735 2.88735 2.91068 2.77005 2.7381 2.54229 2.50419 2.49774 
2.49774 2.49888 2.49115 2.46398 2.46398 2.45847 2.42881 2.42881 2.23947 
2.24112 2.31494 2.31494 2.32871 2.1925 2.11586 2.20474 2.47311 2.90449 
3.52084 4.18188 4.8225 3.93144 4.02927 3.9091 3.91398 3.77425 3.57972 
3.61029 3.71761 3.94468 4.54403 4.53122 4.6031 3.98426 4.8565 4.28768 
3.89509 3.62051 3.59828 3.87296 4.158 4.158 4.61017 4.39234 4.43232 
4.46486 3.99433 3.97795 4.22447 4.36908 4.5731 4.53579 4.38983 4.36105 
4.15261 3.96052 4.15628 1.77346 1.83814 1.86444 2.00138 1.97961 2.07915 
1.99117 1.91259 1.89176 1.92288 1.86692 1.89774 1.59553 1.54067 1.32665 
1.1072 1.22603 1.29667 1.4856 1.53377 1.72868 1.71383 1.16392 
rRFP 1 467 double
2798.6 3232.88 3295.9 2888.56 4345.95 3369.75 5037.67 4104.33 4384.68 
3512.17 3229.89 3788.86 4093.86 4598.14 3491.7 3936.51 4096.65 5265.68 
4413.02 4240.74 3772.31 3730.28 4343.42 4383.37 3865.16 4987.14 3067.28 
3356 3535.21 3663.86 3701.94 3701.94 3749.38 3849.38 3849.38 3842.6 
3840.96 3878.64 3866.25 3867.74 3856.88 3897.91 3840.25 3690.86 3771.38 
3725.42 3724.36 4243.94 4087.11 4073.86 3970.7 3909.78 3818.49 3762.11 
5025.44 4794.56 4794.56 4665.12 4416.52 4184.85 4224.02 3899.4 3750 
3750 3710.88 4032.81 4178.54 4063.23 4214.38 4315.85 4256.81 4037.52 
3869.41 5087.62 5010.68 4633.4 4490.49 4357.94 4226.06 4121.7 3899.25 
3877.4 3859.68 3573.56 3573.56 3370.88 3652.53 3498.43 3499.84 3948.99 
3948.99 4842.32 4050.05 3941.22 4142.94 4580.63 4837.98 4756.64 4398.07 
4392.37 4321.47 4308.14 4358.23 4409.35 4698.53 4729.19 4740.38 4566.54 
4274.96 4837.16 4963.09 4618.38 4343.42 4044.3 3915.84 3732.69 3713.06 
3679.86 3739.75 3852.38 3922.4 3968.22 3968.22 4020.27 4017.33 3914.01 
4176.7 4176.7 4493.54 4665.9 4844.8 3695.21 3660.33 3595.38 3481.57 
3548.75 3618.89 3917.56 4179.21 3949.91 4073.85 3984.41 4076.25 4025.93 
4168.36 4720.94 5216.54 5216.54 4071.38 4047.93 4079.47 3984.35 4056.68 
4027.95 3945.8 3798.67 3809.49 3838.16 3907.68 3907.68 3899.63 3955.16 
3923.17 3956.68 3922.35 3891.46 3919.57 3884.65 3759.7 3673.04 3773.12 
3763.38 3678.98 4008.05 4119.88 4320.68 3783.54 3828.07 3957.37 3861.8 
3861.8 3861.78 3680.28 3831.53 3752.19 3730.75 3567.58 3689.44 3805.44 
4164.44 4174.67 4117.33 4140.91 4330.51 4689.89 4081.95 4110.75 3992.54 
3997.27 3989.88 3951.2 3905.6 3871.85 3874.01 3995.96 3984.26 3815.77 
3754.09 3795.78 3703.48 3590.09 3625.83 3482.02 3412.22 3461.28 3474.74 
3408.04 3471.3 3609.86 3581.67 3624.94 3454.42 4087.42 3900.02 3717.96 
3733.52 3733.52 3641.15 3798 3835.91 3844.38 3727.91 3686.22 3686.22 
3701.9 3730.7 3801.72 4034.49 4242.93 4453.79 4673.17 4581.88 4515.62 
4431.36 4431.36 4379.94 4378.95 4163.46 4384.27 4372.6 4397.64 4224.16 
4224.16 3912.48 3877.91 3877.91 3823.26 3767.15 3750.9 3819.22 3798.12 
3926.28 4216.02 4188.05 4302.77 4683.54 4645.1 4711.69 4342.23 3979.85 
3911.51 4582.94 4636.07 4618.54 4185.98 3991.58 3835.22 3945.37 3774 
3827.23 3743.43 3618.44 3540 3536.02 3635.17 3601.63 3918.7 4109.58 
4122.27 4128.1 4064.02 3943.27 3945.37 4033.02 4202.88 3731.14 3599.64 
3704.64 3714.17 3659.44 3800.01 3950.4 3865.57 3775.05 3944.49 3918.94 
3830.7 4020.26 3907.26 3704.27 3767.41 3562.63 3448.65 3723.19 3688.38 
4094.6 3977.62 3789.36 3661.65 3655.22 3602.77 3626.81 3799.35 3786.95 
4000.54 4004.46 3978.62 3941.8 3845.84 3896.12 3865.69 3857.05 3963.16 
3962.91 4015.2 3955.23 3939.67 3813.31 3886.49 3763.74 3788.4 3788.4 
3692.43 3692.43 3624.65 3495.96 3495.96 3529.59 3478.58 3558.04 3564.06 
3567.27 3605.85 3621.22 3724.64 3897.19 3897.19 3940.32 3984.2 3984.2 
3920.01 3788.86 3752.63 3752.63 3632.63 4283.51 3984.11 3908.07 3749.7 
3360.69 3389.75 3275.37 3275.37 3374.53 3374.53 3534.52 3646.65 3646.65 
3809.95 3884.37 3884.37 3897.79 3816.89 3798.51 3685.86 3663.94 3660.23 
3660.23 3660.89 3656.44 3640.81 3640.81 3637.64 3620.58 3620.58 3511.65 
3512.6 3555.07 3555.07 3562.99 3484.63 3440.54 3491.67 3646.06 3894.23 
4248.81 4629.1 4997.64 4485.02 4541.3 4472.17 4474.98 4394.59 4282.68 
4300.27 4362.01 4492.64 4837.44 4830.07 4871.42 4515.41 5017.2 4689.96 
4464.11 4306.15 4293.36 4451.38 4615.36 4615.36 4875.49 4750.17 4773.17 
4791.89 4521.2 4511.78 4653.6 4736.79 4854.16 4832.7 4748.73 4732.17 