# vtk DataFile Version 3.0
vtk output
ASCII
DATASET POLYDATA
POINTS 375 float
3.11469 -1.38795 0.112277 3.15998 -1.52186 -0.223841 -0.4793 0.0480859 -0.494013 
-0.355882 -0.397441 -0.369667 -0.142112 -0.963331 -0.37942 -0.300498 0.567232 -0.539855 
-0.315112 0.406144 -0.611767 -0.0399694 -0.706656 -0.902482 3.35685 -1.38311 -0.54716 
3.50699 -1.40257 -0.676402 4.61025 -0.101596 -0.803364 7.28663 -0.0328955 -0.716093 
4.04701 -1.25429 -0.855045 3.91738 -1.16156 -1.09372 0.141726 0.316766 -1.33385 
7.23538 -0.162863 -1.1219 5.09095 0.560153 -1.36924 4.2945 0.0247912 -1.41028 
0.0842396 0.107227 -1.80892 5.26414 0.74644 -1.55846 4.60253 0.320684 -1.592 
5.55564 -0.0252293 -1.57176 7.89269 -0.613403 -1.51452 4.42831 0.493537 -1.79268 
7.28767 -0.544204 -1.73196 7.71538 -0.498765 -1.8171 4.45789 0.645268 -1.98748 
6.50894 -0.481723 -1.95513 6.86254 -0.740197 -2.09045 7.21699 -0.622727 -2.13688 
8.09633 0.182423 -2.28549 2.96579 1.19013 -2.61963 0.536383 0.156657 -2.72727 
2.79158 1.36299 -2.8203 2.82564 1.31693 -2.81315 2.88069 1.2784 -2.78287 
2.93456 1.23879 -2.71558 0.49328 0.0959112 -2.55989 0.44108 0.0609287 -2.40687 
0.381005 0.0484724 -2.26828 0.311589 0.0617515 -2.13912 0.24086 0.0775373 -2.01733 
0.170159 0.0835126 -1.9082 2.91245 1.15397 -2.42961 2.86168 1.11352 -2.26189 
2.80511 1.09346 -2.13823 2.75737 1.05593 -2.06671 2.70857 1.02623 -2.03947 
2.65756 1.00492 -2.03431 2.60617 0.985434 -2.03651 2.55471 0.96615 -2.03872 
2.50261 0.948567 -2.04089 2.44697 0.940329 -2.04291 2.38598 0.946272 -2.04467 
2.33035 0.938034 -2.04669 2.27825 0.920452 -2.04886 2.22655 0.900951 -2.04366 
2.17442 0.880914 -2.02367 2.12154 0.86033 -1.98147 2.06779 0.841231 -1.93184 
2.01074 0.831694 -1.88945 1.94904 0.836986 -1.86902 1.89317 0.828532 -1.86363 
1.84103 0.811053 -1.86581 1.78888 0.793574 -1.86798 1.73298 0.785222 -1.86259 
1.67063 0.792217 -1.84213 1.61006 0.792024 -1.79958 1.55095 0.787096 -1.7497 
1.50343 0.752342 -1.70775 1.45483 0.722961 -1.68792 1.40381 0.701654 -1.68275 
1.35243 0.682164 -1.68496 1.30097 0.66288 -1.68716 1.2489 0.645195 -1.68934 
1.19395 0.635152 -1.69138 1.13694 0.629718 -1.68594 1.09016 0.595511 -1.66619 
1.04081 0.565583 -1.62416 0.987898 0.545101 -1.58195 0.930675 0.537709 -1.55433 
0.865514 0.554688 -1.55591 0.800958 0.570068 -1.55752 0.747932 0.554084 -1.55226 
0.700471 0.521691 -1.53248 0.643634 0.514113 -1.51227 0.591954 0.492045 -1.4849 
0.548 0.447843 -1.44311 0.498418 0.417698 -1.39367 0.442052 0.406355 -1.35131 
0.380392 0.411545 -1.33089 0.324471 0.403028 -1.3255 0.271332 0.38434 -1.32774 
0.212867 0.357468 -1.33039 3.03103 1.17295 -2.61805 3.08807 1.17746 -2.6161 
3.14511 1.18198 -2.61415 3.21039 1.16469 -2.61258 3.27631 1.1457 -2.61104 
3.33753 1.13916 -2.60928 3.40349 1.12007 -2.60773 3.46941 1.10107 -2.60619 
3.52998 1.09625 -2.6044 3.59241 1.08649 -2.6027 3.65274 1.08145 -2.59351 
3.71796 1.0618 -2.56976 3.78247 1.0415 -2.52382 3.84138 1.03517 -2.47022 
3.9023 1.02407 -2.42412 3.96016 1.0176 -2.39281 4.01467 0.991728 -2.36218 
4.05788 0.950414 -2.31011 4.11519 0.912091 -2.23526 4.18131 0.876716 -2.14522 
4.2479 0.841773 -2.06997 4.30592 0.803904 -2.01734 4.34996 0.759904 -1.99498 
4.40407 0.711528 -1.98726 8.05151 0.148928 -2.31756 8.01486 0.0912765 -2.32783 
7.98168 0.0219194 -2.31608 7.94914 -0.0491395 -2.30438 7.91623 -0.118383 -2.30003 
7.88003 -0.178066 -2.30293 7.83834 -0.223746 -2.29818 7.80284 -0.28374 -2.26771 
7.77753 -0.351524 -2.18153 7.75936 -0.419772 -2.02469 6.95713 -0.761543 -2.06396 
7.02514 -0.752979 -2.05598 7.07991 -0.734071 -2.07964 7.13187 -0.711801 -2.11255 
7.1791 -0.6788 -2.13232 7.24823 -0.572616 -1.93424 7.28692 -0.638044 -2.26115 
7.35098 -0.639521 -2.37037 7.41525 -0.644877 -2.45003 7.47165 -0.633637 -2.49239 
7.51931 -0.605122 -2.48263 7.55901 -0.562548 -2.40968 7.60269 -0.535768 -2.26663 
7.65343 -0.518089 -2.0606 6.77402 -0.687831 -2.10471 6.70935 -0.641289 -2.0776 
6.67445 -0.594446 -2.02915 6.64972 -0.545793 -1.98217 6.61715 -0.501866 -1.95969 
6.56401 -0.478068 -1.95327 4.43013 0.560444 -1.89446 4.54193 0.647623 -1.94766 
4.61229 0.639656 -1.91599 4.66849 0.646871 -1.88433 4.71953 0.663254 -1.84516 
4.77054 0.679547 -1.80599 4.82595 0.685011 -1.7744 4.89069 0.664928 -1.73586 
4.95847 0.632613 -1.6605 5.02528 0.596976 -1.53337 7.81362 -0.564836 -1.66761 
7.61792 -0.439227 -1.5775 7.55618 -0.392561 -1.36679 7.501 -0.355096 -1.21174 
7.45408 -0.31562 -1.11199 7.39511 -0.279721 -1.07575 7.33721 -0.242779 -1.07652 
7.29257 -0.200455 -1.09894 4.39619 0.422527 -1.78836 4.3653 0.351726 -1.76918 
4.34291 0.283618 -1.71999 4.33568 0.220846 -1.6479 4.32315 0.155818 -1.56124 
4.3158 0.0928684 -1.48175 4.4904 0.455492 -1.63611 4.53589 0.412212 -1.53954 
4.5557 0.36078 -1.533 5.61165 -0.0639049 -1.51179 5.65546 -0.107056 -1.45976 
5.71418 -0.144082 -1.42932 5.78227 -0.175128 -1.42064 5.84904 -0.193301 -1.4487 
5.90685 -0.185774 -1.49113 5.96108 -0.1688 -1.53339 6.01747 -0.160016 -1.55358 
6.07873 -0.165835 -1.55921 6.13505 -0.159412 -1.55723 6.19141 -0.153091 -1.55525 
6.25335 -0.160716 -1.56092 6.31394 -0.16308 -1.5813 6.37771 -0.171334 -1.62399 
6.43929 -0.172935 -1.67398 6.50286 -0.181507 -1.70927 6.56342 -0.186327 -1.70748 
6.62817 -0.20641 -1.66894 6.69244 -0.226926 -1.61559 6.75136 -0.233262 -1.562 
6.81234 -0.244217 -1.51589 6.87057 -0.248747 -1.46227 6.93036 -0.258228 -1.40133 
6.98391 -0.252043 -1.33271 7.03389 -0.23641 -1.26393 7.08347 -0.218859 -1.20252 
7.13348 -0.200771 -1.15592 7.18419 -0.182033 -1.13151 5.21324 0.724825 -1.5533 
5.16581 0.691513 -1.52613 5.12676 0.63179 -1.4624 0.0294946 0.0122209 -1.71458 
-0.010529 -0.0680989 -1.62923 -0.0347375 -0.138044 -1.55544 -0.0418552 -0.200734 -1.4883 
-0.0533379 -0.264857 -1.43122 -0.0577108 -0.326043 -1.38867 -0.0661074 -0.388363 -1.36852 
-0.0587534 -0.444958 -1.34523 -0.0441932 -0.502574 -1.27725 -0.0356982 -0.582218 -1.1236 
0.112943 0.21196 -1.57015 4.26251 -0.0460404 -1.41338 4.23053 -0.116873 -1.41647 
4.19854 -0.187704 -1.41956 4.16651 -0.258433 -1.42265 4.13384 -0.32746 -1.42571 
4.09774 -0.387104 -1.42861 4.05809 -0.431887 -1.43118 4.03494 -0.486649 -1.43352 
4.04054 -0.541247 -1.43494 4.05622 -0.593988 -1.43599 4.06417 -0.64989 -1.42995 
4.05749 -0.711566 -1.40973 4.06244 -0.769234 -1.36678 4.06536 -0.827799 -1.31649 
4.04488 -0.894943 -1.27463 4.01313 -0.96422 -1.24801 3.97552 -1.02651 -1.22137 
3.93246 -1.08356 -1.17252 4.36202 -0.0101952 -1.30536 4.42913 -0.0432634 -1.2078 
4.49247 -0.0671947 -1.10269 4.54948 -0.077737 -0.967714 5.09542 0.503065 -1.37077 
5.07521 0.436036 -1.3363 5.043 0.363974 -1.27272 5.009 0.291231 -1.2092 
4.97532 0.218986 -1.16048 4.94096 0.148546 -1.11174 4.90215 0.0890387 -1.0554 
4.85354 0.0546445 -0.991228 4.80071 0.0313995 -0.926858 4.74748 0.0100734 -0.869863 
4.69537 -0.0125213 -0.827703 4.64814 -0.0455223 -0.807933 7.261 -0.097879 -0.918998 
0.0569458 0.341387 -1.26909 -0.0116982 0.34696 -1.2044 -0.0775695 0.354818 -1.12717 
-0.142796 0.356767 -1.01304 -0.221012 0.375066 -0.837052 3.97416 -1.21559 -0.982281 
4.5728 -0.177307 -0.636244 4.5351 -0.250676 -0.483887 4.49306 -0.310855 -0.346116 
4.43903 -0.337646 -0.222583 4.37944 -0.34802 -0.113571 4.33062 -0.384374 -0.0272175 
4.28078 -0.417199 0.05179 4.23097 -0.450119 0.130806 4.1828 -0.488184 0.21712 
4.12764 -0.506943 0.296381 4.08013 -0.544255 0.360497 4.03087 -0.574389 0.402538 
3.97958 -0.595818 0.4151 3.92775 -0.613277 0.405521 3.87285 -0.620959 0.381307 
3.81302 -0.616408 0.36471 3.76184 -0.635578 0.355101 3.71929 -0.678471 0.352491 
3.67209 -0.709017 0.350093 3.62226 -0.731798 0.340422 3.57584 -0.761891 0.315821 
3.53612 -0.807207 0.268748 3.49549 -0.849294 0.214313 3.4609 -0.907358 0.159614 
3.42975 -0.975045 0.112159 3.40141 -1.04336 0.0499407 3.38303 -1.10779 -0.0266799 
3.38129 -1.16558 -0.127279 3.37506 -1.2262 -0.242938 3.37372 -1.29293 -0.385806 
0.0782401 -0.783338 -1.0369 0.13654 -0.841252 -1.14795 0.174837 -0.887524 -1.23211 
0.223708 -0.926988 -1.2935 0.268724 -0.967904 -1.33774 0.328357 -1.00175 -1.35908 
0.393669 -1.0229 -1.37245 0.455561 -1.02902 -1.3929 0.523517 -1.04867 -1.43579 
0.593537 -1.07808 -1.48633 0.654624 -1.11294 -1.52988 0.700775 -1.15393 -1.55185 
0.758909 -1.19065 -1.55849 0.816949 -1.22741 -1.56514 0.861193 -1.26912 -1.58719 
0.909124 -1.30918 -1.62391 0.942789 -1.35462 -1.66123 0.975746 -1.40072 -1.67636 
1.02217 -1.44211 -1.66868 1.06305 -1.48598 -1.639 1.11057 -1.52735 -1.60904 
1.15336 -1.5705 -1.57928 1.2124 -1.60727 -1.56366 1.27941 -1.6409 -1.55509 
1.33902 -1.6772 -1.55425 1.38452 -1.7187 -1.55402 1.44355 -1.75315 -1.55315 
1.50811 -1.77485 -1.54431 1.56791 -1.78047 -1.52033 1.62892 -1.79152 -1.47422 
1.68784 -1.79786 -1.42062 1.75231 -1.81806 -1.37468 1.81661 -1.83611 -1.3435 
1.87202 -1.83065 -1.31192 1.92347 -1.81638 -1.26538 1.97818 -1.81158 -1.21159 
2.04196 -1.82996 -1.16561 2.10622 -1.84791 -1.13443 2.1616 -1.84235 -1.10285 
2.21236 -1.82628 -1.05628 2.26266 -1.81063 -0.994905 2.31709 -1.80594 -0.933718 
2.38088 -1.82432 -0.887733 2.44561 -1.84184 -0.871359 2.50193 -1.83542 -0.869377 
2.55407 -1.81794 -0.867204 2.60459 -1.79952 -0.835398 2.65463 -1.78153 -0.788786 
2.70509 -1.76547 -0.73481 2.75931 -1.75853 -0.688398 2.81861 -1.76589 -0.634826 
2.87191 -1.75736 -0.58097 2.91843 -1.73003 -0.534206 2.96026 -1.68778 -0.509396 
3.01046 -1.66693 -0.48988 3.06561 -1.65803 -0.448326 3.11089 -1.60634 -0.356398 
3.44107 -1.40587 -0.614338 -0.159471 -0.635652 -0.736154 -0.227284 -0.583353 -0.603329 
-0.279866 -0.542883 -0.509902 -0.31275 -0.497445 -0.445359 -0.335403 -0.44798 -0.400152 
3.28709 -1.43875 -0.469455 3.22882 -1.49179 -0.36164 -0.105984 -0.817389 -0.680454 
-0.14091 -0.900622 -0.506056 -0.522785 -0.0376083 -0.693159 -0.544008 -0.106753 -0.844138 
-0.536231 -0.161999 -0.922128 -0.518583 -0.214117 -0.925564 -0.499458 -0.266827 -0.859765 
-0.47098 -0.317034 -0.73428 -0.418599 -0.358994 -0.56331 -0.476681 0.137724 -0.619826 
-0.453187 0.214644 -0.700855 -0.417079 0.276812 -0.717654 -0.36967 0.328829 -0.680018 
-0.317809 0.491161 -0.574763 -0.332997 -0.332851 -0.203935 -0.328987 -0.274611 -0.0834718 
-0.362318 -0.2293 -0.0313089 -0.390527 -0.180909 -0.0456151 -0.409907 -0.128422 -0.101539 
-0.427333 -0.0738757 -0.194416 -0.448471 -0.0158489 -0.326845 3.11657 -1.45445 -0.0576664 

LINES 34 445
5 33 34 35 36 31 
8 32 37 38 39 40 41 42 18 
53 31 43 44 45 46 47 48 49 50 51 52 53 54 55 56 57 58 59 60 61 62 63 64 65 66 67 68 69 70 71 72 73 74 75 76 77 78 79 80 81 82 83 84 85 86 87 88 89 90 91 92 93 14 
26 31 94 95 96 97 98 99 100 101 102 103 104 105 106 107 108 109 110 111 112 113 114 115 116 117 26 
12 30 118 119 120 121 122 123 124 125 126 127 25 
3 29 133 24 
10 29 134 135 136 137 138 139 140 141 25 
3 26 148 23 
11 26 149 150 151 152 153 154 155 156 157 16 
3 25 158 22 
9 25 159 160 161 162 163 164 165 15 
8 23 166 167 168 169 170 171 17 
5 23 172 173 174 20 
30 21 175 176 177 178 179 180 181 182 183 184 185 186 187 188 189 190 191 192 193 194 195 196 197 198 199 200 201 202 15 
5 19 203 204 205 16 
12 18 206 207 208 209 210 211 212 213 214 215 7 
3 18 216 14 
6 17 235 236 237 238 10 
14 16 239 240 241 242 243 244 245 246 247 248 249 250 10 
3 15 251 11 
7 14 252 253 254 255 256 6 
32 10 258 259 260 261 262 263 264 265 266 267 268 269 270 271 272 273 274 275 276 277 278 279 280 281 282 283 284 285 286 287 8 
59 7 288 289 290 291 292 293 294 295 296 297 298 299 300 301 302 303 304 305 306 307 308 309 310 311 312 313 314 315 316 317 318 319 320 321 322 323 324 325 326 327 328 329 330 331 332 333 334 335 336 337 338 339 340 341 342 343 344 1 
3 9 345 8 
7 7 346 347 348 349 350 3 
4 8 351 352 1 
4 7 353 354 4 
9 2 355 356 357 358 359 360 361 3 
6 2 362 363 364 365 6 
3 6 366 5 
9 3 367 368 369 370 371 372 373 2 
3 1 374 0 
14 29 132 131 130 129 128 28 142 143 144 145 146 147 27 
22 17 217 218 219 220 221 222 223 224 225 226 227 228 229 230 231 232 233 234 13 257 12 

POINT_DATA 375
SCALARS DY_raw double
LOOKUP_TABLE default
75.0709 33.4357 51.0909 61.0224 24.3731 46.3299 40.8006 66.9261 18.5966 
13.359 44.7195 43.2975 51.9185 48.1615 53.5943 28.2699 68.633 48.324 
50.9505 45.0724 39.6747 0 31.2594 36.4129 36.7889 23.9705 37.4792 
46.0627 36.4702 30.8471 47.3043 48.586 40.4508 59.7302 43.7538 44.4799 
48.963 48.6138 58.824 45.9995 44.5927 46.6829 49.162 55.9347 75.8639 
81.34 78.9045 78.9045 67.5329 67.5329 67.829 63.8577 63.8577 62.0201 
63.9643 63.9643 57.2974 55.9191 66.2706 67.3034 77.9732 77.9732 72.6219 
80.7523 75.2438 69.5657 75.2597 95.9292 102.742 102.742 112.367 100.467 
75.8542 85.3693 69.1351 53.519 56.3173 56.3173 62.4722 57.5504 58.4845 
56.8171 79.8046 83.329 83.329 80.4152 73.5377 77.6038 78.0013 65.0148 
64.0827 59.2352 54.8435 55.3971 50.4636 50.4636 52.6352 58.9014 58.9014 
76.9253 76.9253 86.27 96.2863 96.2863 81.4687 71.5873 62.0093 45.6135 
50.4027 38.1363 32.0569 35.6991 51.1939 54.0383 58.074 55.1399 46.3354 
38.4667 47.3043 36.1553 38.3652 38.3652 42.871 40.62 32.9405 25.6893 
21.9383 37.8605 32.5305 37.0394 34.9854 27.3808 27.0905 38.2311 20.2359 
17.2403 19.8219 20.1121 22.1142 22.539 18.8073 16.6735 30.8503 27.2619 
32.3352 37.9826 41.2444 47.407 32.3951 32.5168 33.3015 32.778 29.5639 
42.5053 44.9183 41.0813 40.6115 46.1855 23.6504 42.001 53.39 51.3124 
30.9171 31.6546 32.6178 29.2631 34.4403 36.1901 42.433 47.6006 58.5833 
54.286 40.4655 45.7304 45.7304 21.2041 34.3846 42.258 54.0843 39.5986 
43.5422 31.2851 31.2851 44.4542 44.4542 46.4328 74.9612 61.3388 59.1165 
44.2642 40.746 42.6337 33.2583 35.7192 25.9883 27.7307 28.5065 34.4144 
47.3546 37.0033 32.5472 29.3922 28.2699 44.6142 53.4376 53.5743 54.2394 
53.7109 54.8041 70.6098 69.772 75.8186 75.8186 74.5883 86.7424 90.6752 
64.3108 48.324 41.4185 45.6003 45.6003 59.5689 56.6321 55.9111 50.2756 
46.324 38.7865 36.2192 38.1721 36.3543 40.184 40.6481 35.1333 37.107 
40.3576 52.1077 46.6924 49.3869 34.0438 50.6381 54.8864 59.6518 44.6121 
44.7724 42.8118 45.9272 50.433 59.5631 49.8664 54.5835 46.152 33.4352 
45.716 55.9453 57.7927 47.8635 45.9198 55.2819 57.6859 48.7872 50.574 
49.4853 47.2099 53.8687 49.7801 26.7755 28.1953 34.2058 37.0321 37.1698 
33.2216 34.7762 34.7762 30.8313 30.8313 30.3232 39.0744 36.3248 43.0812 
42.7905 37.844 35.4624 29.1142 31.7942 30.7626 29.2069 25.4798 22.383 
44.4643 42.9347 48.2462 45.815 46.9059 46.7332 59.3362 78.4906 71.3264 
78.0312 91.6269 123.168 162.147 114.956 83.6775 72.9262 59.7339 51.8976 
51.8976 57.5212 54.3378 59.3363 46.8622 46.6684 48.6078 54.5713 57.6586 
45.6006 40.329 41.1831 36.7334 37.5614 36.7633 38.5837 38.4646 35.2594 
35.3757 34.5287 32.6651 31.3845 31.5487 34.3067 40.6979 44.3828 44.3828 
44.7435 36.7422 37.1238 39.1565 39.2609 41.4052 37.2052 40.9252 38.8736 
30.0442 28.2387 25.0465 15.4384 71.8242 78.4719 80.0555 64.4787 60.9032 
23.7213 24.6294 41.8991 39.4691 58.63 73.8593 88.0342 105.374 116.666 
96.7943 90.3665 43.0257 42.1484 39.6858 38.7378 43.8175 66.4242 59.8631 
64.6791 70.3176 67.4664 60.7002 60.5748 49.5088 
FIELD FieldData 7
DY_minmax 1 375 double
0.462981 0.206206 0.31509 0.37634 0.150315 0.285728 0.251628 0.41275 0.11469 
0.082388 0.275796 0.267026 0.320194 0.297024 0.330529 0.174347 0.423277 0.298026 
0.314224 0.277972 0.244684 0 0.192784 0.224568 0.226886 0.147832 0.231144 
0.28408 0.224921 0.190242 0.291737 0.299642 0.24947 0.368371 0.269841 0.274319 
0.301967 0.299813 0.362782 0.28369 0.275014 0.287905 0.303194 0.344963 0.467871 
0.501644 0.486624 0.486624 0.416492 0.416492 0.418318 0.393826 0.393826 0.382493 
0.394484 0.394484 0.353367 0.344867 0.408707 0.415077 0.48088 0.48088 0.447877 
0.49802 0.464047 0.429029 0.464145 0.591619 0.633633 0.633633 0.692992 0.619606 
0.467811 0.526493 0.426373 0.330065 0.347323 0.347323 0.385281 0.354928 0.360688 
0.350405 0.492174 0.513911 0.513911 0.49594 0.453525 0.478602 0.481053 0.400963 
0.395214 0.365318 0.338234 0.341647 0.311221 0.311221 0.324614 0.363259 0.363259 
0.474418 0.474418 0.532048 0.593822 0.593822 0.502438 0.441497 0.382426 0.28131 
0.310846 0.235196 0.197703 0.220165 0.315725 0.333268 0.358157 0.340061 0.285762 
0.237234 0.291737 0.222979 0.236607 0.236607 0.264396 0.250514 0.203152 0.158432 
0.135299 0.233495 0.200624 0.228431 0.215764 0.168864 0.167074 0.235781 0.1248 
0.106325 0.122247 0.124036 0.136384 0.139004 0.115989 0.102829 0.190261 0.168131 
0.199419 0.234248 0.254365 0.292371 0.199788 0.200539 0.205378 0.20215 0.182328 
0.262141 0.277022 0.253359 0.250461 0.284837 0.145858 0.25903 0.329269 0.316456 
0.190673 0.195221 0.201162 0.180472 0.212402 0.223194 0.261695 0.293565 0.361297 
0.334795 0.249561 0.282031 0.282031 0.130771 0.212058 0.260616 0.333551 0.244214 
0.268535 0.192943 0.192943 0.27416 0.27416 0.286362 0.462304 0.378292 0.364586 
0.272988 0.251291 0.262933 0.205112 0.220289 0.160276 0.171022 0.175807 0.212242 
0.292047 0.228209 0.200727 0.181269 0.174347 0.275147 0.329563 0.330406 0.334507 
0.331248 0.33799 0.435468 0.430301 0.467592 0.467592 0.460005 0.534962 0.559216 
0.39662 0.298026 0.255438 0.281229 0.281229 0.367376 0.349264 0.344817 0.310062 
0.285692 0.239206 0.223373 0.235417 0.224206 0.247824 0.250687 0.216676 0.228848 
0.248895 0.321361 0.287964 0.304581 0.209956 0.312298 0.338498 0.367887 0.275134 
0.276123 0.264031 0.283244 0.311033 0.36734 0.307539 0.33663 0.284631 0.206203 
0.281942 0.345029 0.356422 0.295186 0.283199 0.340937 0.355763 0.300883 0.311902 
0.305188 0.291155 0.332222 0.307006 0.165131 0.173887 0.210956 0.228386 0.229235 
0.204886 0.214473 0.214473 0.190144 0.190144 0.187011 0.240981 0.224024 0.265692 
0.2639 0.233393 0.218705 0.179554 0.196083 0.189721 0.180126 0.15714 0.138041 
0.274222 0.264789 0.297546 0.282553 0.289281 0.288215 0.365941 0.484071 0.439888 
0.481238 0.565086 0.75961 1 0.708963 0.516059 0.449754 0.368394 0.320065 
0.320065 0.354748 0.335114 0.365941 0.289011 0.287816 0.299776 0.336554 0.355595 
0.28123 0.248719 0.253986 0.226544 0.23165 0.226729 0.237955 0.237221 0.217453 
0.218171 0.212947 0.201454 0.193556 0.194568 0.211578 0.250994 0.27372 0.27372 
0.275944 0.226598 0.228952 0.241488 0.242132 0.255356 0.229454 0.252396 0.239743 
0.18529 0.174155 0.154468 0.0952126 0.442958 0.483956 0.493722 0.397656 0.375605 
0.146295 0.151896 0.258402 0.243416 0.361586 0.455508 0.542929 0.649865 0.719509 
0.596955 0.557312 0.26535 0.25994 0.244752 0.238906 0.270233 0.409654 0.36919 
0.398892 0.433666 0.416082 0.374353 0.373579 0.305333 
WidthEq 1 375 double
2.39587 4.85679 5.43013 5.62908 2.44285 5.76345 7.59253 5.12043 7.53687 
5.48471 5.53628 2.46088 1.73849 4.85554 5.6088 5.48287 3.05917 4.94475 
6.33929 2.03384 3.25295 1 2.43351 4.98999 3.96315 5.98193 6.16528 
2.66701 3.56866 4.08725 2.25667 7.3198 6.2691 5.69059 7.32439 7.54363 
7.43438 7.52235 7.68734 8.89076 8.59917 8.74196 7.42871 7.08738 6.15669 
4.91321 4.74054 4.74054 4.58014 4.58014 4.67853 4.46555 4.46555 4.31183 
3.86059 3.86059 4.34313 4.63205 4.06138 4.10336 3.6315 3.6315 3.44331 
3.27582 2.88608 2.82107 2.65667 2.19808 2.35639 2.35639 2.40063 2.97839 
3.28275 3.27565 3.71721 4.40797 4.5178 4.5178 4.38435 4.41456 4.12981 
4.1667 3.51283 3.55806 3.55806 3.8106 4.09885 3.8444 3.76712 3.98494 
4.21502 4.56603 4.77267 5.09088 7.227 7.227 6.36741 5.91667 5.91667 
4.95493 4.95493 4.56996 4.04845 4.04845 4.18823 4.39086 5.30937 6.56078 
6.35422 7.17217 7.08521 6.25842 5.39049 4.26401 3.05283 3.2608 4.28204 
5.09506 2.25667 2.31667 2.4199 2.4199 2.52222 3.00492 3.27348 3.91175 
4.35631 4.03059 3.05375 3.08212 3.38798 3.70077 4.09184 4.41289 4.46038 
5.11417 5.46718 5.57626 5.21882 4.3458 4.84068 6.05813 3.88003 4.09693 
3.9004 3.85808 3.63201 3.31154 6.0608 6.44836 5.79524 5.22057 4.84611 
3.64519 3.31112 3.51425 3.70486 3.67215 5.12719 4.53632 4.19049 3.66422 
4.50787 4.45813 5.21648 5.08696 4.92881 4.47774 3.98652 4.0073 3.62049 
4.02424 4.40054 3.79441 3.79441 1.8454 3.36895 3.07019 3.16691 3.27916 
2.85838 2.94325 2.94325 2.67219 2.67219 2.42049 1.76144 1.85967 1.69276 
2.14033 2.38085 3.14446 4.27653 4.75907 5.22466 5.47444 5.13286 5.00401 
4.317 4.26718 4.61269 5.10407 5.48287 3.12143 3.25913 3.07144 5.89664 
5.17567 4.22487 3.47728 3.13378 3.12852 3.12852 3.08279 3.38531 3.86126 
5.64369 4.94475 5.31429 4.41181 4.41181 3.89264 3.84023 3.81052 4.0638 
4.22545 4.58381 4.85654 5.0136 5.27173 5.44098 5.63618 6.07173 5.63668 
5.14897 4.90177 5.20363 4.86931 5.67916 2.7584 2.85062 2.65591 3.20989 
2.97571 3.76111 4.11913 3.89447 4.17154 4.47315 4.34179 5.3677 3.63359 
5.51842 5.12143 5.20446 5.80317 6.659 4.03242 4.38444 3.74709 3.53778 
3.20964 3.25228 3.22024 3.29067 4.11421 3.95598 3.96482 4.26009 4.1975 
5.05274 5.16215 5.16215 4.52105 4.52105 4.10478 3.09589 3.30628 3.01269 
3.02871 3.38072 5.0696 5.26238 6.15018 6.48124 6.04995 6.30106 7.18894 
6.35881 6.57697 6.52673 6.97129 6.40004 5.71863 4.655 3.44156 3.26948 
2.77876 2.44361 2.18489 1.71271 2.33219 3.33674 3.58719 4.60476 4.9168 
4.9168 4.81857 5.10382 4.76808 5.16407 5.01753 5.01052 4.95719 5.10332 
5.87711 6.40755 6.24699 6.37459 5.64703 5.44782 5.30094 4.65233 4.36933 
4.38352 4.827 5.19178 4.86163 4.82207 4.56762 3.77513 3.23751 3.23751 
2.40013 2.43426 2.48358 2.64707 3.72381 3.91859 5.47236 5.37688 5.87185 
6.57964 6.55377 5.99804 7.21122 4.84753 4.98548 5.01552 5.35076 5.33699 
6.66827 5.54905 5.30536 3.78423 5.07027 4.23413 3.63927 3.41594 3.43639 
4.13123 4.7241 5.72356 6.21494 6.70165 7.56883 6.63639 4.73186 4.29748 
3.86384 3.6648 3.65738 4.21168 4.81306 3.91567 
rRFP 1 375 double
2542.21 2837.09 2905.79 2929.63 2547.84 2945.73 3164.9 2868.68 3158.23 
2912.33 2918.51 2550 2463.44 2836.94 2927.2 2912.11 2621.69 2847.63 
3014.73 2498.83 2644.91 2374.95 2546.72 2853.05 2730.01 2971.91 2993.88 
2574.7 2682.74 2744.88 2525.53 3132.22 3006.32 2937 3132.77 3159.04 
3145.95 3156.49 3176.26 3320.46 3285.52 3302.63 3145.27 3104.37 2992.85 
2843.85 2823.16 2823.16 2803.94 2803.94 2815.73 2790.21 2790.21 2771.79 
2717.72 2717.72 2775.54 2810.16 2741.78 2746.81 2690.27 2690.27 2667.72 
2647.65 2600.95 2593.16 2573.46 2518.51 2537.48 2537.48 2542.78 2612.01 
2648.48 2647.63 2700.54 2783.31 2796.47 2796.47 2780.48 2784.1 2749.98 
2754.4 2676.05 2681.47 2681.47 2711.73 2746.27 2715.78 2706.52 2732.62 
2760.19 2802.25 2827.01 2865.14 3121.1 3121.1 3018.1 2964.09 2964.09 
2848.85 2848.85 2802.72 2740.23 2740.23 2756.98 2781.26 2891.32 3041.27 
3016.52 3114.53 3104.11 3005.04 2901.04 2766.06 2620.93 2645.85 2768.22 
2865.64 2525.53 2532.72 2545.09 2545.09 2557.35 2615.19 2647.37 2723.85 
2777.12 2738.09 2621.04 2624.44 2661.09 2698.57 2745.43 2783.9 2789.59 
2867.93 2910.23 2923.3 2880.47 2775.86 2835.16 2981.04 2720.05 2746.04 
2722.49 2717.42 2690.33 2651.93 2981.36 3027.8 2949.54 2880.68 2835.81 
2691.91 2651.88 2676.22 2699.06 2695.14 2869.49 2798.69 2757.25 2694.19 
2795.28 2789.32 2880.19 2864.67 2845.72 2791.67 2732.81 2735.3 2688.95 
2737.33 2782.42 2709.79 2709.79 2476.25 2658.81 2623.01 2634.6 2648.05 
2597.63 2607.8 2607.8 2575.32 2575.32 2545.16 2466.19 2477.96 2457.96 
2511.59 2540.41 2631.91 2767.56 2825.38 2881.17 2911.1 2870.17 2854.73 
2772.41 2766.44 2807.84 2866.72 2912.11 2629.15 2645.65 2623.16 2961.69 
2875.3 2761.37 2671.79 2630.63 2630 2630 2624.52 2660.77 2717.8 
2931.38 2847.63 2891.91 2783.77 2783.77 2721.56 2715.28 2711.72 2742.07 
2761.44 2804.38 2837.06 2855.88 2886.81 2907.09 2930.48 2982.67 2930.54 
2872.1 2842.48 2878.65 2838.59 2935.63 2585.65 2596.7 2573.37 2639.75 
2611.69 2705.8 2748.7 2721.78 2754.98 2791.12 2775.38 2898.31 2690.52 
2916.37 2868.8 2878.75 2950.49 3053.04 2738.31 2780.49 2704.12 2679.04 
2639.72 2644.83 2640.99 2649.43 2748.11 2729.15 2730.21 2765.59 2758.09 
2860.57 2873.68 2873.68 2796.86 2796.86 2746.98 2626.09 2651.3 2616.12 
2618.04 2660.22 2862.59 2885.69 2992.07 3031.74 2980.06 3010.15 3116.54 
3017.07 3043.21 3037.19 3090.46 3022.01 2940.36 2812.91 2667.51 2646.89 
2588.09 2547.93 2516.93 2460.35 2534.58 2654.95 2684.96 2806.89 2844.28 
2844.28 2832.51 2866.69 2826.46 2873.91 2856.35 2855.51 2849.12 2866.63 
2959.35 3022.91 3003.67 3018.96 2931.78 2907.91 2890.31 2812.59 2778.68 
2780.38 2833.52 2877.23 2837.67 2832.93 2802.44 2707.48 2643.06 2643.06 
2542.72 2546.81 2552.72 2572.31 2701.33 2724.67 2910.85 2899.41 2958.72 
3043.53 3040.43 2973.84 3119.21 2835.98 2852.51 2856.11 2896.28 2894.63 
3054.15 2920.04 2890.84 2708.57 2862.67 2762.48 2691.2 2664.44 2666.89 
2750.15 2821.19 2940.95 2999.83 3058.15 3162.06 3050.33 2822.12 2770.07 
2718.11 2694.26 2693.37 2759.79 2831.85 2724.32 
rGFP 1 375 double
2632.38 2614.91 2729.95 2796.02 2512.06 2719.54 2762.3 2795.21 2592.68 
2525.79 2700.1 2559.07 2542.78 2686.37 2753.12 2607.52 2662.48 2691.47 
2775.51 2544.19 2581.58 2452.52 2528.59 2634.22 2598.32 2595.91 2683.59 
2575.37 2582.67 2578.6 2559.27 2808.16 2706.11 2792.42 2772.99 2788.06 
2816.53 2818.21 2904.72 2861.49 2835.98 2860.62 2817.73 2848.95 2919.59 
2852.16 2826.57 2826.57 2761.83 2761.83 2769.86 2737.68 2737.68 2719.94 
2699.46 2699.46 2701.37 2711.54 2721.67 2728.69 2735.68 2735.68 2702.58 
2717.05 2669.68 2648.77 2652.46 2663.38 2694.62 2694.62 2722.27 2751.75 
2701.53 2732.16 2709.51 2688.43 2706.95 2706.95 2726.42 2706.58 2694.05 
2689.26 2732.86 2749.01 2749.01 2758.95 2753.94 2750.86 2746.36 2711.6 
2722.63 2722.99 2714.27 2734.54 2817.22 2817.22 2787.67 2801.02 2801.02 
2833.68 2833.68 2846.77 2842.33 2842.33 2793.73 2766.85 2781.75 2751.78 
2772.79 2726.04 2679.65 2675.94 2728.48 2682.94 2629.81 2632.32 2650.93 
2648.51 2559.27 2536.28 2545.36 2545.36 2560.65 2574.58 2560.35 2553.01 
2548.09 2605.12 2551.86 2566.68 2571.05 2553.85 2563.37 2621.23 2542.78 
2540.69 2560.89 2564.67 2567.93 2550.47 2543.56 2553.53 2572.22 2564.21 
2578.64 2599.06 2602.32 2609.51 2648.86 2662.2 2645.51 2623.64 2595.79 
2607.46 2601.25 2596.89 2602.98 2622.12 2573.78 2643.05 2676.25 2640.54 
2591.89 2593.64 2622.67 2601.38 2622.27 2614.57 2621.68 2643.27 2664.62 
2670.98 2630.59 2626.04 2626.04 2491.65 2568.36 2582.26 2623.8 2582.37 
2576.98 2544.6 2544.6 2571.31 2571.31 2564.91 2584.56 2566.59 2552.59 
2547.26 2549.53 2586.58 2594.75 2622.51 2588.3 2604.33 2598.84 2624.73 
2656.95 2610.42 2602.65 2602.54 2607.52 2591.78 2626.68 2617.07 2772.35 
2730.51 2684.06 2698.05 2671.17 2689.72 2689.72 2682.46 2746.17 2802.64 
2815.47 2691.47 2672.63 2653.7 2653.7 2684.4 2670 2665.57 2656.83 
2648.26 2630.31 2628.42 2643.9 2644.17 2671.16 2681.62 2665.84 2661.68 
2660.32 2707.94 2695.49 2693 2645.86 2592.2 2608.98 2610.95 2595.72 
2585.75 2613.54 2641.7 2648.93 2700.99 2675.58 2689.51 2700.25 2574.01 
2704.8 2739.04 2753.3 2730.28 2758.3 2675.44 2705.44 2635.33 2631.44 
2611.35 2606.06 2625.99 2616.33 2562.68 2564.06 2588.14 2610.28 2608.54 
2620.38 2632.04 2632.04 2591.91 2591.91 2576.99 2573.49 2572.62 2582.31 
2582.12 2580.46 2632.3 2605.73 2648.06 2651.9 2629.22 2613.07 2613.43 
2735.26 2734.9 2767.41 2771.91 2752.72 2719.77 2728.73 2722.65 2685.72 
2669.35 2676.42 2721.63 2730.23 2720.62 2731.73 2714.12 2727.58 2707.69 
2707.69 2729.69 2729.85 2735.44 2694.52 2686.68 2696.07 2723.04 2746.77 
2720.52 2710.93 2709.79 2686.68 2664.63 2652.8 2657.05 2631.47 2606.58 
2607.59 2619.19 2622.11 2605.1 2604.65 2609.22 2606.16 2596.21 2596.21 
2559.91 2541.96 2544.72 2556.17 2598.72 2614.77 2656.12 2672.57 2680.78 
2650.2 2637.59 2602.75 2563.85 2800.69 2843.74 2854.04 2797.53 2777.56 
2610.7 2589.19 2674.81 2601.88 2749.79 2765.25 2772.9 2812.47 2853.43 
2852.4 2879.42 2698.78 2714.47 2718.48 2745.72 2743.31 2766.83 2709.78 
2702.43 2710.22 2699.27 2708.17 2744.07 2646.38 
bkstRFP 1 375 double
287.085 581.965 650.665 674.505 292.715 690.605 909.775 613.555 903.105 
657.205 663.385 294.875 208.315 581.815 672.075 656.985 366.565 592.505 
759.605 243.705 389.785 119.825 291.595 597.925 474.885 716.785 738.755 
319.575 427.615 489.755 270.405 877.095 751.195 681.875 877.645 903.915 
890.825 901.365 921.135 1065.34 1030.4 1047.51 890.145 849.245 737.725 
588.725 568.035 568.035 548.815 548.815 560.605 535.085 535.085 516.665 
462.595 462.595 520.415 555.035 486.655 491.685 435.145 435.145 412.595 
392.525 345.825 338.035 318.335 263.385 282.355 282.355 287.655 356.885 
393.355 392.505 445.415 528.185 541.345 541.345 525.355 528.975 494.855 
499.275 420.925 426.345 426.345 456.605 491.145 460.655 451.395 477.495 
505.065 547.125 571.885 610.015 865.975 865.975 762.975 708.965 708.965 
593.725 593.725 547.595 485.105 485.105 501.855 526.135 636.195 786.145 
761.395 859.405 848.985 749.915 645.915 510.935 365.805 390.725 513.095 
610.515 270.405 277.595 289.965 289.965 302.225 360.065 392.245 468.725 
521.995 482.965 365.915 369.315 405.965 443.445 490.305 528.775 534.465 
612.805 655.105 668.175 625.345 520.735 580.035 725.915 464.925 490.915 
467.365 462.295 435.205 396.805 726.235 772.675 694.415 625.555 580.685 
436.785 396.755 421.095 443.935 440.015 614.365 543.565 502.125 439.065 
540.155 534.195 625.065 609.545 590.595 536.545 477.685 480.175 433.825 
482.205 527.295 454.665 454.665 221.125 403.685 367.885 379.475 392.925 
342.505 352.675 352.675 320.195 320.195 290.035 211.065 222.835 202.835 
256.465 285.285 376.785 512.435 570.255 626.045 655.975 615.045 599.605 
517.285 511.315 552.715 611.595 656.985 374.025 390.525 368.035 706.565 
620.175 506.245 416.665 375.505 374.875 374.875 369.395 405.645 462.675 
676.255 592.505 636.785 528.645 528.645 466.435 460.155 456.595 486.945 
506.315 549.255 581.935 600.755 631.685 651.965 675.355 727.545 675.415 
616.975 587.355 623.525 583.465 680.505 330.525 341.575 318.245 384.625 
356.565 450.675 493.575 466.655 499.855 535.995 520.255 643.185 435.395 
661.245 613.675 623.625 695.365 797.915 483.185 525.365 448.995 423.915 
384.595 389.705 385.865 394.305 492.985 474.025 475.085 510.465 502.965 
605.445 618.555 618.555 541.735 541.735 491.855 370.965 396.175 360.995 
362.915 405.095 607.465 630.565 736.945 776.615 724.935 755.025 861.415 
761.945 788.085 782.065 835.335 766.885 685.235 557.785 412.385 391.765 
332.965 292.805 261.805 205.225 279.455 399.825 429.835 551.765 589.155 
589.155 577.385 611.565 571.335 618.785 601.225 600.385 593.995 611.505 