# vtk DataFile Version 3.0
vtk output
ASCII
DATASET POLYDATA
POINTS 349 float
2.73114 -0.708038 2.33657 0.760138 -1.54365 1.66762 0.407152 -1.4839 1.28847 
-0.126833 -0.799148 1.0327 4.3256 -0.455528 0.609631 0.0367237 -0.443155 0.343711 
-0.152232 -0.156258 0.337592 7.44399 1.76969e-007 1.28605e-007 -0.368652 -0.768464 0.0321572 
-0.214661 0.144747 0.192253 7.27913 0.106331 -0.277894 -0.218758 0.00789899 -0.138002 
-0.078333 -0.462782 -0.265039 7.20089 0.340426 -0.536528 7.26444 0.0224742 -0.597917 
7.42426 -0.496555 -0.700834 0.853394 -0.462847 -0.581399 -0.221738 -0.145896 -0.674985 
-0.146648 -0.24099 -0.696049 -0.102379 0.098742 -0.635863 -0.00515391 0.173514 -0.626835 
0.611069 -0.252411 -0.887353 2.79653 1.11396 -0.72511 7.1059 0.231761 -0.959013 
7.29813 -0.262347 -1.05892 2.65194 0.954192 -1.06976 6.78452 0.425324 -1.11158 
3.14106 0.590983 -1.10908 5.70844 0.466425 -1.25572 5.92407 0.509985 -1.25812 
6.04248 0.478774 -1.26956 0.33128 -0.140826 -1.31142 0.439096 -0.119046 -1.31262 
2.08433 0.808309 -1.35754 2.45677 0.729605 -1.25423 5.496 0.664821 -1.61621 
5.56681 0.598689 -1.49605 5.63763 0.532557 -1.37588 2.16127 0.770161 -1.37076 
2.2266 0.748669 -1.35523 2.2889 0.723426 -1.32015 2.34716 0.71513 -1.28175 
2.40249 0.720156 -1.26088 2.08661 0.87778 -1.27956 2.09494 0.933904 -1.21689 
2.12735 0.986934 -1.16601 2.17372 1.02814 -1.11042 2.22694 1.04445 -1.06476 
2.28188 1.05187 -1.03589 2.33614 1.06099 -1.03683 2.39242 1.06054 -1.04151 
2.45489 1.04167 -1.04798 2.534 1.01513 -1.05101 2.75577 0.860458 -1.16547 
2.83309 0.804393 -1.23038 2.89919 0.761559 -1.2565 2.96642 0.714546 -1.24386 
3.04402 0.657817 -1.19016 2.01649 0.732645 -1.40082 1.96391 0.667118 -1.42538 
1.91731 0.61344 -1.42042 1.86804 0.580957 -1.38882 1.81858 0.549932 -1.35443 
1.7706 0.510194 -1.34432 1.71866 0.489039 -1.35324 1.66409 0.47977 -1.38247 
1.6111 0.462629 -1.41321 1.561 0.430987 -1.44676 1.50871 0.411176 -1.46295 
1.45519 0.397902 -1.47035 1.40362 0.375315 -1.472 1.3553 0.336475 -1.4768 
1.30598 0.302615 -1.48063 1.25768 0.263677 -1.48545 1.20646 0.239327 -1.48744 
1.15523 0.215084 -1.48942 1.10655 0.178005 -1.49388 1.05527 0.154402 -1.48819 
1.00241 0.139507 -1.46576 0.948357 0.131888 -1.41931 0.892067 0.135866 -1.36309 
0.840635 0.115534 -1.31157 0.794066 0.0704462 -1.27236 0.74798 0.0236359 -1.21652 
0.705754 -0.0458605 -1.13676 0.662658 -0.138952 -1.0217 0.380721 -0.107583 -1.3077 
0.389656 -0.152289 -1.31633 0.52047 -0.192298 -1.10192 0.288019 -0.201202 -1.25255 
0.239215 -0.234256 -1.19594 0.185488 -0.243532 -1.14982 0.127419 -0.231917 -1.11473 
0.0703034 -0.225071 -1.08056 0.0128936 -0.215496 -1.02326 -0.0417664 -0.217996 -0.938154 
-0.0960157 -0.220863 -0.822974 5.98516 0.484538 -1.27328 5.98139 0.50422 -1.2544 
6.10115 0.462041 -1.34331 6.15936 0.450132 -1.37092 6.2226 0.415616 -1.35768 
6.28811 0.370558 -1.33141 6.35132 0.336147 -1.31815 6.41056 0.320758 -1.31629 
6.47043 0.302266 -1.31503 6.5277 0.29756 -1.29604 6.58407 0.298687 -1.25332 
6.64006 0.302091 -1.20261 6.69339 0.318422 -1.15695 6.74044 0.364849 -1.12809 
5.87016 0.499095 -1.25752 5.81626 0.488205 -1.25692 5.76235 0.477315 -1.25632 
5.66686 0.395973 -1.22894 5.6263 0.322042 -1.17269 5.58484 0.254361 -1.08509 
5.53779 0.21463 -0.992097 5.48477 0.203105 -0.923806 5.42475 0.22445 -0.886839 
5.36294 0.253092 -0.878604 5.30263 0.273011 -0.894658 5.23871 0.310102 -0.922473 
5.17396 0.351743 -0.941871 5.11522 0.365494 -0.928974 5.06931 0.317947 -0.875166 
5.02972 0.241272 -0.781774 4.98929 0.169692 -0.672322 4.94334 0.125326 -0.565154 
4.89401 0.0965464 -0.47758 4.84326 0.0740683 -0.403856 4.78989 0.0638862 -0.342834 
4.73324 0.0691994 -0.293895 4.68004 0.0556384 -0.278734 4.63029 0.0231008 -0.297388 
4.57694 0.00686578 -0.343026 4.52362 -0.00989119 -0.396314 4.47479 -0.0491091 -0.453928 
4.42628 -0.089556 -0.504241 4.37259 -0.104455 -0.55716 4.31661 -0.107964 -0.607889 
4.26062 -0.110951 -0.65097 4.20566 -0.117837 -0.672199 4.15105 -0.126056 -0.686158 
4.09607 -0.132835 -0.707367 4.03969 -0.133857 -0.750068 3.98101 -0.123809 -0.79818 
3.91939 -0.098643 -0.835825 3.85909 -0.0792483 -0.859518 3.7955 -0.043397 -0.880034 
3.72927 0.00485467 -0.913222 3.66234 0.0561973 -0.953361 3.59538 0.107644 -0.993469 
3.52889 0.157776 -1.0263 3.46382 0.209606 -1.06643 3.4089 0.262079 -1.0994 
3.36964 0.314902 -1.11797 3.31908 0.358413 -1.10001 3.26892 0.400671 -1.07477 
3.23248 0.448399 -1.05671 3.18554 0.508933 -1.0735 3.19401 0.664218 -1.06804 
3.23129 0.723065 -1.01381 3.24895 0.772605 -0.952792 3.26705 0.822888 -0.899208 
3.256 0.869633 -0.867484 3.20972 0.902061 -0.851762 3.15219 0.919833 -0.85327 
3.08939 0.953141 -0.859206 3.02426 0.99696 -0.86814 2.95843 1.03891 -0.854757 
2.88574 1.07694 -0.806574 6.79138 0.47481 -1.06513 6.82466 0.522396 -0.982613 
6.87236 0.560679 -0.857257 6.92724 0.574123 -0.714188 6.99003 0.54773 -0.593882 
7.05298 0.518265 -0.504316 7.1163 0.47544 -0.447366 7.16815 0.427094 -0.428576 
7.19135 0.380977 -0.460771 6.85039 0.378512 -1.08564 6.91399 0.342555 -1.06514 
6.97468 0.321204 -1.04183 7.03899 0.282577 -1.00678 2.72737 1.04327 -0.892445 
0.702207 -0.323792 -0.823791 0.78036 -0.392225 -0.721363 7.3685 -0.34159 -0.941143 
7.40441 -0.419406 -0.821432 7.29667 -0.187072 -1.01488 7.29128 -0.133608 -0.952042 
7.28461 -0.0925222 -0.868783 7.27825 -0.0554731 -0.771215 7.27152 -0.0171681 -0.680921 
7.22574 -0.307529 -0.95817 7.1674 -0.335249 -0.824725 7.11446 -0.337833 -0.649239 
7.07275 -0.32835 -0.457007 7.05702 -0.310248 -0.271978 7.05345 -0.283956 -0.116192 
7.0623 -0.250936 0.0176037 7.0946 -0.207558 0.122021 7.12738 -0.158458 0.197306 
7.14397 -0.0994313 0.203558 7.17298 -0.0246354 0.125405 7.21659 0.0529117 -0.0471884 
7.15202 0.276528 -0.847476 7.18807 0.313634 -0.70669 7.16173 0.168225 -0.867811 
7.2058 0.0966906 -0.747341 2.77861 1.14139 -0.450313 2.7596 1.15555 -0.197992 
2.71792 1.16332 0.0215697 2.66369 1.17419 0.204613 2.60599 1.19042 0.34609 
2.54835 1.20368 0.449309 2.49259 1.20625 0.527868 2.43392 1.22298 0.601615 
2.37527 1.23962 0.675353 2.31954 1.24164 0.746271 2.26281 1.24866 0.818141 
2.20778 1.2476 0.896001 2.15212 1.2505 0.989691 2.09849 1.2441 1.09665 
2.04319 1.24566 1.19762 1.98818 1.2445 1.27545 1.93114 1.25222 1.33239 
1.87735 1.24368 1.38619 1.82516 1.22716 1.43846 1.77069 1.2212 1.47769 
1.7119 1.23515 1.49062 1.65462 1.24028 1.47925 1.59769 1.24408 1.47515 
1.5389 1.25803 1.48809 1.48375 1.25463 1.51274 1.43017 1.24293 1.52825 
1.37659 1.23081 1.53615 1.32269 1.21992 1.53675 1.26843 1.21037 1.53008 
1.21347 1.20348 1.50885 1.15745 1.2006 1.46579 1.10111 1.19895 1.41542 
1.04547 1.19421 1.372 0.992807 1.17583 1.34855 0.94378 1.1401 1.33682 
0.892541 1.11586 1.33484 0.841302 1.09161 1.33286 0.792626 1.05454 1.32841 
0.741037 1.03205 1.32677 0.687873 1.01744 1.32665 0.636281 0.994963 1.32502 
0.587608 0.957885 1.32056 0.536369 0.933641 1.31859 0.4848 0.910626 1.30931 
0.435445 0.875693 1.28266 0.384045 0.849737 1.23515 0.333638 0.818383 1.17904 
0.282258 0.792321 1.13151 0.232926 0.756855 1.09722 0.182619 0.726264 1.06388 
0.13488 0.681981 1.01282 0.0887148 0.629412 0.95262 0.0425487 0.57684 0.892428 
-0.00506045 0.532474 0.841353 -0.0541564 0.50441 0.785798 -0.0904347 0.463741 0.727302 
-0.108145 0.416808 0.666772 -0.130113 0.365783 0.613239 -0.145561 0.317372 0.552328 
-0.168103 0.268934 0.484213 -0.184496 0.224551 0.401461 -0.206657 0.181814 0.304215 
0.556622 -0.345055 -0.632191 0.510963 -0.419644 -0.411831 0.461034 -0.445968 -0.240845 
0.408724 -0.458062 -0.114249 0.352739 -0.453933 -0.0278598 0.296939 -0.452764 0.0378755 
0.236515 -0.444891 0.105064 0.158652 -0.448313 0.206197 -0.0515328 0.124952 -0.633507 
-0.147907 0.0512846 -0.732848 -0.181295 -0.00356204 -0.779 -0.196217 -0.0687378 -0.752536 
-0.158322 0.0715668 -0.385577 -0.195563 -0.19574 -0.68539 -0.117827 -0.344976 -0.480276 
-0.264257 -0.123907 -0.53696 -0.279665 -0.0947673 -0.402696 -0.267423 -0.0534131 -0.271302 
7.28969 0.0632617 -0.444637 7.2557 0.267879 -0.405463 7.27915 0.19156 -0.318811 
2.09207e-005 -0.478593 0.0273413 -0.247478 0.0662298 -0.0693663 -0.247873 0.109248 0.0403271 
7.37051 0.0378827 -0.144065 -0.131176 -0.541206 -0.204001 -0.18058 -0.594423 -0.143522 
-0.226004 -0.64758 -0.0857387 -0.272641 -0.691828 -0.0338043 -0.318837 -0.738784 0.00504168 
-0.176372 -0.0901291 0.0983123 -0.195298 0.0583791 0.363967 -0.17804 -0.019978 0.492011 
-0.164993 -0.082315 0.532721 -0.156858 -0.125962 0.471547 -0.135142 -0.225457 0.417063 
-0.107316 -0.287279 0.452127 -0.0482343 -0.350819 0.422548 -0.0452355 -0.550171 0.657248 
-0.0855228 -0.649169 0.882297 -0.0992793 -0.729148 0.99395 4.24909 -0.482061 0.678826 
4.18839 -0.500652 0.776359 4.134 -0.508763 0.908172 4.08422 -0.531996 1.05207 
4.03511 -0.54988 1.17934 3.98952 -0.536126 1.28206 3.95592 -0.505293 1.37227 
3.90889 -0.47524 1.463 3.8622 -0.446518 1.56098 3.82857 -0.415583 1.65122 
3.78157 -0.395953 1.73248 3.72733 -0.391577 1.80375 3.66806 -0.371724 1.87057 
3.60677 -0.342686 1.93163 3.54671 -0.32029 1.98386 3.49062 -0.316916 2.0475 
3.43462 -0.31311 2.1263 3.38261 -0.328428 2.21646 3.33184 -0.35081 2.29021 
3.28038 -0.371045 2.34175 3.2279 -0.387799 2.36382 3.17666 -0.411616 2.36947 
3.12836 -0.450553 2.36465 3.07941 -0.486282 2.36046 3.03341 -0.536714 2.35343 
2.9874 -0.587145 2.34639 2.93846 -0.622874 2.3422 2.89016 -0.661812 2.33739 
2.83857 -0.684293 2.33575 2.78503 -0.697042 2.33599 0.461433 -1.47445 1.29513 
0.516765 -1.46943 1.316 0.575423 -1.47937 1.36412 0.638406 -1.50925 1.43854 
0.699873 -1.52987 1.54488 
LINES 44 445
4 35 36 37 28 
7 33 38 39 40 41 42 34 
12 33 43 44 45 46 47 48 49 50 51 52 25 
7 25 53 54 55 56 57 27 
30 33 58 59 60 61 62 63 64 65 66 67 68 69 70 71 72 73 74 75 76 77 78 79 80 81 82 83 84 85 21 
3 32 86 31 
3 32 87 31 
3 32 88 21 
10 31 89 90 91 92 93 94 95 96 18 
3 30 97 29 
3 30 98 29 
14 30 99 100 101 102 103 104 105 106 107 108 109 110 26 
5 29 111 112 113 28 
49 28 114 115 116 117 118 119 120 121 122 123 124 125 126 127 128 129 130 131 132 133 134 135 136 137 138 139 140 141 142 143 144 145 146 147 148 149 150 151 152 153 154 155 156 157 158 159 160 27 
13 27 161 162 163 164 165 166 167 168 169 170 171 22 
11 26 172 173 174 175 176 177 178 179 180 13 
6 26 181 182 183 184 23 
3 22 185 25 
4 21 186 187 16 
4 24 188 189 15 
7 24 190 191 192 193 194 14 
14 24 195 196 197 198 199 200 201 202 203 204 205 206 10 
4 23 207 208 13 
4 23 209 210 14 
64 22 211 212 213 214 215 216 217 218 219 220 221 222 223 224 225 226 227 228 229 230 231 232 233 234 235 236 237 238 239 240 241 242 243 244 245 246 247 248 249 250 251 252 253 254 255 256 257 258 259 260 261 262 263 264 265 266 267 268 269 270 271 272 9 
10 21 273 274 275 276 277 278 279 280 5 
3 20 281 19 
5 19 282 283 284 17 
3 19 285 11 
3 18 286 17 
3 18 287 12 
5 17 288 289 290 11 
3 14 291 10 
4 13 292 293 10 
3 12 294 5 
4 11 295 296 9 
3 10 297 7 
7 12 298 299 300 301 302 8 
3 11 303 6 
6 9 304 305 306 307 6 
5 6 308 309 310 5 
5 5 311 312 313 3 
32 4 314 315 316 317 318 319 320 321 322 323 324 325 326 327 328 329 330 331 332 333 334 335 336 337 338 339 340 341 342 343 0 
7 2 344 345 346 347 348 1 

POINT_DATA 349
SCALARS DY_raw double
LOOKUP_TABLE default
0 47.8526 88.0469 50.3289 41.004 45.8704 39.2911 77.7765 52.7817 
51.5274 84.0532 64.0058 45.9582 70.1739 86.7027 81.3673 35.9099 47.0268 
40.3807 51.3608 48.4203 56.3958 29.5252 92.7757 72.3199 51.644 96.3523 
28.5165 81.286 71.9516 46.9958 65.9121 63.3191 90.4914 46.0312 81.9553 
121.126 107.351 95.1361 70.3935 60.9536 51.3215 51.3215 89.4192 88.0691 
70.2662 81.8638 70.6376 65.7201 65.7201 54.1092 60.4537 50.7401 59.6856 
60.3196 61.6119 55.5061 34.9234 95.132 79.2266 74.4301 91.1565 77.3712 
85.7504 79.83 66.2549 60.4087 70.4804 94.6388 82.8425 116.614 127.288 
93.6523 86.014 62.1344 62.1344 73.6851 74.1534 60.8981 57.7604 60.9243 
65.6569 66.0843 91.3205 97.6013 75.4988 74.6514 63.3191 78.5031 64.8476 
62.408 55.6249 41.7146 45.7684 50.1828 39.0241 40.0822 69.3478 69.3478 
42.778 40.6551 59.0087 67.8864 75.2982 77.1016 68.5422 68.5422 76.0996 
94.2392 100.698 105.183 71.9516 65.5055 69.5807 81.286 80.9078 76.4845 
101.595 107.922 89.9201 81.0503 60.5073 45.8146 64.8725 64.1762 73.524 
86.3533 73.8045 72.3591 50.3039 42.5381 33.705 44.2874 47.1784 44.9566 
74.702 64.5638 62.7124 88.3459 74.5731 101.771 71.8227 71.8227 49.756 
53.4545 45.5693 41.6913 33.954 39.8645 39.4663 52.2738 59.3393 65.0537 
58.3911 52.5366 54.1326 40.8182 29.0929 8.44452 22.8565 23.553 25.2661 
28.6707 21.1371 32.867 33.4226 42.1109 43.5997 35.265 31.2443 29.8728 
29.3724 87.1088 77.4205 78.7676 134.006 76.7751 83.2342 71.796 64.4412 
61.4379 70.1098 85.3255 75.0482 79.932 53.6755 54.465 44.5083 68.4873 
73.0914 70.6382 76.2205 75.8437 68.6263 79.9495 81.7654 75.7322 65.7843 
78.0729 90.3299 99.3614 113.77 113.901 124.324 119.836 90.7059 82.5708 
71.171 65.8361 85.1907 72.3894 33.0909 60.946 73.7672 77.7952 73.9474 
63.8621 70.2001 73.7134 55.6691 38.4644 39.5419 42.0006 49.0439 61.8652 
63.7824 66.5877 62.375 52.0272 61.3276 62.8592 51.6553 50.0811 37.6722 
34.1723 34.1723 41.449 28.3624 28.3624 36.6813 37.3356 33.359 26.9475 
21.5657 21.5657 42.0958 42.0958 51.6425 118.417 118.417 104.085 83.5047 
83.5047 67.5408 70.9635 99.8116 87.0846 86.7972 80.738 59.2821 43.1398 
45.9829 33.7315 45.6809 47.0485 65.2073 83.428 76.3071 51.6329 57.5811 
39.4712 48.6554 40.937 59.3208 72.7397 62.4051 66.1484 61.0812 66.5607 
61.7796 63.5823 50.9802 49.1 54.1407 55.7689 51.1379 36.4601 61.4808 
48.7639 49.1531 61.6988 82.6639 70.5913 76.0307 50.751 65.062 67.0125 
94.2657 41.5928 31.9455 39.3662 38.6627 49.3916 67.4182 59.6111 72.6497 
66.6965 58.8848 37.6188 48.5531 43.6184 60.0816 76.767 65.8906 38.6005 
29.1315 40.0742 60.3885 42.9988 39.1625 35.099 32.1815 34.405 27.5894 
26.0406 26.9313 32.7279 22.0648 26.0585 36.4762 44.7083 46.6939 42.7983 
38.842 38.842 39.8479 44.0156 43.0629 41.799 41.0751 36.0506 36.336 
34.3464 34.3464 54.0579 48.8998 56.5884 46.8409 38.91 
FIELD FieldData 7
DY_minmax 1 349 double
0 0.357094 0.657039 0.375573 0.305987 0.342302 0.293205 0.580398 0.393877 
0.384517 0.627237 0.477636 0.342957 0.523664 0.647008 0.607193 0.267973 0.350931 
0.301336 0.383273 0.361331 0.420847 0.220328 0.692327 0.539679 0.385387 0.719017 
0.212801 0.606587 0.53693 0.3507 0.491861 0.472511 0.675281 0.343502 0.611581 
0.903888 0.801094 0.709941 0.525303 0.454859 0.38298 0.38298 0.667279 0.657205 
0.524353 0.610899 0.527125 0.490428 0.490428 0.403784 0.451129 0.378641 0.445396 
0.450128 0.459771 0.414208 0.260612 0.709911 0.591219 0.555425 0.680244 0.577373 
0.639901 0.595722 0.494419 0.450792 0.525951 0.706231 0.618202 0.870215 0.949868 
0.698868 0.641869 0.46367 0.46367 0.549866 0.55336 0.454445 0.43103 0.45464 
0.489956 0.493146 0.681468 0.728338 0.563401 0.557077 0.472511 0.58582 0.483917 
0.465712 0.415094 0.31129 0.341541 0.374483 0.291213 0.299108 0.517499 0.517499 
0.319226 0.303383 0.440345 0.506594 0.561903 0.575361 0.511488 0.511488 0.567884 
0.703248 0.751445 0.784914 0.53693 0.488827 0.519237 0.606587 0.603764 0.570756 
0.758139 0.805357 0.671018 0.604828 0.451528 0.341886 0.484103 0.478907 0.548664 
0.644401 0.550757 0.539971 0.375386 0.317435 0.251519 0.330489 0.352063 0.335483 
0.557455 0.4818 0.467983 0.65927 0.556493 0.759457 0.535968 0.535968 0.371298 
0.398898 0.340055 0.311116 0.253377 0.297484 0.294512 0.390087 0.442812 0.485455 
0.435737 0.392048 0.403958 0.304601 0.217102 0.0630162 0.170564 0.175761 0.188545 
0.213952 0.157733 0.245266 0.249412 0.314247 0.325357 0.263161 0.233157 0.222922 
0.219188 0.650039 0.577741 0.587793 1 0.572925 0.621125 0.535769 0.480885 
0.458473 0.523186 0.636731 0.560038 0.596483 0.400547 0.406438 0.332138 0.511078 
0.545435 0.527129 0.568786 0.565975 0.512115 0.596614 0.610165 0.565142 0.490907 
0.582609 0.674075 0.741472 0.848998 0.849974 0.92775 0.894262 0.676881 0.616174 
0.531105 0.491294 0.635725 0.540197 0.246937 0.454802 0.550479 0.580537 0.551823 
0.476563 0.52386 0.550077 0.415424 0.287036 0.295076 0.313424 0.365984 0.461662 
0.475968 0.496903 0.465466 0.388246 0.45765 0.469079 0.385471 0.373724 0.281124 
0.255006 0.255006 0.309308 0.211651 0.211651 0.27373 0.278612 0.248938 0.201092 
0.160931 0.160931 0.314134 0.314134 0.385376 0.88367 0.88367 0.77672 0.623144 
0.623144 0.504015 0.529556 0.744832 0.649858 0.647713 0.602497 0.442386 0.321925 
0.343142 0.251717 0.340888 0.351094 0.486602 0.622571 0.569433 0.385304 0.429692 
0.294549 0.363085 0.305487 0.442674 0.542811 0.46569 0.493624 0.455811 0.496701 
0.461022 0.474475 0.380434 0.366403 0.404019 0.416168 0.38161 0.272079 0.458793 
0.363894 0.366799 0.46042 0.616869 0.526779 0.56737 0.378723 0.485517 0.500073 
0.703446 0.310381 0.238389 0.293765 0.288516 0.368578 0.5031 0.44484 0.54214 
0.497715 0.439421 0.280726 0.362322 0.325497 0.448352 0.572864 0.4917 0.288052 
0.21739 0.299049 0.450641 0.320873 0.292245 0.261922 0.240151 0.256743 0.205882 
0.194325 0.200972 0.244228 0.164656 0.194458 0.272199 0.33363 0.348447 0.319377 
0.289854 0.289854 0.29736 0.328461 0.321352 0.31192 0.306518 0.269023 0.271153 
0.256306 0.256306 0.403401 0.364909 0.422284 0.349544 0.290361 
WidthEq 1 349 double
1 1.80993 1.21674 2.75031 2.2949 3.37516 2.96963 1.76133 2.14184 
2.62753 2.94599 3.30892 2.91852 3.00824 3.32573 2.02858 1.16319 2.3593 
2.76122 3.06304 2.21705 3.02079 2.96018 2.82229 2.93405 2.10247 2.24447 
2.03461 2.33484 1.90267 1.19351 2.30443 2.43039 1.35228 1.37494 1.074 
1.35726 1.94521 1.54179 1.66336 1.63797 1.47989 1.47989 1.20176 1.32657 
1.51481 1.52375 1.66016 1.69279 1.69279 1.70378 1.74017 1.92353 1.88521 
1.82146 1.73554 1.85619 2.00152 1.25573 1.18369 1.23015 1.13398 1.24271 
1.06215 1.22097 1.26511 1.44863 1.39471 1.14541 1.45928 1.19737 1.08534 
1.23008 1.17283 1.34933 1.34933 1.35835 1.24283 1.29347 1.35023 1.22989 
1.21724 1.44981 1.63906 2.02139 2.64706 2.22729 2.43039 2.60066 2.07379 
2.06239 2.0063 2.04125 2.04355 2.25256 2.63555 2.72415 1.34597 1.34597 
1.4449 1.47435 1.55943 1.50604 1.48729 1.61825 2.05377 2.05377 2.13234 
2.43731 2.49648 2.29553 1.90267 2.22165 2.45384 2.33484 1.86509 1.67838 
1.55293 1.55908 1.6726 1.81554 1.84738 1.84221 2.13897 1.72681 1.92345 
1.40435 1.51034 1.56166 1.86626 2.55959 2.48302 2.60368 2.3816 2.34115 
1.72258 1.81866 1.56237 1.25167 1.2715 1.28946 1.52723 1.52723 1.60262 
1.41728 1.44308 1.48568 1.52766 1.53645 1.77569 1.65838 1.69062 1.55994 
1.64409 1.2833 1.32212 1.25214 1.45775 1.7538 1.93862 2.01716 2.01574 
1.82974 1.73439 1.75252 1.7904 1.86056 1.90575 1.76265 2.07814 2.36871 
2.70527 2.3497 2.20639 2.16053 1.75366 2.2971 2.58476 2.96646 3.11167 
3.11013 2.64656 2.60426 2.60819 2.69279 2.53915 2.73258 2.20116 2.93091 
2.54736 2.91825 3.05416 3.26487 3.50522 3.43442 2.76388 2.57948 2.7122 
2.78112 2.83051 2.43404 2.22334 1.989 1.83987 1.79287 1.96261 2.35689 
2.81941 2.87243 3.14154 3.43973 2.95519 3.10668 2.66202 2.39051 2.36438 
2.26879 1.9886 1.84932 1.76471 1.62358 1.54849 1.41974 1.5792 1.43586 
1.46671 1.47955 1.46405 1.55803 1.46883 1.39757 1.5193 1.34781 1.57092 
1.7365 1.7365 1.83792 1.59578 1.59578 1.45142 1.32072 1.38853 1.63206 
1.65448 1.65448 1.55716 1.55716 1.73462 1.57537 1.57537 1.65548 1.40938 
1.40938 1.28885 1.214 1.14005 1.39255 1.3914 1.47824 1.57316 1.67919 
1.80002 1.84338 1.86708 1.87126 1.90837 1.94059 1.90022 1.91409 1.77853 
2.02299 2.16399 2.23416 2.64444 2.77606 3.08212 2.81503 2.88485 2.98344 
3.17095 3.07224 2.69104 3.02179 2.68744 2.4467 3.22246 2.65139 2.69092 
2.56542 2.92088 3.12859 3.16172 3.10208 3.02693 3.14299 3.03311 2.75202 
2.68146 3.02119 3.11312 3.13594 2.80916 2.23722 3.00764 2.57536 2.32017 
2.51812 2.63498 3.01472 3.11329 3.30961 3.4047 3.25022 3.25297 2.41681 
2.55531 2.67778 2.47564 2.52146 2.35659 2.2089 2.12762 2.09737 1.92574 
2.0084 2.03963 1.92252 2.02132 2.04309 1.92619 1.92403 1.90368 1.90311 
1.87091 1.87091 1.87162 1.71303 1.85124 1.69717 1.76068 1.79719 1.69116 
1.53757 1.53757 2.20319 2.43253 2.3367 2.24057 1.93832 
rRFP 1 349 double
3173.96 3920.52 3373.74 4787.32 4367.54 5363.28 4989.48 3875.72 4226.46 
4674.15 4967.69 5302.22 4942.37 5025.07 5317.72 4122.06 3324.38 4426.9 
4797.38 5075.58 4295.78 5036.64 4980.77 4853.67 4956.68 4190.17 4321.06 
4127.62 4404.36 4006 3352.33 4376.33 4492.43 3498.68 3519.56 3242.17 
3503.27 4045.21 3673.36 3785.42 3762.01 3616.3 3616.3 3359.93 3474.98 
3648.49 3656.73 3782.47 3812.54 3812.54 3822.67 3856.22 4025.23 3989.91 
3931.15 3851.95 3963.16 4097.12 3409.68 3343.28 3386.1 3297.46 3397.68 
3231.25 3377.64 3418.33 3587.49 3537.79 3307.99 3597.3 3355.89 3252.62 
3386.04 3333.27 3495.96 3495.96 3504.27 3397.79 3444.47 3496.79 3385.86 
3374.2 3588.58 3763.02 4115.43 4692.15 4305.22 4492.43 4649.38 4163.73 
4153.23 4101.52 4133.74 4135.86 4328.52 4681.54 4763.21 3492.86 3492.86 
3584.05 3611.2 3689.62 3640.41 3623.12 3743.84 4145.28 4145.28 4217.7 
4498.81 4553.35 4368.12 4006 4300.02 4514.05 4404.36 3971.36 3799.26 
3683.63 3689.3 3793.93 3925.69 3955.04 3950.27 4223.81 3843.9 4025.16 
3546.67 3644.37 3691.67 3972.44 4611.52 4540.94 4652.16 4447.46 4410.17 
3840 3928.57 3692.33 3405.94 3424.22 3440.77 3659.94 3659.94 3729.43 
3558.59 3582.37 3621.64 3660.33 3668.44 3888.96 3780.83 3810.54 3690.09 
3767.65 3435.09 3470.88 3406.37 3595.89 3868.78 4039.14 4111.53 4110.23 
3938.78 3850.89 3867.6 3902.52 3967.19 4008.84 3876.94 4167.74 4435.58 
4745.8 4418.06 4285.96 4243.69 3868.65 4369.57 4634.72 4986.56 5120.41 
5118.99 4691.69 4652.7 4656.32 4734.3 4592.68 4770.98 4281.14 4953.79 
4600.25 4942.12 5067.4 5261.62 5483.16 5417.9 4799.83 4629.86 4752.19 
4815.72 4861.25 4495.8 4301.58 4085.58 3948.12 3904.79 4061.25 4424.68 
4851.01 4899.89 5147.94 5422.8 4976.17 5115.81 4705.94 4455.67 4431.59 
4343.48 4085.21 3956.83 3878.84 3748.75 3679.53 3560.86 3707.84 3575.72 
3604.15 3615.99 3601.7 3688.33 3606.11 3540.42 3652.63 3494.56 3700.21 
3852.83 3852.83 3946.32 3723.12 3723.12 3590.06 3469.59 3532.09 3756.57 
3777.23 3777.23 3687.53 3687.53 3851.1 3704.31 3704.31 3778.15 3551.31 
3551.31 3440.21 3371.22 3303.05 3535.8 3534.74 3614.78 3702.27 3800.01 
3911.38 3951.35 3973.2 3977.05 4011.26 4040.96 4003.74 4016.53 3891.58 
4116.91 4246.88 4311.56 4689.73 4811.06 5093.17 4846.98 4911.33 5002.21 
5175.05 5084.06 4732.69 5037.56 4729.37 4507.47 5222.53 4696.14 4732.58 
4616.9 4944.54 5136 5166.54 5111.57 5042.3 5149.28 5047.99 4788.9 
4723.86 5037.01 5121.74 5142.78 4841.57 4314.38 5024.52 4626.06 4390.84 
4573.3 4681.01 5031.04 5121.9 5302.86 5390.51 5248.12 5250.65 4479.91 
4607.58 4720.47 4534.14 4576.38 4424.41 4288.27 4213.35 4185.47 4027.27 
4103.46 4132.25 4024.3 4115.37 4135.44 4027.68 4025.69 4006.93 4006.41 
3976.73 3976.73 3977.38 3831.2 3958.6 3816.58 3875.12 3908.78 3811.04 
3669.47 3669.47 4283.01 4494.4 4406.07 4317.46 4038.86 
rGFP 1 349 double
2372.75 2459.36 2479.88 2511.17 2466.85 2527.57 2489.43 2509.74 2485.8 
2508.14 2620.37 2584.54 2506.88 2583.85 2661.1 2537.81 2414.52 2483.7 
2484.25 2530.07 2480.1 2543.11 2460.15 2634.59 2584.94 2481.33 2589.01 
2430.77 2562.54 2509.65 2428.84 2524.64 2526.64 2495.12 2436.04 2460.77 
2537.15 2581.57 2519.43 2489.84 2472.59 2448.7 2448.7 2480.21 2489.58 
2479.19 2497.49 2490.02 2484 2484 2464.94 2477.95 2470.35 2485.27 
2482.62 2479.68 2475.78 2442.65 2492.21 2466.53 2464.31 2476.12 2468.9 
2463.83 2470.22 2456.57 2460.26 2471.05 2481.15 2493.64 2512.38 2510.9 
2487.95 2473.63 2456.59 2456.59 2472.84 2464.91 2451.52 2450.74 2447.68 
2452.67 2468.56 2522.43 2570.04 2572.6 2539.02 2526.64 2576.91 2507.23 
2501.46 2484.35 2457.9 2466.28 2485.79 2475.6 2481.94 2466.09 2466.09 
2434.56 2432.69 2464.77 2474.99 2484.74 2497.52 2513.52 2513.52 2535.02 
2602.44 2624.14 2614.2 2509.65 2518.28 2543.49 2562.54 2523.65 2501.12 
2530.52 2541.01 2523.15 2519.9 2484.53 2457.15 2511.51 2483.57 2514.17 
2494.02 2484.22 2485.75 2466.63 2481.63 2456.44 2488.06 2485.11 2478 
2501.43 2490.17 2470.73 2483.33 2467.57 2503.98 2482.44 2482.44 2452.49 
2448.51 2438.51 2434.69 2424.62 2434 2442.83 2459.44 2473.07 2474.23 
2468.75 2440.17 2444.32 2423.86 2415.16 2387.56 2417.06 2420.26 2423.68 
2425.21 2409.41 2430.35 2432.59 2451.1 2455.84 2434.91 2437.68 2443.51 
2452.21 2577.43 2543.57 2542.93 2607.75 2549.11 2587.89 2585.73 2573.27 
2563.83 2558.3 2594.96 2568.49 2587.99 2509.04 2521.58 2470.72 2573.48 
2558.94 2578.89 2605.54 2620.37 2613.3 2647.33 2598.74 2568.1 2551.17 
2589.88 2628.43 2614.6 2625.7 2599.3 2601.49 2587.6 2550.77 2567.36 
2573.41 2561.86 2640.38 2621.75 2470.54 2562.09 2569.12 2558.72 2547.59 
2517.64 2512.35 2509.07 2470.99 2435.2 2433.98 2432.38 2450.2 2461.58 
2466.3 2471.27 2464.07 2453.81 2462.83 2460.6 2451.23 2440.25 2431.93 
2432.09 2432.09 2448.93 2418.01 2418.01 2425.99 2422.06 2419.07 2416.73 
2408.43 2408.43 2438.3 2438.3 2462.33 2559.3 2559.3 2545.06 2490.44 
2490.44 2459.8 2458.9 2486.54 2494.02 2493.52 2492.1 2466.01 2445.19 
2455.52 2434.93 2458.04 2460.79 2497.19 2534.65 2517.75 2471.58 2475.16 
2452.6 2478.04 2464.21 2529.62 2574.68 2565.09 2558.96 2548.96 2571.33 
2568.65 2568.09 2509.94 2521.12 2518.25 2509.2 2537.54 2469.42 2538.19 
2497.85 2516.32 2565.78 2634.11 2591.73 2602.89 2532.26 2570.09 2557.17 
2625.52 2498.41 2472.2 2496.2 2481.36 2483.25 2575.52 2526.27 2541.31 
2540.7 2527.91 2486.16 2523.91 2517.11 2577.31 2622.26 2587.09 2466.04 
2447.19 2480.06 2522.25 2481.17 2465.04 2450.28 2441.22 2444.91 2425.88 
2425.05 2427.68 2435.67 2417.35 2425.99 2443.01 2458.77 2461.64 2454.2 
2445.42 2445.42 2447.33 2448.15 2452.47 2443.69 2445.07 2437.54 2434.2 
2425.56 2425.56 2491.85 2491.7 2504.98 2477.7 2448.17 
bkstRFP 1 349 double
921.757 1668.32 1121.54 2535.12 2115.34 3111.08 2737.28 1623.52 1974.26 
2421.95 2715.49 3050.02 2690.17 2772.87 3065.52 1869.86 1072.18 2174.7 
2545.18 2823.38 2043.58 2784.44 2728.57 2601.47 2704.48 1937.97 2068.86 
1875.42 2152.16 1753.8 1100.13 2124.13 2240.23 1246.48 1267.36 989.967 
1251.07 1793.01 1421.16 1533.22 1509.81 1364.1 1364.1 1107.73 1222.78 
1396.29 1404.53 1530.27 1560.34 1560.34 1570.47 1604.02 1773.03 1737.71 
1678.95 1599.75 1710.96 1844.92 1157.48 1091.08 1133.9 1045.26 1145.48 
979.047 1125.44 1166.13 1335.29 1285.59 1055.79 1345.1 1103.69 1000.42 
1133.84 1081.07 1243.76 1243.76 1252.07 1145.59 1192.27 1244.59 1133.66 
1122 1336.38 1510.82 1863.23 2439.95 2053.02 2240.23 2397.18 1911.53 
1901.03 1849.32 1881.54 1883.66 2076.32 2429.34 2511.01 1240.66 1240.66 
1331.85 1359 1437.42 1388.21 1370.92 1491.64 1893.08 1893.08 1965.5 
2246.61 2301.15 2115.92 1753.8 2047.82 2261.85 2152.16 1719.16 1547.06 
1431.43 1437.1 1541.73 1673.49 1702.84 1698.07 1971.61 1591.7 1772.96 
1294.47 1392.17 1439.47 1720.24 2359.32 2288.74 2399.96 2195.26 2157.97 
1587.8 1676.37 1440.13 1153.74 1172.02 1188.57 1407.74 1407.74 1477.23 
1306.39 1330.17 1369.44 1408.13 1416.24 1636.76 1528.63 1558.34 1437.89 
1515.45 1182.89 1218.68 1154.17 1343.69 1616.58 1786.94 1859.33 1858.03 
1686.58 1598.69 1615.4 1650.32 1714.99 1756.64 1624.74 1915.54 2183.38 
2493.6 2165.86 2033.76 1991.49 1616.45 2117.37 2382.52 2734.36 2868.21 
2866.79 2439.49 2400.5 2404.12 2482.1 2340.48 2518.78 2028.94 2701.59 
2348.05 2689.92 2815.2 3009.42 3230.96 3165.7 2547.63 2377.66 2499.99 
2563.52 2609.05 2243.6 2049.38 1833.38 1695.92 1652.59 1809.05 2172.48 
2598.81 2647.69 2895.74 3170.6 2723.97 2863.61 2453.74 2203.47 2179.39 
2091.28 1833.01 1704.63 1626.64 1496.55 1427.33 1308.66 1455.64 1323.52 
1351.95 1363.79 1349.5 1436.13 1353.91 1288.22 1400.43 1242.36 1448.01 
1600.63 1600.63 1694.12 1470.92 1470.92 1337.86 1217.39 1279.89 1504.37 
1525.03 1525.03 1435.33 1435.33 1598.9 1452.11 1452.11 1525.95 1299.11 
1299.11 1188.01 1119.02 1050.85 1283.6 1282.54 1362.58 1450.07 1547.81 
1659.18 1699.15 1721 1724.85 1759.06 1788.76 1751.54 1764.33 1639.38 
1864.71 1994.68 2059.36 2437.53 2558.86 2840.97 2594.78 2659.13 2750.01 
2922.85 2831.86 2480.49 2785.36 2477.17 2255.27 2970.33 2443.94 2480.38 
2364.7 2692.34 2883.8 2914.34 2859.37 2790.1 2897.08 2795.79 2536.7 
2471.66 2784.81 2869.54 2890.58 2589.37 2062.18 2772.32 2373.86 2138.64 
2321.1 2428.81 2778.84 2869.7 3050.66 3138.31 2995.92 2998.45 2227.71 
2355.38 2468.27 2281.94 2324.18 2172.21 2036.07 1961.15 1933.27 1775.07 
1851.26 1880.05 1772.1 1863.17 1883.24 1775.48 1773.49 1754.73 1754.21 
1724.53 1724.53 1725.18 1579 1706.4 1564.38 1622.92 1656.58 1558.84 
1417.27 1417.27 2030.81 2242.2 2153.87 2065.26 1786.66 
bkstGFP 1 349 double
0 86.61 107.13 138.42 94.1 154.82 116.68 136.99 113.05 
135.39 247.62 211.79 134.13 211.1 288.35 165.06 41.77 110.95 
111.5 157.32 107.35 170.36 87.4 261.84 212.19 108.58 216.26 
58.02 189.79 136.9 56.09 151.89 153.89 122.37 63.29 88.02 
164.4 208.82 146.68 117.09 99.84 75.95 75.95 107.46 116.83 
106.44 124.74 117.27 111.25 111.25 92.19 105.2 97.6 112.52 
109.87 106.93 103.03 69.9 119.46 93.78 91.56 103.37 96.15 
91.08 97.47 83.82 87.51 98.3 108.4 120.89 139.63 138.15 
115.2 100.88 83.84 83.84 100.09 92.16 78.77 77.99 74.93 
79.92 95.81 149.68 197.29 199.85 166.27 153.89 204.16 134.48 
128.71 111.6 85.15 93.53 113.04 102.85 109.19 93.34 93.34 
61.81 59.94 92.02 102.24 111.99 124.77 140.77 140.77 162.27 
229.69 251.39 241.45 136.9 145.53 170.74 189.79 150.9 128.37 
157.77 168.26 150.4 147.15 111.78 84.4 138.76 110.82 141.42 
121.27 111.47 113 93.88 108.88 83.69 115.31 112.36 105.25 
128.68 117.42 97.98 110.58 94.82 131.23 109.69 109.69 79.74 
75.76 65.76 61.94 51.87 61.25 70.08 86.69 100.32 101.48 
96 67.42 71.57 51.11 42.41 14.81 44.31 47.51 50.93 
52.46 36.66 57.6 59.84 78.35 83.09 62.16 64.93 70.76 
79.46 204.68 170.82 170.18 235 176.36 215.14 212.98 200.52 
191.08 185.55 222.21 195.74 215.24 136.29 148.83 97.97 200.73 
186.19 206.14 232.79 247.62 240.55 274.58 225.99 195.35 178.42 
217.13 255.68 241.85 252.95 226.55 228.74 214.85 178.02 194.61 
200.66 189.11 267.63 249 97.79 189.34 196.37 185.97 174.84 
144.89 139.6 136.32 98.24 62.45 61.23 59.63 77.45 88.83 
93.55 98.52 91.32 81.06 90.08 87.85 78.48 67.5 59.18 
59.34 59.34 76.18 45.26 45.26 53.24 49.31 46.32 43.98 