# vtk DataFile Version 3.0
vtk output
ASCII
DATASET POLYDATA
POINTS 224 float
0.883924 -1.22767 1.22683 1.23083 -1.151 1.46829 3.08098 -1.23473 0.327655 
3.16338 -1.01523 0.340005 -0.313858 -0.433578 0.277623 -0.439783 -0.206071 0.351213 
3.40955 -0.815669 0.348928 0.0635696 0.406446 -0.0309223 3.65571 -0.616109 0.357851 
-0.29947 -0.101402 -0.305786 -0.564391 0.00290328 -0.11072 -0.690337 0.15818 0.029257 
-0.234553 0.554573 0.964876 -0.338596 -0.0118799 -0.710207 -0.151183 0.504029 -0.0533671 
0.550974 0.753138 -0.610885 7.24986 0.252067 0.217842 6.88367 0.787827 0.786779 
0.838595 0.722522 -1.69504 3.47806 0.520004 -1.50156 3.66359 0.670253 -1.4546 
7.86783 0.461093 -0.598534 7.71183 0.527659 -0.495779 3.32274 0.649537 -1.73296 
3.42066 0.962287 -1.52195 3.94683 1.11227 -1.08526 2.56804 1.31114 -1.92366 
1.80773 1.42752 -1.85801 2.49708 2.22358 -0.0318623 2.178 2.37305 -0.259835 
2.22582 2.29736 -0.182591 2.27554 2.2418 -0.131843 2.32921 2.22094 -0.0938833 
2.38404 2.21361 -0.0791418 2.43974 2.21365 -0.0660262 1.85859 1.39847 -1.90687 
1.91028 1.37442 -1.94507 1.96387 1.36181 -1.95892 2.01893 1.36017 -1.96674 
2.07503 1.3692 -1.98653 2.13301 1.39602 -2.02042 2.19312 1.43569 -2.02696 
2.25063 1.45318 -2.02872 2.30299 1.42659 -2.02032 2.35242 1.37586 -2.01131 
2.40148 1.32294 -2.00696 2.45505 1.30363 -1.98305 2.51057 1.30044 -1.95948 
3.93095 0.982581 -1.08406 3.91624 0.879712 -1.09553 3.89607 0.81795 -1.12587 
3.86309 0.777966 -1.16544 3.84504 0.736153 -1.20531 3.83388 0.684483 -1.2412 
3.81216 0.646886 -1.28465 3.75522 0.645258 -1.35313 3.42226 0.843956 -1.52744 
3.44584 0.695982 -1.52074 3.36882 0.98546 -1.4856 3.31522 0.997982 -1.47195 
3.26077 1.00549 -1.46896 3.2062 1.01219 -1.46772 3.15161 1.01884 -1.46658 
3.09703 1.02548 -1.46544 3.04245 1.03218 -1.46419 2.988 1.03964 -1.46131 
2.93426 1.05134 -1.4494 2.88159 1.06951 -1.42372 2.82798 1.08203 -1.41006 
2.77437 1.09455 -1.3964 2.72171 1.11272 -1.37072 2.66722 1.11777 -1.35563 
2.61054 1.10529 -1.34321 2.5515 1.07209 -1.32289 2.49172 1.03219 -1.29949 
2.43267 0.998947 -1.27928 2.37586 0.985649 -1.2686 2.31979 0.978994 -1.2611 
2.26297 0.965696 -1.25042 2.20394 0.932499 -1.2301 2.14428 0.893413 -1.20496 
2.08609 0.865269 -1.17388 2.03132 0.864267 -1.13701 1.97768 0.874414 -1.11106 
1.92528 0.894176 -1.08198 1.87238 0.910974 -1.05921 1.81984 0.929918 -1.03187 
1.76611 0.941711 -1.01977 1.71106 0.943343 -1.01196 1.6551 0.93519 -0.99032 
1.5981 0.914243 -0.943909 1.53999 0.884444 -0.898983 1.483 0.863543 -0.852473 
1.42717 0.856162 -0.829188 1.37282 0.862033 -0.81235 1.31941 0.873549 -0.783485 
1.26344 0.865303 -0.762043 1.20453 0.832878 -0.740085 1.14475 0.793021 -0.716586 
1.08571 0.759824 -0.696272 1.02903 0.747298 -0.683949 0.974412 0.751575 -0.670507 
0.921033 0.765462 -0.653941 0.86622 0.770744 -0.655706 0.81284 0.784631 -0.639141 
0.758647 0.793334 -0.627853 0.701802 0.791764 -0.621404 0.6355 0.777672 -0.614605 
3.4771 0.963203 -1.48382 3.53046 0.925138 -1.45893 3.58823 0.827124 -1.4433 
3.72513 0.550893 -1.47126 3.73117 0.491246 -1.50253 3.69699 0.504802 -1.53395 
3.66689 0.576581 -1.51743 3.37345 0.623325 -1.70689 3.41464 0.595666 -1.65156 
3.44005 0.561556 -1.57888 7.76352 0.503574 -0.53407 7.81615 0.485178 -0.560243 
7.64676 0.442902 -0.46388 7.58381 0.377462 -0.442877 7.52608 0.349906 -0.393196 
7.46989 0.331636 -0.323731 7.41397 0.314955 -0.250857 7.35891 0.30501 -0.18098 
7.30725 0.308126 -0.1175 7.26743 0.309802 -0.0542668 7.25299 0.29491 0.0147596 
7.24965 0.271917 0.0867234 7.24896 0.255352 0.155462 7.75164 0.539854 -0.443702 
7.75521 0.542986 -0.384542 7.73063 0.536062 -0.318463 7.72163 0.533985 -0.255875 
7.7335 0.556323 -0.206379 7.75528 0.604414 -0.169744 7.747 0.656165 -0.132479 
7.73904 0.680919 -0.0825674 7.72471 0.666014 -0.0135432 7.69216 0.626361 0.0685213 
7.66153 0.573007 0.156866 7.61725 0.534783 0.239176 7.57519 0.516513 0.311945 
7.55041 0.516356 0.374863 7.52039 0.516837 0.437891 7.49476 0.509995 0.503892 
7.45286 0.510992 0.565224 7.40294 0.533937 0.601542 7.35145 0.567214 0.590065 
7.29724 0.584839 0.545216 7.24016 0.575855 0.513082 7.18379 0.549076 0.530176 
7.13857 0.524215 0.588445 7.11074 0.515933 0.650897 7.07101 0.539353 0.690593 
7.02403 0.59084 0.701014 6.97779 0.662285 0.718798 6.93141 0.731317 0.748789 
3.55893 0.593498 -1.47853 0.82595 0.741104 -1.64187 0.789428 0.755861 -1.58503 
0.749722 0.757522 -1.5218 0.724934 0.757366 -1.45889 0.69428 0.751182 -1.39268 
0.671416 0.750792 -1.3298 0.642788 0.744362 -1.26364 0.631646 0.742553 -1.20101 
0.627976 0.733083 -1.13537 0.616834 0.731265 -1.07274 0.588205 0.724835 -1.00657 
0.565341 0.724445 -0.943695 0.53554 0.7249 -0.880672 0.51406 0.735608 -0.823034 
0.490218 0.747152 -0.764176 0.49891 0.753657 -0.696766 0.481101 0.72586 -0.51744 
0.417982 0.688631 -0.430927 0.349626 0.621974 -0.341575 0.243019 0.516324 -0.223768 
-0.0948922 0.489391 -0.0381788 -0.0271309 0.463343 -0.0180318 -0.337486 0.00502689 -0.657321 
-0.347666 0.00819825 -0.596983 -0.372169 -0.0113271 -0.522736 -0.362694 -0.0517879 -0.428226 
-0.253879 0.499442 0.931355 -0.27958 0.418137 0.910616 -0.278085 0.306552 0.901967 
-0.280868 0.20223 0.890243 -0.285365 0.13856 0.859571 -0.273793 0.126841 0.803259 
-0.231739 0.145112 0.73049 -0.176477 0.175257 0.651114 -0.119821 0.215922 0.566084 
-0.0687288 0.279046 0.460015 -0.0198164 0.35749 0.280069 -0.653247 0.118331 -0.0166411 
-0.623009 0.0686495 -0.0617081 -0.0650179 0.146826 -0.0848018 -0.142634 -0.00514484 -0.112813 
-0.180826 -0.0579503 -0.154757 -0.231163 -0.0741347 -0.219831 -0.503766 -0.0604405 -0.0104265 
-0.465103 -0.121551 0.0813643 -0.463711 -0.167487 0.166285 -0.473746 -0.194725 0.253089 
-0.38027 -0.0743056 -0.266557 -0.444587 -0.0611471 -0.235385 -0.50234 -0.038235 -0.1837 
3.59526 -0.653453 0.334652 3.5344 -0.697623 0.331588 3.47181 -0.756554 0.331778 
-0.146377 0.0882005 0.225753 -0.270119 -0.130444 0.367682 -0.351943 -0.208613 0.39712 
-0.368562 -0.327537 0.307116 3.13406 -1.12306 0.332001 1.2112 -1.17151 1.4208 
1.16733 -1.1848 1.38276 1.11281 -1.19019 1.35874 1.05544 -1.20099 1.32273 
0.99795 -1.21178 1.28672 0.94141 -1.21688 1.26283 
LINES 26 272
7 29 30 31 32 33 34 28 
15 27 35 36 37 38 39 40 41 42 43 44 45 46 47 26 
10 25 48 49 50 51 52 53 54 55 20 
4 24 56 57 19 
52 24 58 59 60 61 62 63 64 65 66 67 68 69 70 71 72 73 74 75 76 77 78 79 80 81 82 83 84 85 86 87 88 89 90 91 92 93 94 95 96 97 98 99 100 101 102 103 104 105 106 107 15 
5 24 108 109 110 20 
6 20 111 112 113 114 20 
5 23 115 116 117 19 
4 22 118 119 21 
13 22 120 121 122 123 124 125 126 127 128 129 130 16 
30 22 131 132 133 134 135 136 137 138 139 140 141 142 143 144 145 146 147 148 149 150 151 152 153 154 155 156 157 158 17 
3 20 159 19 
18 18 160 161 162 163 164 165 166 167 168 169 170 171 172 173 174 175 15 
6 15 176 177 178 179 7 
4 14 180 181 7 
6 13 182 183 184 185 9 
13 12 186 187 188 189 190 191 192 193 194 195 196 7 
4 11 197 198 10 
6 7 199 200 201 202 9 
6 10 203 204 205 206 5 
5 9 207 208 209 10 
5 8 210 211 212 6 
5 7 213 214 215 5 
3 5 216 4 
3 3 217 2 
8 1 218 219 220 221 222 223 0 

POINT_DATA 224
SCALARS DY_raw double
LOOKUP_TABLE default
111.743 58.8574 96.0101 94.7408 45.8337 47.0194 63.481 44.4217 44.4187 
29.1893 36.7897 39.2595 41.1416 52.4134 62.3793 40.3832 24.1065 32.3699 
40.609 59.2999 46.322 28.3652 19.025 85.1802 52.3171 20.5904 153.261 
181.872 109.682 173.399 175.939 127.178 140.5 112.748 109.682 210.131 
238.834 265.125 283.351 306.173 306.693 271.029 206.716 192.805 214.461 
200.715 187.349 158.116 27.4643 29.738 30.5107 36.9192 38.4565 37.6878 
36.1752 37.2252 62.2101 58.1086 45.2228 45.2228 44.9871 46.2985 46.2985 
50.9824 50.9824 49.1251 54.0352 54.0352 60.0248 65.389 65.389 51.5133 
57.8566 67.1086 88.4591 88.4591 112.258 113.888 113.888 112.076 112.271 
121.933 100.58 86.592 86.592 67.5717 63.8126 63.8126 43.2347 43.2347 
39.3553 43.3192 48.1292 55.4597 65.9121 65.9121 60.2269 58.846 54.0613 
54.0613 57.1249 47.6237 47.6237 47.2418 46.4743 45.142 45.0692 42.2251 
58.914 53.0245 49.9516 37.9766 40.3221 41.9811 38.2939 70.2625 59.0089 
52.3244 41.581 50.4507 16.7465 28.14 27.3817 24.1576 21.551 21.551 
23.2568 23.5914 12.9414 9.79492 0 10.7303 12.1096 17.9056 29.6443 
29.6443 41.783 44.4446 46.7835 46.0127 13.1575 27.4225 21.9163 19.5553 
20.4005 23.3132 27.4466 27.1393 22.9081 9.51978 8.14 8.14 14.5092 
25.3175 30.8421 31.0731 22.1236 20.4205 32.3699 45.7951 38.2438 42.0165 
37.2269 37.5397 42.2571 44.5044 50.4863 49.9507 60.5224 69.2434 67.6619 
61.7712 61.7712 60.306 47.3376 42.2936 36.8808 38.0799 37.3403 41.1464 
50.3116 46.436 53.0962 42.5364 36.9834 31.6505 43.3437 43.7715 34.7404 
33.1417 27.0634 26.4101 26.6951 35.2531 40.4302 45.1529 42.1603 43.8899 
41.9279 60.8669 51.1535 36.2118 29.4802 39.6464 39.6659 41.8175 45.0109 
26.7975 25.242 30.7608 52.9235 69.4087 73.989 59.8688 58.662 51.6047 
39.6759 107.63 62.9918 72.2344 62.7177 49.6141 58.0282 83.182 
FIELD FieldData 7
DY_minmax 1 224 double
0.364347 0.19191 0.31305 0.308911 0.149445 0.153311 0.206986 0.144841 0.144831 
0.0951744 0.119956 0.128009 0.134146 0.170899 0.203393 0.131673 0.0786014 0.105545 
0.132409 0.193353 0.151037 0.0924873 0.0620326 0.277738 0.170585 0.0671368 0.49972 
0.593011 0.357629 0.565382 0.573666 0.414674 0.458112 0.367623 0.357629 0.685152 
0.77874 0.864465 0.92389 0.998304 1 0.883714 0.674015 0.628659 0.699269 
0.65445 0.610867 0.51555 0.0895498 0.0969634 0.0994829 0.120378 0.125391 0.122885 
0.117953 0.121376 0.202842 0.189468 0.147453 0.147453 0.146685 0.15096 0.15096 
0.166233 0.166233 0.160177 0.176187 0.176187 0.195716 0.213207 0.213207 0.167964 
0.188647 0.218813 0.288429 0.288429 0.366028 0.371341 0.371341 0.365434 0.366069 
0.397572 0.327951 0.282341 0.282341 0.220323 0.208067 0.208067 0.140971 0.140971 
0.128321 0.141246 0.156929 0.180831 0.214912 0.214912 0.196375 0.191873 0.176272 
0.176272 0.186261 0.155281 0.155281 0.154036 0.151534 0.14719 0.146952 0.137679 
0.192094 0.172891 0.162872 0.123826 0.131474 0.136883 0.124861 0.229097 0.192404 
0.170608 0.135579 0.164499 0.0546034 0.091753 0.0892806 0.0787679 0.0702689 0.0702689 
0.0758308 0.076922 0.0421966 0.0319372 0 0.0349871 0.0394844 0.058383 0.096658 
0.096658 0.136237 0.144915 0.152542 0.150029 0.0429011 0.0894136 0.0714602 0.0637617 
0.0665178 0.0760149 0.0894922 0.08849 0.0746939 0.0310401 0.0265412 0.0265412 0.0473086 
0.0825501 0.100563 0.101317 0.0721359 0.0665828 0.105545 0.149319 0.124697 0.136999 
0.121382 0.122401 0.137783 0.14511 0.164615 0.162869 0.197339 0.225774 0.220618 
0.20141 0.20141 0.196633 0.154349 0.137902 0.120253 0.124163 0.121751 0.134162 
0.164045 0.151409 0.173125 0.138694 0.120588 0.103199 0.141326 0.142721 0.113274 
0.108062 0.0882425 0.0861125 0.0870417 0.114946 0.131826 0.147225 0.137467 0.143107 
0.13671 0.198462 0.166791 0.118072 0.0961229 0.129271 0.129334 0.13635 0.146762 
0.0873758 0.0823039 0.100298 0.172562 0.226313 0.241248 0.195208 0.191273 0.168262 
0.129367 0.350939 0.20539 0.235527 0.204497 0.161771 0.189206 0.271222 
WidthEq 1 224 double
1.47974 1.52266 1.19925 1.36372 5.36134 6.8527 1.44516 10.0212 2.14121 
6.93336 5.85951 3.75654 5.68452 3.38768 7.70416 5.30789 1.49254 1.46587 
6.17425 3.99731 6.03839 1.20429 1.31143 2.60131 5.44564 3.2656 2.0914 
1.66793 2.36365 1.78254 1.79374 2.27634 2.03524 2.37034 2.36365 1.64921 
1.51611 1.3368 1.21884 1.16927 1.23077 1.37856 1.82221 1.97349 1.78074 
1.98087 2.07554 2.31932 4.76947 4.88466 5.23849 5.37119 5.19808 5.6769 
5.80757 6.04591 5.12955 5.11301 5.35814 5.35814 5.25862 5.13581 5.13581 
4.94582 4.94582 5.00437 4.29924 4.29924 3.83342 3.33787 3.33787 2.99884 
2.73469 2.7375 2.33057 2.33057 2.00832 1.73583 1.73583 1.75863 1.84278 
1.7271 2.27838 2.93549 2.93549 4.05347 4.35259 4.35259 5.28325 5.28325 
5.19702 4.61227 4.2681 4.11109 3.58887 3.58887 3.57863 3.55079 3.7968 
3.7968 3.66478 3.93901 3.93901 4.07986 4.41642 4.67081 4.91289 5.22083 
5.44234 5.47765 5.72715 5.09182 4.25796 4.19379 5.0324 3.46785 4.12836 
4.66742 1.58101 1.41227 1.33879 1 1.26836 1.38797 1.48532 1.48532 
1.86698 1.58998 1.6737 1.79583 1.45825 1.66351 1.71352 1.71119 1.92077 
1.92077 2.0056 2.42369 2.31578 2.26698 2.36748 2.3911 2.89373 3.23136 
3.23325 3.60997 3.39787 2.96508 2.48253 2.20698 2.04668 2.04668 1.96496 
1.88328 1.73821 1.52383 1.50292 1.48968 1.46587 5.86504 7.13134 6.72664 
6.95412 6.32664 5.93013 4.96581 4.64918 4.51265 3.71284 3.44986 3.61045 
3.43672 3.43672 3.78768 4.41171 4.91871 5.7092 5.49739 6.17376 7.01154 
9.21855 10.0571 3.36333 5.07988 5.87101 6.42297 5.46931 6.52046 8.38678 
8.23856 10.0054 9.87426 9.98911 9.02871 9.06674 9.3839 10.6121 3.73389 
4.94039 8.23584 7.47887 7.2526 7.157 6.43262 6.47937 6.34041 6.28958 
6.94616 7.07154 6.30413 2.01574 1.69417 1.62835 8.23735 7.63305 7.32511 
6.5289 1.32016 1.51893 1.7871 2.08442 2.14999 2.12914 1.7838 
rRFP 1 224 double
2558.85 2567.7 2501.02 2534.93 3359.14 3666.62 2551.72 4319.89 2695.23 
3683.25 3461.85 3028.27 3425.77 2952.22 3842.17 3348.12 2561.49 2555.99 
3526.74 3077.91 3498.73 2502.06 2524.15 2790.09 3376.52 2927.05 2684.96 
2597.65 2741.09 2621.28 2623.59 2723.09 2673.38 2742.47 2741.09 2593.79 
2566.35 2529.38 2505.06 2494.84 2507.52 2537.99 2629.46 2660.65 2620.91 
2662.17 2681.69 2731.95 3237.11 3260.86 3333.81 3361.17 3325.48 3424.2 
3451.14 3500.28 3311.35 3307.94 3358.48 3358.48 3337.96 3312.64 3312.64 
3273.47 3273.47 3285.54 3140.16 3140.16 3044.12 2941.95 2941.95 2872.05 
2817.59 2818.17 2734.27 2734.27 2667.83 2611.65 2611.65 2616.35 2633.7 
2609.85 2723.51 2858.99 2858.99 3089.49 3151.16 3151.16 3343.04 3343.04 
3325.26 3204.7 3133.74 3101.37 2993.7 2993.7 2991.59 2985.85 3036.57 
3036.57 3009.35 3065.89 3065.89 3094.93 3164.32 3216.77 3266.68 3330.17 
3375.84 3383.12 3434.56 3303.57 3131.65 3118.42 3291.32 2968.75 3104.93 
3216.07 2579.73 2544.94 2529.79 2459.94 2515.27 2539.93 2560 2560 
2638.69 2581.58 2598.84 2624.02 2554.42 2596.74 2607.05 2606.57 2649.78 
2649.78 2667.27 2753.47 2731.22 2721.16 2741.88 2746.75 2850.38 2919.99 
2920.38 2998.05 2954.32 2865.09 2765.6 2708.79 2675.74 2675.74 2658.89 
2642.05 2612.14 2567.94 2563.63 2560.9 2555.99 3462.99 3724.07 3640.63 
3687.53 3558.16 3476.41 3277.59 3212.31 3184.16 3019.26 2965.04 2998.15 
2962.33 2962.33 3034.69 3163.35 3267.88 3430.86 3387.19 3526.64 3699.37 
4154.4 4327.28 2947.2 3301.11 3464.22 3578.02 3381.4 3598.12 3982.91 
3952.35 4316.63 4289.59 4313.27 4115.26 4123.1 4188.49 4441.72 3023.6 
3272.35 3951.79 3795.72 3749.07 3729.36 3580.01 3589.65 3561 3550.52 
3685.89 3711.74 3553.52 2669.36 2603.06 2589.49 3952.1 3827.51 3764.02 
3599.86 2525.95 2566.93 2622.22 2683.52 2697.04 2692.74 2621.54 
rGFP 1 224 double
2656.2 2580.47 2605.99 2620.05 2736.58 2813.06 2582.59 2936.01 2585.96 
2693.23 2706.42 2638.33 2724.72 2668.41 2971.43 2705.2 2526.83 2538.3 
2741.58 2727.89 2770.56 2525.01 2515.8 2712.43 2775.75 2558.09 2811.38 
2794.2 2750.1 2799.94 2806.44 2780.35 2776.8 2758.1 2750.1 2837.4 
2852.95 2845.27 2836.21 2848.85 2868.32 2864.48 2867.53 2871.35 2872.75 
2888.44 2879.7 2857.57 2621.84 2636.11 2650.68 2689.15 2690.75 2704.8 
2700.94 2715.91 2809.96 2787.96 2733.16 2733.16 2727.42 2728.63 2728.63 
2743 2743 2736.69 2723.16 2723.16 2720.95 2709.11 2709.11 2645.33 
2649.07 2674.56 2697.01 2697.01 2716.3 2688.54 2688.54 2687.95 2697.74 
2701.44 2720.01 2745.04 2745.04 2764.75 2768.6 2768.6 2719.27 2719.27 
2695.38 2690.65 2696.27 2718.85 2727.4 2727.4 2706.38 2699.8 2696.11 
2696.11 2700.2 2678.44 2678.44 2683.59 2696.1 2701.7 2712.27 2711.3 
2811.48 2781.3 2776.93 2684.22 2662.54 2666.91 2683.56 2734.51 2734.46 
2735.07 2556.59 2562.1 2513.27 2518.99 2525.58 2524.38 2522.86 2522.86 
2534.27 2528.36 2512.51 2508.44 2490.85 2508.7 2511.6 2521.49 2547.79 
2547.79 2574.65 2598.57 2599.19 2595.16 2522 2556.42 2554.27 2554.04 
2556.81 2575.01 2584.11 2571.32 2547.72 2511.86 2507.51 2507.51 2519.36 
2538.53 2544.46 2538.2 2524.1 2521.27 2538.3 2759.44 2763.58 2773.48 
2749.73 2728.35 2741.44 2711.85 2725.57 2716.26 2715.56 2729.73 2735.14 
2703.14 2703.14 2719.27 2699.69 2698.88 2701.41 2700.19 2721.38 2779.35 
2954.65 2957.86 2669.43 2706.93 2707.98 2694.14 2727.91 2776.26 2782.21 
2763.89 2761.63 2751.63 2757.51 2809.14 2857.42 2914.56 2938.26 2654.73 
2697.99 2992.14 2873.42 2753.48 2701.84 2745.88 2747.86 2755.99 2773.95 
2676.99 2669.35 2684.77 2597.53 2608.44 2611.33 2984.01 2938.62 2868.86 
2749.89 2632.94 2586.53 2619.94 2621.58 2597.52 2614.4 2639.23 
bkstRFP 1 224 double
305.085 313.935 247.255 281.165 1105.38 1412.86 297.955 2066.13 441.465 
1429.49 1208.09 774.505 1172.01 698.455 1588.41 1094.36 307.725 302.225 
1272.97 824.145 1244.97 248.295 270.385 536.325 1122.76 673.285 431.195 
343.885 487.325 367.515 369.825 469.325 419.615 488.705 487.325 340.025 
312.585 275.615 251.295 241.075 253.755 284.225 375.695 406.885 367.145 
408.405 427.925 478.185 983.345 1007.1 1080.05 1107.41 1071.72 1170.43 
1197.38 1246.52 1057.59 1054.18 1104.72 1104.72 1084.2 1058.88 1058.88 
1019.7 1019.7 1031.78 886.395 886.395 790.355 688.185 688.185 618.285 
563.825 564.405 480.505 480.505 414.065 357.885 357.885 362.585 379.935 
356.085 469.745 605.225 605.225 835.725 897.395 897.395 1089.28 1089.28 
1071.5 950.935 879.975 847.605 739.935 739.935 737.825 732.085 782.805 
782.805 755.585 812.125 812.125 841.165 910.555 963.005 1012.92 1076.41 
1122.08 1129.36 1180.8 1049.81 877.885 864.655 1037.56 714.985 851.165 
962.305 325.965 291.175 276.025 206.175 261.505 286.165 306.235 306.235 
384.925 327.815 345.075 370.255 300.655 342.975 353.285 352.805 396.015 
396.015 413.505 499.705 477.455 467.395 488.115 492.985 596.615 666.225 
666.615 744.285 700.555 611.325 511.835 455.025 421.975 421.975 405.125 
388.285 358.375 314.175 309.865 307.135 302.225 1209.22 1470.31 1386.87 
1433.77 1304.4 1222.65 1023.83 958.545 930.395 765.495 711.275 744.385 
708.565 708.565 780.925 909.585 1014.12 1177.1 1133.43 1272.88 1445.61 
1900.63 2073.51 693.435 1047.35 1210.45 1324.26 1127.64 1344.36 1729.15 
1698.59 2062.87 2035.83 2059.51 1861.5 1869.34 1934.72 2187.96 769.835 
1018.59 1698.03 1541.95 1495.31 1475.6 1326.25 1335.89 1307.24 1296.76 
1432.13 1457.97 1299.76 415.595 349.295 335.725 1698.34 1573.75 1510.26 
1346.1 272.185 313.165 368.455 429.755 443.275 438.975 367.775 
bkstGFP 1 224 double
165.35 89.62 115.14 129.2 245.73 322.21 91.74 445.16 95.11 
202.38 215.57 147.48 233.87 177.56 480.58 214.35 35.98 47.45 
250.73 237.04 279.71 34.16 24.95 221.58 284.9 67.24 320.53 
303.35 259.25 309.09 315.59 289.5 285.95 267.25 259.25 346.55 
362.1 354.42 345.36 358 377.47 373.63 376.68 380.5 381.9 
397.59 388.85 366.72 130.99 145.26 159.83 198.3 199.9 213.95 
210.09 225.06 319.11 297.11 242.31 242.31 236.57 237.78 237.78 
252.15 252.15 245.84 232.31 232.31 230.1 218.26 218.26 154.48 
158.22 183.71 206.16 206.16 225.45 197.69 197.69 197.1 206.89 
210.59 229.16 254.19 254.19 273.9 277.75 277.75 228.42 228.42 
204.53 199.8 205.42 228 236.55 236.55 215.53 208.95 205.26 
205.26 209.35 187.59 187.59 192.74 205.25 210.85 221.42 220.45 
320.63 290.45 286.08 193.37 171.69 176.06 192.71 243.66 243.61 
244.22 65.74 71.25 22.42 28.14 34.73 33.53 32.01 32.01 
43.42 37.51 21.66 17.59 0 17.85 20.75 30.64 56.94 
56.94 83.8 107.72 108.34 104.31 31.15 65.57 63.42 63.19 
65.96 84.16 93.26 80.47 56.87 21.01 16.66 16.66 28.51 
47.68 53.61 47.35 33.25 30.42 47.45 268.59 272.73 282.63 
258.88 237.5 250.59 221 234.72 225.41 224.71 238.88 244.29 
212.29 212.29 228.42 208.84 208.03 210.56 209.34 230.53 288.5 
463.8 467.01 178.58 216.08 217.13 203.29 237.06 285.41 291.36 
273.04 270.78 260.78 266.66 318.29 366.57 423.71 447.41 163.88 
207.14 501.29 382.57 262.63 210.99 255.03 257.01 265.14 283.1 
186.14 178.5 193.92 106.68 117.59 120.48 493.16 447.77 378.01 
259.04 142.09 95.68 129.09 130.73 106.67 123.55 148.38 
tubeWidth 1 224 double
0.157402 0.0182778 0.100497 0.108075 0.0959902 0.224746 0.109278 0.227081 0.190559 
0.157397 0.241264 0.111197 0.143289 0.219288 0.0195847 0.173239 0.106195 0.127877 
0.302924 0.199396 0.250175 0.123693 0.120218 0.231188 0.103713 0.229626 0.203094 
0.141807 0.137734 0.167998 0.186662 0.177122 0.20615 0.198108 0.179368 0.13823 
0.117686 0.090163 0.0588234 0.0972507 0.150244 0.100638 0.112492 0.151106 0.20373 
0.17039 0.167117 0.204363 0.264882 0.285244 0.24949 0.251154 0.248856 0.178961 
0.211437 0.234086 0.118854 0.118168 0.108508 0.211169 0.289106 0.287482 0.286608 
0.2897 0.304217 0.30415 0.276415 0.248122 0.223276 0.22396 0.214688 0.201085 
0.205269 0.240432 0.223252 0.187389 0.183859 0.139645 0.126667 0.172978 0.178181 
0.152185 0.124602 0.184017 0.228797 0.266511 0.294337 0.297006 0.282437 0.283695 
0.314955 0.286253 0.23759 0.215311 0.193545 0.1809 0.197352 0.24882 0.255915 
0.217642 0.208582 0.212977 0.217915 0.201233 0.134353 0.157605 0.18277 0.135855 
0.101351 0.195805 0.180947 0.0807191 0.0845663 0.0879952 0.141114 0.250109 0.242243 
0.211322 0.224929 0.172831 0.174827 0.08247 0.0818923 0.104648 0.144043 0.172495 
0.193362 0.166086 0.176966 0.186843 0.174178 0.131477 0.117503 0.156307 0.161052 
0.214481 0.193261 0.198525 0.201577 0.213751 0.210344 0.178697 0.21936 0.208702 
0.194033 0.176749 0.242377 0.26359 0.203939 0.159739 0.0845867 0.101174 0.184369 
0.188437 0.180616 0.194131 0.209694 0.201094 0.166647 0.239839 0.376659 0.360961 
0.351772 0.336456 0.271555 0.231729 0.236286 0.224481 0.232483 0.230742 0.190792 
0.159591 0.173337 0.153051 0.156109 0.170637 0.266066 0.22783 0.224548 0.221709 
0.0929306 0.113187 0.283433 0.303988 0.285056 0.327594 0.235249 0.286336 0.260411 
0.267792 0.269027 0.266291 0.276666 0.200571 0.210116 0.199805 0.300944 0.161735 
0.21702 0.226173 0.172248 0.224447 0.184706 0.167843 0.193364 0.224781 0.214981 
0.156542 0.145398 0.174475 0.207294 0.224045 0.204328 0.12106 0.209972 0.178275 
0.145866 0.141865 0.105551 0.119791 0.13039 0.13574 0.186189 0.174697 
