# vtk DataFile Version 3.0
vtk output
ASCII
DATASET POLYDATA
POINTS 531 float
3.32491 0.961242 1.67707 2.11457 -0.880991 1.36583 3.81468 1.36173 1.24903 
8.33469 0.329895 1.61453 0.816569 -0.433114 0.881266 7.66234 -0.257786 1.35883 
6.5472 -0.0832518 1.08349 6.51236 -0.350913 0.876682 8.33904 -0.848707 1.01848 
6.60004 -0.495546 0.680162 8.55264 -1.25779 0.489502 8.23801 -0.0570734 0.822464 
6.00044 -0.492933 0.438093 8.76709 0.0324199 0.537447 8.42027 -1.37431 0.3927 
8.93013 -0.0942104 0.379833 5.16768 0.619202 -0.00454276 9.30996 -0.361845 -0.0803864 
8.99656 -1.05481 -0.09734 -0.398012 -0.213795 -0.803843 0.97888 -1.39175 -0.859075 
7.45713 -1.5855 -0.412369 8.87621 0.50373 -0.149893 8.94968 0.602141 -0.143366 
5.97121 -0.281737 -0.563377 8.79179 0.580364 -0.355139 9.18555 -0.206467 -0.339244 
-0.273507 0.702029 -1.18291 -0.0505201 0.984834 -1.30486 1.64389 -1.65812 -1.08414 
0.632553 1.95675 -1.10181 6.23086 -0.777848 -1.10395 6.03825 -0.937076 -1.16975 
8.38513 0.923014 -1.35489 6.40777 0.224803 -1.52824 8.27163 0.914304 -1.38889 
8.44354 0.816006 -1.37839 4.97414 0.054872 -1.83069 7.39236 0.28023 -1.86012 
7.63756 0.403314 -1.84132 0.26511 0.697922 -2.54911 2.44692 2.1008 -2.37734 
7.45506 0.430715 -2.05408 2.73075 2.05464 -2.55881 7.37065 0.50735 -2.25933 
1.41156 0.215243 -3.07807 3.51093 0.342077 -3.13106 1.97886 0.368852 -3.43748 
2.93823 0.0701979 -3.4495 3.42579 0.910594 -3.32921 2.87667 -0.0459418 -3.58171 
2.91385 0.0179737 -3.51136 3.44761 0.970122 -3.20059 3.47469 1.01709 -3.08664 
3.48637 1.0728 -3.00333 3.47158 1.1258 -2.95161 3.44953 1.17644 -2.93754 
3.43667 1.23121 -2.9525 3.43928 1.29315 -2.99597 3.42838 1.34831 -3.04049 
3.40713 1.39872 -3.0635 3.38228 1.44838 -3.0348 3.3642 1.50204 -2.97587 
3.35903 1.56232 -2.90853 3.34127 1.61554 -2.87928 3.30766 1.66019 -2.88096 
3.25882 1.69676 -2.9061 3.21346 1.73537 -2.91611 3.16186 1.7713 -2.90431 
3.12163 1.81354 -2.86194 3.07926 1.85485 -2.81229 3.01448 1.88491 -2.76437 
2.94129 1.9106 -2.72452 2.87488 1.93984 -2.67673 2.82359 1.97668 -2.62776 
2.76985 2.01214 -2.58642 2.87051 0.121073 -3.41634 2.8069 0.165573 -3.42011 
2.74509 0.198057 -3.46105 2.6872 0.229633 -3.5166 2.64035 0.266896 -3.55643 
2.57733 0.296791 -3.56037 2.50294 0.321728 -3.52804 2.42752 0.346449 -3.48093 
2.36142 0.375701 -3.44054 2.31043 0.411961 -3.42127 2.24776 0.440023 -3.41779 
2.18126 0.454592 -3.42219 2.1216 0.451448 -3.42637 2.06487 0.442192 -3.43045 
2.02261 0.404038 -3.43393 3.54776 0.299636 -3.09941 3.60598 0.268229 -3.05128 
3.67422 0.242005 -2.99493 3.74469 0.216751 -2.94586 3.81675 0.191968 -2.91894 
3.88903 0.169026 -2.90683 3.95734 0.155132 -2.90229 4.01883 0.154866 -2.89803 
4.08576 0.142591 -2.88614 4.15163 0.130191 -2.85947 4.20917 0.131024 -2.81091 
4.26805 0.126922 -2.74748 4.32406 0.127433 -2.67675 4.38685 0.114389 -2.60574 
4.45019 0.101363 -2.54213 4.50809 0.100354 -2.48615 4.57333 0.085808 -2.43728 
4.64201 0.0621149 -2.37345 4.71044 0.0366784 -2.2948 4.77651 0.0125474 -2.19404 
4.83725 -0.000925661 -2.09348 4.88587 0.00981382 -1.99342 4.93018 0.0314261 -1.90833 
1.35545 0.20499 -3.08211 1.28973 0.218021 -3.08648 1.22772 0.246142 -3.09038 
1.17998 0.283588 -3.09315 1.12769 0.318868 -3.09626 1.08162 0.357276 -3.0989 
1.02891 0.392497 -3.09462 0.981315 0.430584 -3.07509 0.925943 0.465219 -3.03388 
0.874571 0.502012 -2.98492 0.80806 0.531206 -2.93713 0.73264 0.555928 -2.89003 
0.655683 0.580327 -2.82076 0.586006 0.608832 -2.72863 0.529819 0.644109 -2.63548 
0.462242 0.672945 -2.57292 0.389175 0.696115 -2.54795 0.321313 0.708225 -2.54506 
7.40277 0.463894 -2.16119 2.65134 2.07598 -2.46747 2.57841 2.08891 -2.40552 
2.51488 2.08874 -2.38022 2.74281 2.12372 -2.3639 2.76113 2.18254 -2.18355 
2.7928 2.21923 -2.0323 2.82739 2.25462 -1.91057 2.85919 2.30237 -1.83341 
2.9012 2.33538 -1.79288 2.95419 2.35096 -1.78155 3.01376 2.35115 -1.75514 
3.06506 2.36445 -1.70683 3.11091 2.38639 -1.64392 3.15835 2.40855 -1.60318 
3.21154 2.42034 -1.56961 3.27551 2.40946 -1.5282 3.33774 2.39641 -1.44981 
3.39216 2.39669 -1.35692 3.44704 2.39377 -1.24919 3.49485 2.40614 -1.14916 
3.539 2.42581 -1.04927 3.5887 2.43667 -0.963974 3.65046 2.42341 -0.878197 
3.71643 2.39923 -0.777438 3.7796 2.37208 -0.647203 3.83226 2.33999 -0.495493 
3.87031 2.3004 -0.352335 3.91389 2.2633 -0.223614 3.95216 2.22323 -0.110141 
3.99433 2.18527 0.011041 4.01923 2.13879 0.13834 4.02556 2.08326 0.271637 
4.01422 2.0209 0.403619 4.00118 1.96887 0.535623 3.96665 1.92284 0.658804 
3.93091 1.85896 0.766786 3.89966 1.7857 0.852667 3.87188 1.71185 0.923922 
3.85519 1.64329 0.988605 3.86106 1.58596 1.05253 3.86666 1.52778 1.11644 
3.84792 1.45303 1.18089 7.42397 0.355526 -1.96079 7.52313 0.407112 -1.98286 
7.58597 0.393978 -1.91187 8.41841 0.871784 -1.36076 8.32726 0.931305 -1.36622 
6.3957 0.157213 -1.53006 6.3956 0.0956295 -1.53096 6.38352 0.0280389 -1.53278 
6.37145 -0.0395514 -1.5346 6.37135 -0.101135 -1.5355 6.35927 -0.168726 -1.53732 
6.34729 -0.236271 -1.53913 6.34891 -0.296987 -1.5399 6.34747 -0.359242 -1.5409 
6.35902 -0.414824 -1.53348 6.36792 -0.47144 -1.51141 6.35208 -0.53983 -1.45967 
6.32241 -0.614455 -1.3737 6.28306 -0.693153 -1.24947 6.30614 -0.845693 -1.12384 
6.37924 -0.886375 -1.13607 6.44268 -0.918492 -1.13956 6.49051 -0.956175 -1.13865 
6.54117 -0.992274 -1.13565 6.57822 -1.0352 -1.13371 6.61528 -1.07813 -1.13176 
6.66576 -1.11432 -1.12878 6.7099 -1.15369 -1.12629 6.74974 -1.19523 -1.12413 
6.76094 -1.25114 -1.12416 6.77664 -1.30478 -1.12385 6.79972 -1.35473 -1.12298 
6.82596 -1.40309 -1.12186 6.8612 -1.44693 -1.12005 6.91004 -1.48394 -1.1172 
6.94655 -1.52688 -1.10786 6.98293 -1.56753 -1.08365 7.03525 -1.58829 -1.02834 
7.08893 -1.58881 -0.950359 7.14479 -1.59166 -0.857421 7.19449 -1.5808 -0.77212 
7.24537 -1.57141 -0.691721 7.30813 -1.58287 -0.610801 7.37882 -1.59449 -0.516952 
6.18354 -0.845706 -1.13235 6.13568 -0.885575 -1.15296 6.08716 -0.912365 -1.16414 
6.12778 -0.722376 -1.00819 6.06127 -0.676815 -0.917454 6.00375 -0.640373 -0.84666 
5.96485 -0.597233 -0.798607 5.93708 -0.549197 -0.777561 5.91368 -0.499259 -0.77103 
5.90106 -0.44404 -0.763676 5.9119 -0.378748 -0.732271 5.9361 -0.319225 -0.6629 
0.112271 1.1603 -1.35654 0.201614 1.24047 -1.38368 0.250269 1.28534 -1.38097 
0.280719 1.34505 -1.35789 0.309861 1.40603 -1.3327 0.344402 1.45509 -1.29989 
0.371139 1.51748 -1.25258 0.393706 1.58707 -1.19801 0.420492 1.64937 -1.1507 
0.456365 1.6969 -1.12524 0.490998 1.74917 -1.11465 0.529271 1.7953 -1.11132 
0.564418 1.84768 -1.10812 0.601873 1.89545 -1.10483 -0.0160525 1.1428 -1.17786 
-0.0338347 1.17699 -1.12269 -0.0579369 1.12193 -1.17364 -0.0881986 0.797476 -1.398 
-0.135396 0.716537 -1.41468 -0.196419 0.694458 -1.33143 1.57034 -1.63351 -1.08888 
1.49841 -1.60809 -1.09351 1.43539 -1.5782 -1.09744 1.38589 -1.54151 -1.10035 
1.32287 -1.51162 -1.10429 1.2502 -1.48629 -1.09906 1.17269 -1.46135 -1.06447 
1.08463 -1.43188 -0.981042 -0.182966 0.867104 -1.1882 -0.245904 0.777663 -1.14669 
-0.297838 0.628286 -1.18567 -0.320547 0.555355 -1.1883 -0.333737 0.487053 -1.19764 
-0.330161 0.426717 -1.22797 -0.326982 0.365432 -1.29547 -0.308163 0.311398 -1.39149 
-0.289335 0.257368 -1.48751 -0.286677 0.195971 -1.54762 -0.285152 0.135206 -1.5484 
-0.303469 0.065831 -1.48384 -0.334797 -0.00887422 -1.36085 -0.369102 -0.0841742 -1.19353 
-0.394503 -0.154554 -1.00324 9.16579 -0.263576 -0.512242 9.13412 -0.300263 -0.663494 
9.10091 -0.337272 -0.792572 9.07655 -0.395347 -0.899077 9.05162 -0.453431 -0.998182 
9.01396 -0.489466 -1.07558 8.9708 -0.516774 -1.13838 8.93027 -0.551601 -1.18625 
8.8978 -0.601406 -1.24121 8.86357 -0.646578 -1.30365 8.83248 -0.698001 -1.36596 
8.79723 -0.743388 -1.41363 8.76225 -0.793828 -1.43164 8.71894 -0.831034 -1.42775 
8.67461 -0.868455 -1.4091 8.63758 -0.919323 -1.39756 8.59869 -0.965363 -1.3935 
8.56263 -1.01592 -1.39673 8.51903 -1.05139 -1.40027 8.47135 -1.07961 -1.39656 
8.42823 -1.11629 -1.37038 8.40214 -1.1715 -1.29874 8.38649 -1.22058 -1.18172 
8.34454 -1.25429 -1.04403 8.28993 -1.28159 -0.929398 8.23534 -1.30734 -0.851875 
8.18185 -1.33098 -0.80395 8.12389 -1.34569 -0.756206 8.05919 -1.34694 -0.708723 
8.00312 -1.36316 -0.675726 7.9585 -1.39661 -0.679308 7.92323 -1.44307 -0.719554 
7.87773 -1.46685 -0.775046 7.81966 -1.46662 -0.823624 7.76153 -1.46969 -0.849978 
7.69946 -1.46827 -0.854264 7.64198 -1.48101 -0.826257 7.58155 -1.4972 -0.746525 
7.51419 -1.51815 -0.602991 9.12984 -0.16675 -0.117279 9.04337 -0.133334 0.12227 
9.24272 -0.239842 -0.276353 9.28261 -0.290087 -0.185202 8.82391 0.536909 -0.257 
0.889783 -1.36447 -1.06042 0.816949 -1.33951 -1.21362 0.752927 -1.32439 -1.30201 
0.693536 -1.32357 -1.3383 0.626345 -1.3094 -1.35761 0.556818 -1.28538 -1.38436 
0.496508 -1.255 -1.42524 0.450865 -1.21698 -1.45756 0.400202 -1.18088 -1.46055 
0.361095 -1.13839 -1.43294 0.321563 -1.09595 -1.39793 0.271181 -1.05926 -1.37862 
0.235332 -1.01557 -1.37305 0.207182 -0.968173 -1.37431 0.169603 -0.925356 -1.36887 
0.108593 -0.894002 -1.35037 0.0444135 -0.863788 -1.30983 -0.00686081 -0.826945 -1.26087 
-0.062232 -0.79231 -1.21965 -0.109734 -0.754174 -1.20012 -0.160722 -0.718089 -1.19571 
-0.196059 -0.674297 -1.19752 -0.222389 -0.625983 -1.19865 -0.247097 -0.576856 -1.19965 
-0.271707 -0.527679 -1.20064 -0.296317 -0.478502 -1.20163 -0.321341 -0.429383 -1.19523 
-0.346281 -0.379771 -1.16654 -0.365389 -0.326332 -1.09283 -0.37448 -0.266814 -0.966349 
8.91813 0.542564 -0.14642 8.85542 0.434315 -0.026097 8.84762 0.371122 0.0838327 
8.82912 0.302056 0.174368 8.80993 0.230561 0.26854 8.7983 0.150164 0.389092 
9.05647 -1.0083 0.00154809 9.10548 -0.976604 0.0945223 9.14956 -0.949984 0.169757 
9.18939 -0.913476 0.215127 9.21825 -0.853077 0.218007 9.2338 -0.786774 0.182925 
9.2271 -0.729778 0.131298 9.21984 -0.672792 0.0870706 9.23351 -0.604817 0.0667308 
9.25853 -0.53055 0.0472698 9.28882 -0.449761 0.00598329 8.92412 -1.03636 -0.267953 
8.86941 -1.04522 -0.36841 8.81817 -1.06978 -0.356763 8.76036 -1.10926 -0.202571 
8.6818 -1.17629 0.0944038 7.49525 -1.65358 -0.242391 7.53134 -1.70463 -0.106964 
7.58721 -1.73762 -0.00950109 7.6538 -1.76234 0.0591215 7.71889 -1.77684 0.107979 
7.77797 -1.77569 0.134371 7.83953 -1.77721 0.146049 7.89344 -1.76345 0.157418 
7.9418 -1.74088 0.183378 7.98781 -1.71701 0.231469 8.03326 -1.69314 0.28696 
8.07923 -1.66917 0.335048 8.12724 -1.64477 0.353592 8.17731 -1.61994 0.342569 
8.22886 -1.59469 0.30938 8.27909 -1.56791 0.28355 8.32274 -1.53254 0.287093 
8.35671 -1.48233 0.319883 8.39165 -1.43519 0.360125 0.976938 -1.31145 -0.600609 
0.949631 -1.25396 -0.378891 0.904795 -1.21078 -0.213053 0.84589 -1.17627 -0.0928698 
0.794285 -1.13899 -0.0142247 0.737987 -1.10452 0.0417781 0.688434 -1.06682 0.0908678 
0.633255 -1.03163 0.154387 0.590964 -0.989833 0.226316 0.548076 -0.948631 0.283347 
0.484319 -0.918354 0.316496 0.412257 -0.892398 0.341576 0.34859 -0.862077 0.374722 
0.308969 -0.819684 0.409721 0.281416 -0.771685 0.423364 0.2555 -0.723313 0.414839 
0.222216 -0.679091 0.383468 0.173278 -0.642577 0.358327 0.128852 -0.603797 0.333521 
0.0770697 -0.568411 0.323024 0.0309235 -0.530495 0.298086 -0.0286425 -0.499315 0.27213 
-0.0856494 -0.467151 0.231509 -0.12136 -0.424447 0.1851 -0.154507 -0.381206 0.101743 
-0.205874 -0.347862 -0.0201546 -0.256715 -0.314853 -0.171725 -0.294106 -0.275217 -0.322265 
-0.335331 -0.239664 -0.473121 -0.366057 -0.212214 -0.630805 8.96006 -1.15797 0.0595216 
8.91975 -1.2296 0.17768 8.85858 -1.25818 0.26496 8.74535 -1.25712 0.364979 
5.09352 0.643655 -0.00190499 5.01577 0.667356 0.0524528 4.93443 0.690306 0.158531 
4.85258 0.71315 0.272 4.77245 0.736409 0.36331 4.69722 0.761677 0.432723 
4.64246 0.796917 0.488843 4.62413 0.850298 0.540327 4.59289 0.897049 0.58339 
4.53155 0.928839 0.631576 4.46869 0.959862 0.679655 4.42855 1.00214 0.722035 
4.39843 1.04916 0.750333 4.36268 1.09334 0.778197 4.31972 1.13408 0.82036 
4.29343 1.18131 0.871212 4.24299 1.20523 0.920039 4.18355 1.20754 0.9605 
4.12247 1.22612 1.00851 4.06983 1.26029 1.06229 4.0012 1.29007 1.12232 
3.91641 1.32072 1.18372 8.9248 -0.0191979 0.461004 8.8648 0.0185079 0.513088 
8.83228 -0.0477566 0.456646 8.67126 -0.0147096 0.578384 8.60442 -0.0474631 0.606684 
8.55069 -0.0718221 0.624878 8.49436 -0.0861164 0.646757 8.4292 -0.0854163 0.686797 
8.36477 -0.0887624 0.734268 8.29424 -0.0806369 0.781472 8.48898 -1.35112 0.431749 
8.39875 -1.32739 0.467207 8.42561 -1.28612 0.498311 6.03152 -0.433561 0.44854 
6.07287 -0.396972 0.474217 6.11878 -0.3729 0.522304 6.169 -0.359702 0.585389 
6.22559 -0.360353 0.656143 6.2757 -0.349202 0.734039 6.32586 -0.33814 0.811945 
6.38387 -0.340508 0.875346 6.44342 -0.339157 0.894345 8.22266 0.00631182 0.881728 
8.19342 0.0602468 0.954749 8.14186 0.0988749 1.04826 8.11262 0.147498 1.14348 
8.118 0.209227 1.24128 8.14697 0.257836 1.31827 8.19767 0.269832 1.38137 
8.24754 0.284855 1.43703 8.29227 0.306771 1.5147 8.42955 -1.11416 0.664461 
8.38406 -1.02261 0.812209 8.36057 -0.963543 0.910104 8.34637 -0.907458 0.973583 
6.60572 -0.430413 0.718636 6.5765 -0.382201 0.784136 8.29059 -0.81045 1.06765 
8.24902 -0.768733 1.11736 8.21838 -0.721534 1.1679 8.19055 -0.673073 1.21123 
8.16226 -0.624696 1.26195 8.13234 -0.577134 1.31255 8.09402 -0.533936 1.35507 
8.04322 -0.497309 1.38178 8.00644 -0.453789 1.40214 7.97848 -0.405847 1.42317 
7.95153 -0.357691 1.42943 7.91671 -0.31379 1.42022 7.86773 -0.277419 1.39508 
7.82198 -0.24144 1.37758 7.76581 -0.22387 1.36651 7.71225 -0.235141 1.36263 
6.53003 -0.278563 0.9755 6.54803 -0.206648 1.04462 6.55805 -0.139487 1.076 
0.849533 -0.476897 0.942326 0.897534 -0.513582 0.982257 0.943499 -0.552039 0.984888 
0.997844 -0.58689 0.958448 1.04819 -0.623897 0.924271 1.11204 -0.653677 0.913412 
1.18122 -0.680179 0.932685 1.24107 -0.710767 0.980945 1.28698 -0.748199 1.03558 
1.34688 -0.778639 1.08384 1.41641 -0.80266 1.11059 1.48411 -0.81671 1.12252 
1.5456 -0.816976 1.12678 1.61305 -0.829144 1.13128 1.68049 -0.841311 1.13579 
1.74198 -0.841569 1.14005 1.8103 -0.855471 1.14459 1.88252 -0.878314 1.1567 
1.95367 -0.901274 1.18358 2.018 -0.913996 1.23241 2.06918 -0.90272 1.29553 
3.74986 1.30123 1.30554 3.69297 1.26153 1.36786 3.64439 1.22353 1.42582 
3.60367 1.17382 1.47673 3.55694 1.1378 1.51751 3.50604 1.10899 1.56554 
3.45879 1.07286 1.61373 3.4188 1.02339 1.65479 3.37355 0.98779 1.67341 

LINES 43 614
26 49 52 53 54 55 56 57 58 59 60 61 62 63 64 65 66 67 68 69 70 71 72 73 74 75 43 
25 46 91 92 93 94 95 96 97 98 99 100 101 102 103 104 105 106 107 108 109 110 111 112 113 37 
20 45 114 115 116 117 118 119 120 121 122 123 124 125 126 127 128 129 130 131 40 
3 44 132 42 
5 43 133 134 135 41 
41 43 136 137 138 139 140 141 142 143 144 145 146 147 148 149 150 151 152 153 154 155 156 157 158 159 160 161 162 163 164 165 166 167 168 169 170 171 172 173 174 2 
3 42 175 38 
4 42 176 177 39 
16 34 180 181 182 183 184 185 186 187 188 189 190 191 192 193 31 
27 31 194 195 196 197 198 199 200 201 202 203 204 205 206 207 208 209 210 211 212 213 214 215 216 217 218 21 
5 31 219 220 221 32 
11 31 222 223 224 225 226 227 228 229 230 24 
16 28 231 232 233 234 235 236 237 238 239 240 241 242 243 244 30 
5 28 245 246 247 28 
5 28 248 249 250 27 
10 29 251 252 253 254 255 256 257 258 20 
4 28 259 260 27 
15 27 261 262 263 264 265 266 267 268 269 270 271 272 273 19 
41 26 274 275 276 277 278 279 280 281 282 283 284 285 286 287 288 289 290 291 292 293 294 295 296 297 298 299 300 301 302 303 304 305 306 307 308 309 310 311 312 21 
4 26 313 314 15 
3 25 317 22 
32 20 318 319 320 321 322 323 324 325 326 327 328 329 330 331 332 333 334 335 336 337 338 339 340 341 342 343 344 345 346 347 19 
3 23 348 22 
7 22 349 350 351 352 353 13 
7 18 365 366 367 368 369 10 
21 21 370 371 372 373 374 375 376 377 378 379 380 381 382 383 384 385 386 387 388 14 
32 20 389 390 391 392 393 394 395 396 397 398 399 400 401 402 403 404 405 406 407 408 409 410 411 412 413 414 415 416 417 418 19 
6 18 419 420 421 422 10 
24 16 423 424 425 426 427 428 429 430 431 432 433 434 435 436 437 438 439 440 441 442 443 444 2 
4 15 445 446 13 
3 15 447 13 
3 10 455 14 
4 14 456 457 10 
11 12 458 459 460 461 462 463 464 465 466 7 
4 9 480 481 7 
5 7 498 499 500 6 
23 4 501 502 503 504 505 506 507 508 509 510 511 512 513 514 515 516 517 518 519 520 521 1 
11 2 522 523 524 525 526 527 528 529 530 0 
19 50 51 48 76 77 78 79 80 81 82 83 84 85 86 87 88 89 90 47 
5 36 178 33 179 35 
16 26 315 316 17 364 363 362 361 360 359 358 357 356 355 354 18 
19 13 448 449 450 451 452 453 454 11 467 468 469 470 471 472 473 474 475 3 
23 10 476 477 478 479 8 482 483 484 485 486 487 488 489 490 491 492 493 494 495 496 497 5 

POINT_DATA 531
SCALARS DY_raw double
LOOKUP_TABLE default
182.2 232.755 225.314 152.63 192.026 190.509 197.905 117.563 183.702 
107.5 157.217 119.95 195.874 162.491 127.603 126.885 187.711 175.692 
135.955 208.273 146.904 143.649 102.629 134.698 220.171 97.6516 194.298 
313.264 202.143 133.553 259.406 178.55 232.839 83.6372 205.033 111.931 
71.0649 217.69 283.542 145.21 152.123 209.827 146.743 134.393 108.658 
181.528 237.751 315.419 139.88 148.283 160.367 129.366 210.298 204.593 
198.582 232.355 239.456 239.456 229.146 207.96 194.089 177.982 192.706 
236.095 218.498 215.186 215.186 230.445 230.445 251.904 206.174 222.631 
189.089 168.044 180.359 167.37 154.506 178.255 187.005 188.67 162.543 
170.684 179.523 186.848 182.102 161.114 151.964 161.841 198.99 230.421 
230.421 185.868 184.842 177.671 178.533 159.598 162.479 161.7 141.885 
168.295 160.918 171.174 202.727 182.425 194.073 217.192 169.832 188.4 
180.734 186.64 180.097 164.871 196.243 226.098 178.2 183.797 188.369 
189.806 191.431 191.759 207.27 197.824 195.465 203.441 187.057 190.553 
177.739 168.672 172.764 160.514 146.041 147.631 105.619 138.645 180.539 
190.059 141.059 153.736 230.183 258.714 256.466 256.466 230.623 219.017 
229.017 163.674 151.751 171.919 195.987 226.968 279.748 244.64 249.283 
212.864 217.319 265.342 274.766 234.62 219.424 251.508 228.615 193.498 
220.494 181.05 210.247 221.588 198.238 182.862 174.761 155.741 140.85 
159.132 145.141 147.804 175.687 191.495 118.172 122.379 74.1375 83.6372 
205.033 202.542 154.787 172.507 178.904 163.478 163.478 157.263 139.962 
160.996 137 149.127 178.095 164.826 144.815 132.349 125.634 129.813 
129.813 134.67 150.57 165.799 176.877 186.882 212.424 214.543 214.543 
197.523 185.425 185.425 149.596 145.097 132.33 114.38 117.344 113.519 
120.353 108.376 139.839 171.236 186.268 188.396 206.944 192.486 173.105 
153.646 165.46 166.978 175.117 163.642 196.335 203.404 190.896 193.651 
178.534 178.534 174.871 186.1 206.753 224.784 253.478 253.478 261.305 
231.404 259.406 216.84 212.748 207.593 204.194 203.651 233.965 139.347 
140.466 145.006 158.155 163.303 128.818 117.281 119.238 242.424 264.088 
313.264 301.437 249.68 229.585 228.224 205.157 190.43 185.088 159.128 
180.598 212.165 152.38 185.795 151.568 165.624 165.651 175.841 184.589 
155.189 162.546 151.02 189.9 136.492 150.298 126.987 116.225 138.971 
140.166 140.166 131.72 142.133 159.126 141.186 172.08 202.852 214.372 
231.158 163.463 128.899 125.223 125.223 123.956 121.389 121.389 120.108 
127.294 129.903 140.138 141.547 127.274 132.117 132.394 217.792 100.304 
180.35 172.822 115.109 155.726 162.462 169.808 172.954 171.558 178.671 
178.32 181.212 196.153 201.075 231.937 175.561 175.561 172.04 153.052 
184.231 169.511 179.464 194.457 212.182 212.182 214.403 213.549 244.063 
241.594 222.242 199.681 176.797 193.064 204.213 110.96 112.952 155.94 
155.443 148.588 126.938 150.977 168.372 197.525 205.379 211.732 217.627 
225.305 217.004 205.225 187.622 197.095 128.536 124.757 125.847 143.192 
226.045 164.108 189.113 188.907 162.636 157.814 120.089 123.3 123.3 
140.691 163.906 174.443 174.443 181.925 171.879 181.123 176.59 167.684 
152.117 146.044 154.617 178.115 162.766 138.092 130.637 140.466 157.745 
187.946 216.995 222.148 245.05 269.539 310.318 252.878 318.121 232.92 
212.681 212.681 182.396 182.396 169.301 151.399 155.782 164.554 165.11 
161.45 210.312 224.831 229.461 249.648 177.453 197.295 206.997 174.343 
192.041 206.916 217.383 263.268 249.002 247.925 234.726 239.524 270.935 
247.047 284.306 238.071 207.309 207.309 205.54 210.21 198.089 199.352 
191.544 182.154 177.436 180.767 131.376 141.338 122.236 156.464 147.835 
157.338 155.149 144.899 135.464 124.443 133.501 129.747 133.002 198.87 
157.486 158.775 145.01 155.394 164.008 162.234 138.659 121.054 120.887 
123.963 134.547 128.597 108.537 114.667 122.932 126.935 142.751 145.951 
171.387 176.029 182.28 95.52 100.076 162.786 159.543 168.234 153.723 
130.64 133.932 133.264 139.711 147.686 149.156 150.565 139.813 139.813 
134.96 158.11 167.319 140.323 153.103 154.811 203.496 219.69 205.263 
189.581 186.174 175.141 177.872 174.295 163.093 182.498 183.915 171.415 
177.517 177.517 180.414 180.292 186.937 186.937 207.26 214.705 225.877 
265.755 273.61 285.758 231.193 239.523 199.614 182.379 197.871 190.331 

FIELD FieldData 7
DY_minmax 1 531 double
0.449841 0.654467 0.624349 0.330149 0.489609 0.483471 0.513405 0.188209 0.455918 
0.147477 0.348714 0.197871 0.505185 0.370062 0.228848 0.225943 0.472144 0.423496 
0.262654 0.555374 0.306971 0.293797 0.127762 0.257568 0.603534 0.107614 0.498806 
0.980341 0.530561 0.25293 0.762342 0.435063 0.654809 0.0508888 0.542258 0.165413 
0 0.593489 0.860039 0.300113 0.328095 0.561662 0.30632 0.256332 0.152166 
0.447118 0.674689 0.989065 0.27854 0.312554 0.361466 0.235982 0.563569 0.540478 
0.516146 0.652851 0.681593 0.681593 0.639861 0.554106 0.497962 0.432765 0.492362 
0.667987 0.596761 0.583355 0.583355 0.645119 0.645119 0.731979 0.546876 0.613489 
0.477722 0.39254 0.442389 0.38981 0.337743 0.433871 0.469288 0.476026 0.370272 
0.403224 0.439003 0.46865 0.449443 0.36449 0.327453 0.367431 0.517798 0.645022 
0.645022 0.464684 0.460532 0.431505 0.434995 0.358353 0.370014 0.366859 0.286658 
0.393554 0.363697 0.405208 0.532926 0.45075 0.497897 0.591474 0.399778 0.474933 
0.443903 0.467809 0.441328 0.379697 0.506679 0.627524 0.433648 0.456301 0.474807 
0.480626 0.487201 0.48853 0.551312 0.513081 0.50353 0.535813 0.4695 0.483648 
0.43178 0.39508 0.411645 0.36206 0.303477 0.309915 0.139864 0.273542 0.443115 
0.481649 0.283315 0.334624 0.64406 0.75954 0.750443 0.750443 0.645838 0.598862 
0.63934 0.374852 0.326591 0.408225 0.505642 0.631046 0.84468 0.702575 0.721369 
0.573958 0.591989 0.786369 0.824515 0.662019 0.600507 0.730376 0.637712 0.495571 
0.60484 0.445183 0.563362 0.609269 0.514757 0.452517 0.419727 0.342741 0.282466 
0.356469 0.299834 0.310616 0.423475 0.487462 0.190673 0.207702 0.0124369 0.0508888 
0.542258 0.532175 0.338878 0.410606 0.436498 0.374057 0.374057 0.3489 0.278874 
0.364011 0.266884 0.315971 0.433222 0.379515 0.298515 0.248057 0.220878 0.237792 
0.237792 0.257452 0.321811 0.383452 0.428291 0.468788 0.572177 0.580751 0.580751 
0.511861 0.462891 0.462891 0.317867 0.299658 0.24798 0.175324 0.187324 0.171842 
0.199504 0.151022 0.278374 0.405459 0.466303 0.474917 0.549992 0.491471 0.413024 
0.334262 0.38208 0.388224 0.421171 0.374723 0.50705 0.535667 0.485038 0.496187 
0.435 0.435 0.420172 0.465626 0.549222 0.622203 0.73835 0.73835 0.77003 
0.649 0.762342 0.59005 0.573487 0.552623 0.538862 0.536665 0.659365 0.276382 
0.280914 0.299289 0.352514 0.373348 0.233767 0.187067 0.194989 0.693607 0.781292 
0.980341 0.932471 0.722973 0.641637 0.63613 0.54276 0.48315 0.461527 0.35645 
0.443355 0.571126 0.329137 0.464388 0.325851 0.382746 0.382853 0.424098 0.459509 
0.340506 0.370286 0.32363 0.481007 0.264826 0.320709 0.226355 0.182794 0.274863 
0.2797 0.2797 0.24551 0.287661 0.356441 0.283826 0.408877 0.533432 0.580061 
0.648004 0.373998 0.234092 0.219215 0.219215 0.214088 0.203695 0.203695 0.198509 
0.227599 0.238159 0.279584 0.28529 0.227517 0.247117 0.248242 0.593904 0.11835 
0.442351 0.411879 0.178277 0.34268 0.369946 0.399678 0.412415 0.406762 0.435555 
0.434132 0.445838 0.506316 0.526239 0.651157 0.422964 0.422964 0.408713 0.331856 
0.458061 0.398479 0.438765 0.499453 0.571196 0.571196 0.580186 0.57673 0.70024 
0.690246 0.611913 0.520598 0.427967 0.493814 0.538941 0.161483 0.169544 0.343545 
0.341533 0.313789 0.226155 0.323457 0.393867 0.511871 0.543659 0.569373 0.593233 
0.624314 0.590714 0.543036 0.471784 0.510128 0.232625 0.217326 0.221742 0.291946 
0.62731 0.37661 0.477821 0.476988 0.370649 0.351133 0.198433 0.211433 0.211433 
0.281825 0.375791 0.418442 0.418442 0.448725 0.408064 0.445479 0.427133 0.391084 
0.328072 0.303489 0.338193 0.433303 0.371175 0.271303 0.24113 0.280913 0.350853 
0.473098 0.590679 0.611535 0.704234 0.803356 0.968418 0.735921 1 0.655134 
0.573216 0.573216 0.450631 0.450631 0.397628 0.325165 0.342906 0.378414 0.380663 
0.365849 0.563625 0.622394 0.641137 0.722846 0.430624 0.510937 0.55021 0.418036 
0.489671 0.549879 0.592248 0.777973 0.720232 0.71587 0.662448 0.681868 0.809009 
0.712318 0.863132 0.675984 0.55147 0.55147 0.544313 0.563213 0.514153 0.519265 
0.487661 0.449651 0.430555 0.444037 0.24412 0.284441 0.207125 0.345668 0.310742 
0.349207 0.340345 0.298857 0.260665 0.216056 0.252721 0.237526 0.250702 0.517314 
0.349803 0.355023 0.299306 0.341335 0.376203 0.369022 0.273597 0.202341 0.201665 
0.214113 0.256955 0.232871 0.151676 0.176488 0.209943 0.226142 0.29016 0.303115 
0.40607 0.424862 0.450161 0.0989864 0.117427 0.371258 0.35813 0.393311 0.334575 
0.24114 0.254465 0.251762 0.277857 0.310137 0.316088 0.321789 0.278271 0.278271 
0.258626 0.352329 0.389605 0.280334 0.332063 0.338978 0.536036 0.601587 0.54319 
0.479715 0.465925 0.421266 0.432321 0.417843 0.3725 0.451044 0.456779 0.406184 
0.430881 0.430881 0.44261 0.442117 0.469013 0.469013 0.551273 0.581407 0.626628 
0.788041 0.819837 0.869006 0.648146 0.681865 0.520323 0.450565 0.51327 0.48275 

WidthEq 1 531 double
2.66629 2.64076 3.5158 2.24968 4.06607 1.56381 2.45507 2.88321 2.23944 
1.92855 3.34112 2.30595 2.8285 2.4981 3.48337 2.06288 3.21143 3.4635 
3.34691 6.83203 7.12411 4.96731 3.72992 1.85027 2.97223 1.84021 3.50698 
4.44271 7.34237 6.27295 4.05257 3.44973 1 4.23781 2.44068 2.82298 
3.77006 1.48183 1.60805 2.7005 5.69297 3.28552 2.40365 5.28612 2.52488 
4.72263 2.65181 2.05824 4.09587 1.65264 3.26226 4.32487 2.13273 3.21022 
4.01225 3.70604 3.77501 3.77501 3.81987 3.58232 3.54249 3.27892 3.24987 
3.05318 3.15453 3.10735 3.10735 3.03634 3.03634 3.05099 3.41833 3.38304 
3.7191 4.04851 4.08816 4.56701 4.14688 3.96431 3.89214 3.84963 3.9493 
3.96253 4.15027 4.15103 4.23514 4.61864 4.70111 4.39882 3.71215 3.28494 
3.28494 3.78494 3.87877 4.10264 3.94515 3.93851 4.21549 4.39753 4.67447 
4.17393 4.31262 4.29025 3.84763 4.22222 3.9484 3.92261 4.55908 4.44788 
4.71688 4.24668 4.41366 3.81764 2.87827 2.58467 5.14837 5.44406 5.52777 
5.46014 5.37777 5.12106 4.92267 4.5695 4.41526 4.41549 4.49412 4.46516 
4.86056 5.8669 5.92379 6.4876 6.57768 6.30632 2.58182 5.48335 4.35534 
3.8487 5.52064 4.70378 4.48307 4.20012 4.14889 4.14889 4.4571 4.57316 
4.45407 5.23582 5.41327 5.10466 4.94436 4.50838 3.78855 3.90091 4.09213 
5.10827 4.99145 4.35864 4.17464 4.78598 5.02995 4.66899 4.98593 5.24856 
4.63223 4.5066 3.98921 3.48502 3.93606 4.53003 4.70797 4.56732 4.25212 
4.15201 4.1696 4.17335 3.8802 2.17942 2.90255 2.97485 4.01064 4.23781 
2.44068 2.92937 3.70742 3.56361 3.44212 3.27567 3.27567 3.15306 3.32989 
3.1025 3.73335 3.84175 3.34816 3.49161 3.7309 3.708 3.69963 3.9456 
3.9456 4.03452 3.91704 3.7338 3.38433 3.26511 2.93436 2.83109 2.83109 
2.78266 2.81839 2.81839 3.04667 3.35961 3.84433 4.61419 4.81155 4.76437 
4.72624 5.14155 4.98058 3.29452 2.75281 2.18789 3.19401 3.10397 3.3486 
3.82001 3.66421 3.78828 3.90292 4.21785 3.6479 7.05987 6.203 5.84939 
5.40837 5.40837 5.24255 5.23137 4.86101 4.81227 4.49849 4.49849 4.44534 
4.61806 4.05257 7.51452 7.48039 7.49238 6.3212 5.79343 5.16859 6.06329 
6.02243 6.00844 5.53423 5.45355 7.09177 7.84603 7.91299 5.6114 5.03026 
4.44271 4.60733 5.44918 6.01054 6.02582 6.50711 6.68167 6.68995 7.36269 
6.47049 5.96621 7.49238 7.44386 4.30393 3.12375 3.26017 2.78359 2.75205 
3.04957 3.10022 3.18799 2.63532 3.29536 2.92652 3.37466 3.44047 2.91743 
3.04266 3.04266 3.1053 3.12312 3.02195 3.36896 3.19966 2.94371 2.7267 
2.45814 3.05536 3.86892 4.16671 4.16671 4.26423 4.93652 4.93652 5.2691 
5.00767 4.56184 4.53725 4.18453 4.02508 4.07533 4.4387 2.0733 1.9715 
4.11565 4.01002 2.46313 6.33015 5.80836 5.55628 5.38552 5.23992 4.95564 
5.02776 4.68347 4.57244 4.67362 4.31181 4.83058 4.83058 5.00576 5.42829 
5.07633 5.3902 5.23368 4.91634 4.23447 4.23447 4.07088 3.84112 3.46533 
3.54681 4.09306 4.66057 6.06284 6.59288 6.16825 3.20051 3.48493 2.67359 
2.66304 2.58048 2.54707 3.45152 3.38856 2.78217 2.69409 2.37465 2.19867 
2.11273 2.13853 2.41773 3.015 3.29719 3.56459 3.73487 3.87699 3.35738 
1.69488 3.92002 3.67245 3.70604 3.97514 4.02321 4.36693 4.27435 4.27435 
3.92724 3.50413 3.28066 3.28066 3.1491 3.41966 3.34236 3.49175 3.57862 
3.68065 3.50614 7.67384 6.97437 7.03207 7.17254 6.08837 5.15541 5.10836 
4.04918 4.05252 3.88416 3.41489 3.24172 2.7504 2.96265 2.37256 2.99107 
3.04418 3.04418 3.73594 3.73594 4.32932 4.99065 5.23097 5.22277 5.37411 
5.76296 5.22419 5.35464 5.62146 5.4421 3.29839 2.88887 2.38022 2.50006 
2.98795 2.21863 2.26862 2.07758 2.05588 2.2892 2.40054 2.30448 2.10297 
2.25993 2.05152 2.53219 2.95236 2.95236 3.04747 3.02645 3.23419 3.29572 
3.53777 3.66799 3.79528 3.79278 2.14886 2.39497 2.58654 2.50817 2.52354 
2.30649 2.2557 2.31892 2.43297 2.33994 4.01951 3.80232 3.37257 2.79941 
3.24105 3.22644 2.98033 2.74875 2.60414 2.54934 2.88499 3.00822 2.34854 
2.6457 2.85639 2.97463 3.52026 3.22733 2.92469 2.86178 2.48264 2.50323 
2.30653 2.08493 2.10725 2.53401 2.59033 2.50002 2.53455 2.43582 2.62178 
2.85777 2.81456 2.86468 2.96991 3.03562 2.97909 3.13805 3.36112 3.36112 
3.10521 2.3865 1.86912 3.19975 3.0595 2.79727 4.40849 4.25207 4.25069 
4.3316 4.1402 3.94898 3.94417 3.9137 4.22053 3.9321 3.87146 4.00151 
4.05872 4.05872 4.1214 4.16234 3.9288 3.9288 3.52957 3.37542 3.27616 
3.07866 2.85621 2.60735 2.45876 2.53027 3.00315 3.07808 3.03611 2.97303 

rRFP 1 531 double
2816.74 2811.01 3007.42 2723.23 3130.93 2569.28 2769.33 2865.43 2720.93 