# vtk DataFile Version 3.0
vtk output
ASCII
DATASET POLYDATA
POINTS 421 float
1.23308 0.581997 1.42961 1.34376 0.776479 1.43168 0.470644 1.33972 0.474732 
0.111313 1.287 0.0418612 7.86344 -0.179316 -0.312352 7.95473 -0.107094 -0.000609457 
0.325824 1.43672 -0.490336 4.00763 -1.66284 -0.807397 7.92345 -0.293339 -0.802893 
7.31279 -1.06214 -1.35499 7.69788 -0.458346 -1.00424 8.10657 -0.891648 -1.14428 
-0.381412 0.278951 -1.16921 2.98295 -0.0128325 -1.18361 7.55625 -1.31392 -1.21445 
8.03384 -0.168276 -1.65176 7.45113 -0.339129 -1.93538 -0.236452 -0.922067 -1.78467 
2.49048 -2.65028 -1.94825 0.63048 -1.46674 -2.02017 1.01528 -1.89295 -2.0267 
2.04029 -2.59903 -2.01285 4.6679 -0.480983 -1.9949 4.74374 -0.384169 -1.99394 
7.00755 -0.357231 -2.04086 6.8443 0.0638934 -1.99509 7.37293 -0.537571 -2.00427 
7.33612 0.0536048 -1.99679 8.00256 -0.624539 -2.00737 5.53311 -0.250605 -2.19482 
5.93327 0.0608273 -2.19223 7.40239 -0.407849 -1.99781 7.38842 -0.469923 -2.02076 
5.98304 0.0841962 -2.18469 6.03363 0.105736 -2.16236 6.08858 0.117974 -2.11793 
6.15004 0.116431 -2.06629 6.20504 0.12856 -2.02187 6.25646 0.148357 -1.99956 
6.31138 0.160856 -1.99218 6.37348 0.158298 -1.99981 6.43339 0.160404 -2.0148 
6.49632 0.156187 -2.03727 6.55713 0.156357 -2.04488 6.62526 0.141002 -2.03788 
6.69776 0.116336 -2.01619 6.77102 0.0901181 -2.00194 5.48341 -0.274165 -2.19496 
5.43371 -0.297726 -2.19509 5.38397 -0.321187 -2.19522 5.33344 -0.343004 -2.19533 
5.27861 -0.355787 -2.18791 5.21656 -0.353414 -2.16545 5.15679 -0.355988 -2.12085 
5.09479 -0.353883 -2.06877 5.03925 -0.365384 -2.02428 4.98364 -0.376608 -2.00202 
4.9215 -0.37395 -1.99438 4.86159 -0.375971 -1.99421 4.79941 -0.373221 -1.99398 
8.08474 -0.678086 -1.80581 8.12684 -0.732889 -1.59673 8.13527 -0.799477 -1.37535 
8.03478 -0.534027 -2.00634 8.06137 -0.455451 -2.00545 8.07693 -0.386515 -1.99168 
8.07561 -0.324703 -1.93905 8.06975 -0.252908 -1.82146 7.92293 -0.645649 -2.00738 
7.85775 -0.658124 -2.00732 7.79409 -0.655358 -2.01449 7.73398 -0.656997 -2.03654 
7.67094 -0.651903 -2.08073 7.61168 -0.65051 -2.13238 7.55423 -0.629679 -2.16897 
7.50629 -0.593782 -2.16096 7.44404 -0.56338 -2.10112 7.53653 -0.284861 -1.9004 
7.59968 -0.251956 -1.9002 7.65626 -0.23714 -1.9397 7.71831 -0.239022 -1.99425 
7.77811 -0.236541 -2.03145 7.84034 -0.239318 -2.01872 7.89682 -0.226893 -1.94467 
7.95715 -0.202262 -1.81306 7.2688 0.0672145 -1.99641 7.20719 0.0687898 -1.99619 
7.13908 0.0840534 -1.99578 7.06752 0.106599 -1.99527 7.00029 0.12002 -1.99489 
6.94462 0.109072 -1.99485 6.89404 0.0873545 -1.99496 7.31193 -0.0187285 -1.99762 
7.2984 -0.0860021 -1.99841 7.3095 -0.141794 -1.99667 7.33395 -0.194214 -1.98752 
7.37583 -0.25598 -1.9662 7.37527 0.0990499 -1.92968 7.43074 0.110299 -1.90749 
7.4846 0.1252 -1.92971 7.53496 0.147577 -1.96663 7.58468 0.171216 -1.98872 
7.63523 0.193026 -1.99602 7.69093 0.203881 -1.98865 7.75828 0.190085 -1.96681 
7.83071 0.165195 -1.92291 7.90224 0.137642 -1.87162 7.96295 0.104837 -1.82037 
7.99754 0.0596546 -1.77845 8.01273 0.00311423 -1.73476 8.01478 -0.0727104 -1.6931 
7.34008 -0.596828 -1.97527 7.29736 -0.6354 -1.92376 7.25486 -0.6743 -1.85002 
7.22481 -0.735311 -1.7618 7.20891 -0.80249 -1.68849 7.20931 -0.863865 -1.62999 
7.20855 -0.925868 -1.57521 7.23298 -0.976183 -1.50183 7.28228 -1.01486 -1.41728 
6.83078 -0.00338031 -1.99588 6.83104 -0.0641174 -1.99664 6.8284 -0.126234 -1.99741 
6.84293 -0.180331 -1.99961 6.87728 -0.227538 -2.00623 6.93739 -0.278117 -2.02039 
4.71076 -0.442964 -2.00197 4.68632 -0.386774 -1.93452 4.66084 -0.429054 -1.93497 
4.64202 -0.555336 -1.89944 4.61527 -0.627676 -1.83358 4.58415 -0.690621 -1.79723 
4.54651 -0.739785 -1.76808 4.5154 -0.802814 -1.72433 4.48861 -0.874969 -1.67327 
4.46256 -0.948677 -1.62966 4.43645 -1.02211 -1.60827 4.40948 -1.0937 -1.59426 
4.37744 -1.15462 -1.57269 4.33386 -1.19135 -1.52856 4.28519 -1.2174 -1.46947 
4.23487 -1.24004 -1.40291 4.17941 -1.25181 -1.33621 4.11244 -1.23908 -1.26917 
4.04201 -1.21479 -1.20196 3.97989 -1.18443 -1.13471 3.93312 -1.14657 -1.07483 
3.8833 -1.10994 -1.02977 3.8472 -1.06651 -1.00689 3.81105 -1.02289 -0.998819 
3.76117 -0.985666 -0.998196 3.71607 -0.946185 -0.99756 3.6662 -0.908967 -0.996937 
3.63002 -0.865253 -0.996278 3.59385 -0.82154 -0.995618 3.54398 -0.784321 -0.994995 
3.49887 -0.74484 -0.994359 3.4491 -0.707574 -0.993736 3.41477 -0.662987 -0.993071 
3.39109 -0.613248 -0.999786 3.37638 -0.559046 -1.02129 3.36637 -0.502309 -1.06499 
3.32905 -0.458414 -1.11619 3.29807 -0.41162 -1.15995 3.28354 -0.357231 -1.18886 
3.28415 -0.295663 -1.21773 3.2694 -0.241276 -1.25405 3.23498 -0.19632 -1.28301 
3.17627 -0.163286 -1.28241 3.11748 -0.130712 -1.25219 3.07967 -0.0882901 -1.21449 
3.04181 -0.0456844 -1.19162 2.45741 -2.73961 -1.88506 2.42245 -2.80506 -1.84131 
2.37425 -2.82894 -1.8217 2.31861 -2.81227 -1.81638 2.27072 -2.77639 -1.82318 
2.20831 -2.74485 -1.84482 2.13853 -2.71494 -1.88867 2.07792 -2.67176 -1.9472 
2.442 -2.58319 -1.97937 2.39766 -2.53293 -2.00082 2.33667 -2.5016 -2.01011 
2.27116 -2.48713 -2.01219 2.21553 -2.49808 -2.01215 2.16402 -2.521 -2.01227 
2.10791 -2.5526 -2.01249 1.94981 -2.56668 -2.01215 1.87216 -2.53753 -2.01154 
1.80876 -2.50597 -2.01095 1.75991 -2.46822 -2.01032 1.69743 -2.43698 -2.00973 
1.62602 -2.40997 -2.00917 1.5546 -2.38296 -2.0086 1.49222 -2.35168 -2.00801 
1.44515 -2.31302 -2.01479 1.39336 -2.2764 -2.03639 1.3463 -2.23733 -2.0728 
1.28566 -2.2048 -2.10183 1.22667 -2.17191 -2.10123 1.18893 -2.12935 -2.07095 
1.15287 -2.0861 -2.03325 1.10484 -2.04821 -2.01411 1.07084 -2.00245 -2.01343 
1.04613 -1.94762 -2.02378 0.963575 -1.86503 -2.02249 0.925154 -1.82806 -2.01079 
0.888666 -1.78562 -2.00274 0.840435 -1.74773 -1.99841 0.804351 -1.70397 -1.99775 
0.768266 -1.66022 -1.99709 0.720167 -1.62205 -2.00016 0.686141 -1.5762 -2.00689 
0.661429 -1.52137 -2.01724 0.577134 -1.43961 -2.01595 0.529588 -1.40696 -2.00428 
0.477666 -1.37184 -1.99627 0.432344 -1.33257 -1.99194 0.380826 -1.29613 -1.99132 
0.335625 -1.25669 -1.99068 0.285751 -1.21948 -1.99006 0.249577 -1.17576 -1.9894 
0.213426 -1.13214 -1.98133 0.163625 -1.0952 -1.95849 0.118565 -1.05632 -1.91341 
0.0671615 -1.02067 -1.86095 0.021109 -0.984499 -1.80849 -0.0360538 -0.964444 -1.77103 
-0.0958968 -0.962228 -1.74857 -0.163973 -0.946726 -1.75557 2.59216 -2.67616 -1.86248 
2.67002 -2.69081 -1.79624 2.72818 -2.68208 -1.76915 2.78476 -2.67286 -1.77169 
2.85118 -2.68445 -1.79427 2.91837 -2.69769 -1.80946 2.97911 -2.69742 -1.80965 
3.04135 -2.70044 -1.78767 3.09634 -2.6883 -1.74325 3.14703 -2.66713 -1.69128 
3.19685 -2.64403 -1.65412 3.24572 -2.61872 -1.65396 3.29019 -2.58393 -1.69071 
3.32811 -2.53526 -1.73467 3.37175 -2.4988 -1.75658 3.41475 -2.46125 -1.73403 
3.44784 -2.40291 -1.68896 3.48094 -2.34458 -1.64389 3.52394 -2.30703 -1.62134 
3.56763 -2.27085 -1.61362 3.60484 -2.22098 -1.60571 3.64357 -2.1744 -1.58303 
3.6759 -2.11451 -1.53054 3.70903 -2.05644 -1.45583 3.75221 -2.01962 -1.36663 
3.79528 -1.98252 -1.29222 3.82759 -1.92262 -1.23231 3.85562 -1.85361 -1.1871 
3.88793 -1.79371 -1.12719 3.93104 -1.7567 -1.04538 3.97428 -1.72016 -0.933944 
7.99992 -0.204169 -1.3317 7.96594 -0.254422 -1.04887 8.07379 -0.981036 -1.17739 
8.03572 -1.03978 -1.20023 8.00437 -1.10356 -1.2108 7.97652 -1.17328 -1.21405 
7.94438 -1.23392 -1.20729 7.9007 -1.27027 -1.19279 7.85195 -1.29595 -1.17073 
7.80228 -1.31961 -1.16346 7.75168 -1.34123 -1.17097 7.69593 -1.3519 -1.19315 
7.62861 -1.3382 -1.20758 7.48306 -1.28764 -1.2213 7.41158 -1.26036 -1.24296 
7.35097 -1.22776 -1.27569 7.31728 -1.18246 -1.30465 7.307 -1.12621 -1.32244 
7.58116 -1.24393 -1.02106 7.59712 -1.178 -0.849902 7.60002 -1.11966 -0.723244 
7.62075 -1.0633 -0.641123 7.65691 -1.01598 -0.588795 7.68831 -0.954382 -0.536275 
7.71717 -0.88712 -0.491076 7.75539 -0.839477 -0.468384 7.81654 -0.839907 -0.498218 
7.88702 -0.859636 -0.577706 7.95554 -0.873403 -0.716378 8.02269 -0.874776 -0.909226 
2.91194 0.0130226 -1.08676 2.85153 0.0442135 -1.0121 2.81552 0.0872819 -0.959592 
2.79031 0.135364 -0.899648 2.76689 0.184088 -0.82488 2.74361 0.232675 -0.735314 
2.72019 0.2814 -0.660546 2.69505 0.329621 -0.608011 2.66081 0.373839 -0.577719 
2.61279 0.411521 -0.547463 2.57687 0.454631 -0.494957 2.54093 0.497419 -0.420224 
2.49135 0.533536 -0.330728 2.4465 0.572003 -0.248609 2.39688 0.608304 -0.173922 
2.36093 0.651091 -0.0991985 2.32504 0.693699 -0.00965587 2.27548 0.729392 0.102066 
2.22976 0.764684 0.228592 2.17292 0.783534 0.354949 2.11419 0.7829 0.466249 
2.05163 0.786481 0.555391 1.99281 0.786215 0.637063 1.9358 0.805379 0.726381 
1.889 0.838334 0.83065 1.83202 0.857406 0.927378 1.77317 0.857233 1.00164 
1.71044 0.861128 1.05374 1.65067 0.85847 1.11317 1.58878 0.860198 1.18747 
1.53414 0.846398 1.27636 1.48233 0.8237 1.35033 1.42242 0.799809 1.40208 
3.00662 0.0615283 -1.34574 3.01974 0.130369 -1.47086 3.00856 0.186965 -1.5442 
2.98665 0.237858 -1.57313 2.96142 0.286859 -1.57985 2.92696 0.331492 -1.58659 
2.87712 0.369034 -1.60819 2.8319 0.408976 -1.64459 2.78203 0.446611 -1.67359 
2.7475 0.491104 -1.67293 2.72044 0.538728 -1.64262 2.68429 0.581933 -1.60492 
2.62372 0.61377 -1.58211 2.55242 0.640731 -1.57413 2.48101 0.667738 -1.57357 
2.41865 0.698932 -1.56557 2.37167 0.737215 -1.54272 2.32015 0.772908 -1.49767 
2.27409 0.809079 -1.44521 2.21695 0.829042 -1.40033 2.15721 0.831305 -1.37789 
2.09093 0.847449 -1.37006 2.02926 0.876944 -1.3695 1.98052 0.914578 -1.36888 
1.91814 0.945864 -1.36829 1.84836 0.973651 -1.36772 1.7861 1.00489 -1.35972 
1.73922 1.04322 -1.33687 1.6894 1.07985 -1.29181 1.65329 1.12286 -1.2393 
1.6155 1.16519 -1.1942 1.55489 1.19689 -1.17139 1.48432 1.22206 -1.16344 
1.41632 1.23737 -1.16304 1.35549 1.23729 -1.16284 1.29244 1.24188 -1.16258 
1.23166 1.2417 -1.16239 1.16438 1.25522 -1.16201 1.09706 1.26883 -1.16162 
1.03546 1.27032 -1.15399 0.967384 1.2854 -1.13137 0.895142 1.30914 -1.0864 
0.822924 1.33278 -1.03401 0.754961 1.34749 -0.989162 0.694201 1.34714 -0.96675 
0.631203 1.35155 -0.951672 0.570408 1.35112 -0.91938 0.501375 1.36627 -0.835014 
0.421285 1.39519 -0.686245 -0.390392 0.334625 -1.10181 -0.378308 0.400285 -1.03436 
-0.364581 0.466725 -0.966906 -0.36279 0.527506 -0.89948 -0.347209 0.594824 -0.832027 
-0.322602 0.666422 -0.764539 -0.296304 0.7387 -0.697048 -0.269149 0.809472 -0.636989 
-0.237763 0.871404 -0.591875 -0.199888 0.919731 -0.561763 -0.167718 0.980094 -0.531482 
-0.135434 1.04009 -0.478984 -0.0965612 1.08602 -0.39705 -0.0597614 1.13615 -0.285425 
-0.0191635 1.17823 -0.166502 0.0226758 1.21778 -0.0624249 0.0731397 1.23934 0.00434729 
7.74768 -0.435154 -0.974479 7.79747 -0.412047 -0.929908 7.84646 -0.387289 -0.877892 
7.89036 -0.351759 -0.833147 7.88964 -0.239166 -0.542829 0.248265 1.41066 -0.389174 
0.193725 1.37507 -0.270913 0.154617 1.32517 -0.125716 0.392269 1.41784 -0.183359 
0.434766 1.38029 0.138295 7.90034 -0.135655 -0.134132 0.167541 1.29582 0.212175 
0.230281 1.29139 0.353911 0.292809 1.2937 0.447567 0.370792 1.30055 0.480745 
0.537948 1.25754 0.679691 0.579058 1.19595 0.845467 0.616104 1.14842 0.958346 
0.66634 1.11012 1.03796 0.713508 1.07069 1.104 0.776062 1.03867 1.17007 
0.846964 1.01263 1.23619 0.91523 0.996389 1.30244 0.977078 0.993985 1.36148 
1.04537 0.978069 1.40551 1.11778 0.953357 1.42719 1.18923 0.926311 1.43404 
1.25106 0.893256 1.43343 1.29538 0.843178 1.43266 1.31052 0.687853 1.43068 
1.27626 0.620973 1.42996 
LINES 32 490
4 16 31 32 26 
16 30 33 34 35 36 37 38 39 40 41 42 43 44 45 46 25 
15 29 47 48 49 50 51 52 53 54 55 56 57 58 59 23 
5 28 60 61 62 11 
7 28 63 64 65 66 67 15 
11 28 68 69 70 71 72 73 74 75 76 26 
10 16 77 78 79 80 81 82 83 84 15 
9 27 85 86 87 88 89 90 91 25 
7 27 92 93 94 95 96 16 
16 27 97 98 99 100 101 102 103 104 105 106 107 108 109 110 15 
8 25 120 121 122 123 124 125 24 
3 23 126 22 
4 23 127 128 22 
45 22 129 130 131 132 133 134 135 136 137 138 139 140 141 142 143 144 145 146 147 148 149 150 151 152 153 154 155 156 157 158 159 160 161 162 163 164 165 166 167 168 169 170 171 13 
10 18 172 173 174 175 176 177 178 179 21 
9 18 180 181 182 183 184 185 186 21 
33 18 230 231 232 233 234 235 236 237 238 239 240 241 242 243 244 245 246 247 248 249 250 251 252 253 254 255 256 257 258 259 260 7 
4 15 261 262 8 
13 11 263 264 265 266 267 268 269 270 271 272 273 14 
14 14 279 280 281 282 283 284 285 286 287 288 289 290 11 
35 13 291 292 293 294 295 296 297 298 299 300 301 302 303 304 305 306 307 308 309 310 311 312 313 314 315 316 317 318 319 320 321 322 323 1 
51 13 324 325 326 327 328 329 330 331 332 333 334 335 336 337 338 339 340 341 342 343 344 345 346 347 348 349 350 351 352 353 354 355 356 357 358 359 360 361 362 363 364 365 366 367 368 369 370 371 372 6 
19 12 373 374 375 376 377 378 379 380 381 382 383 384 385 386 387 388 389 3 
6 10 390 391 392 393 8 
5 6 395 396 397 3 
4 6 398 399 2 
6 3 401 402 403 404 2 
16 2 405 406 407 408 409 410 411 412 413 414 415 416 417 418 1 
4 1 419 420 0 
17 26 111 112 113 114 115 116 117 118 119 9 278 277 276 275 274 14 
47 21 187 188 189 190 191 192 193 194 195 196 197 198 199 200 201 202 203 204 20 205 206 207 208 209 210 211 212 213 19 214 215 216 217 218 219 220 221 222 223 224 225 226 227 228 229 17 
5 8 394 4 400 5 

POINT_DATA 421
SCALARS DY_raw double
LOOKUP_TABLE default
310.641 274.884 190.665 231.15 356.008 416.413 244.53 500.19 356.362 
324.608 514.597 376.074 153.921 242.223 209.069 370.586 463.425 400.208 
220.192 301.098 415.861 253.075 275.913 285.038 574.317 376.235 463.517 
387.964 254.495 471.286 845.814 478.126 472.065 651.76 564.833 662.346 
603.053 663.098 588.016 582.426 573.332 602.996 509.608 499.075 472.273 
533.388 458.765 457.411 421.697 397.764 397.764 346.91 327.168 380.293 
357.067 312.907 312.907 296.847 293.525 292.17 342.678 512.799 389.963 
265.914 298.583 319.152 321.592 369.456 277.621 332.345 368.358 435.433 
415.657 423.859 399.032 401.897 435.381 412.736 391.435 389.274 382.462 
399.311 402.888 395.659 372.739 387.964 370.914 358.45 358.45 349.809 
359.213 359.213 373.059 400.974 428.845 443.663 490.164 427.378 443.642 
454.377 454.377 366.582 355.335 355.335 385.224 373.511 350.992 319.819 
328.367 347.122 355.677 403.53 351.995 361.116 368.25 425.723 440.394 
393.401 433.457 343.25 413.321 517.751 591.017 638.087 673.538 713.122 
285.038 285.766 288.139 291.549 313.763 384.857 398.134 405.808 382.209 
424.109 347.916 303.221 275.81 295.933 288.326 296.718 282.51 268.906 
277.519 276.171 324.857 324.189 322.401 322.401 303.265 338.93 338.93 
380.951 380.951 352.239 343.491 343.491 319.868 271.909 271.909 230.834 
218.678 206.542 221.692 216.594 228.294 230.677 230.677 214.178 212.321 
212.321 227.248 229.046 257.008 271.252 290.405 279.004 280.296 269.856 
241.887 228.272 253.587 292.51 282.396 276.854 271.745 287.494 338.604 
376.922 385.446 409.009 409.464 404.517 435.897 482.46 493.269 512.087 
444.18 433.128 453.796 567.619 462.438 432.962 396.902 397.843 364.489 
381.12 381.12 342.669 370.486 357.405 340.95 313.195 273.644 291.458 
301.164 346.044 346.044 334.628 302.173 312.911 240.039 236.358 242.491 
234.843 242.192 268.124 281.264 309.102 235.004 230.676 268.504 231.137 
253.726 267.319 258.31 239.652 262.651 282.239 321.787 321.787 306.401 
259.397 323.074 261.691 266.555 365.486 291.207 332.519 276.502 242.623 
267.999 292.418 298.53 337.135 306.612 279.38 334.07 269.618 354.667 
298.754 365.067 340.25 322.015 333.709 359.813 342.351 342.351 298.63 
289.064 264.487 220.749 209.069 206.115 242.069 270.137 314.151 368.385 
284.88 373.813 379.655 382.832 368.286 427.27 338.967 351.002 300.959 
357.516 415.373 401.416 240.775 263.273 266.999 265.031 262.933 268.09 
288.006 290.635 264.555 264.555 262.319 264.896 292.397 269.01 255.522 
269.248 312.903 319.164 314.607 295.351 283.517 328.944 329.804 281.126 
238.681 223.762 197.341 214.766 219.551 253.347 269.112 262.448 263.847 
318.245 310.785 325.869 327.431 327.431 350.186 350.186 335.604 306.396 
306.396 301.603 313.361 303.996 299.291 306.932 290.364 291.009 295.028 
283.509 260.714 265.302 261.409 266.94 299.036 321.433 328.137 314.514 
316.639 286.076 280.382 308.473 265.883 247.655 220.732 216.629 228.679 
232.727 232.727 256.005 275.436 290.438 282.022 298.674 270.612 196.442 
196.442 185.795 201.953 224.494 160.411 155.582 171.318 150.872 156.038 
165.901 187.488 208.425 249.886 326.68 353.316 290.183 276.857 306.595 
250.554 225.802 228.862 436.509 508.357 370.131 349.04 411.5 238.672 
232.803 230.993 213.534 229.523 372.149 196.206 227.11 209.24 210.655 
145.186 156.843 178.05 213.984 187.401 197.173 207.898 261.222 307.451 
297.26 287.979 271.912 282.334 278.357 248.089 251.369 
FIELD FieldData 7
DY_minmax 1 421 double
0.236153 0.185116 0.0649125 0.122696 0.300904 0.38712 0.141793 0.506694 0.30141 
0.256087 0.527258 0.329545 0.0124674 0.1385 0.0911799 0.321711 0.45422 0.363991 
0.107056 0.222533 0.386332 0.153989 0.186586 0.199609 0.612495 0.329775 0.454352 
0.346514 0.156016 0.46544 1 0.475202 0.466552 0.723029 0.598958 0.738138 
0.65351 0.739212 0.632047 0.624069 0.611089 0.653429 0.520137 0.505103 0.466848 
0.554078 0.447569 0.445636 0.394663 0.360502 0.360502 0.287919 0.259741 0.335567 
0.302417 0.239387 0.239387 0.216464 0.211723 0.209789 0.281879 0.524691 0.349369 
0.172314 0.218942 0.248301 0.251782 0.320098 0.189023 0.267131 0.318532 0.414267 
0.386041 0.397747 0.362312 0.366402 0.414193 0.381872 0.35147 0.348385 0.338663 
0.362711 0.367815 0.357498 0.324785 0.346514 0.32218 0.304389 0.304389 0.292056 
0.305479 0.305479 0.325241 0.365084 0.404864 0.426014 0.492384 0.40277 0.425983 
0.441305 0.441305 0.315997 0.299944 0.299944 0.342605 0.325886 0.293745 0.249252 
0.261453 0.288222 0.300432 0.368733 0.295177 0.308196 0.318378 0.400409 0.421348 
0.354276 0.411447 0.282695 0.382707 0.531758 0.636331 0.703514 0.754113 0.81061 
0.199609 0.200649 0.204036 0.208903 0.240609 0.34208 0.361031 0.371983 0.338301 
0.398104 0.289354 0.225563 0.186439 0.215159 0.204303 0.21628 0.196002 0.176585 
0.188877 0.186954 0.256443 0.25549 0.252938 0.252938 0.225625 0.276529 0.276529 
0.336506 0.336506 0.295525 0.28304 0.28304 0.249322 0.180871 0.180871 0.122245 
0.104894 0.0875737 0.109196 0.10192 0.11862 0.12202 0.12202 0.0984717 0.095821 
0.095821 0.117127 0.119693 0.159602 0.179932 0.20727 0.190997 0.192842 0.17794 
0.138021 0.118588 0.154719 0.210274 0.195838 0.187929 0.180637 0.203115 0.276064 
0.330754 0.342921 0.376552 0.377202 0.37014 0.41493 0.481388 0.496816 0.523675 
0.426752 0.410977 0.440477 0.602936 0.452811 0.410741 0.359272 0.360615 0.31301 
0.336746 0.336746 0.281866 0.321569 0.302899 0.279413 0.239798 0.183347 0.208774 
0.222626 0.286682 0.286682 0.270389 0.224067 0.239392 0.135383 0.130129 0.138883 
0.127967 0.138457 0.175468 0.194223 0.233956 0.128197 0.122019 0.176011 0.122677 
0.154918 0.17432 0.161461 0.13483 0.167656 0.195615 0.252062 0.252062 0.2301 
0.163013 0.253898 0.166286 0.173228 0.314432 0.208414 0.267379 0.187427 0.139071 
0.17529 0.210143 0.218866 0.273968 0.230402 0.191534 0.269593 0.177601 0.29899 
0.219187 0.313834 0.278414 0.252386 0.269078 0.306335 0.281412 0.281412 0.219009 
0.205356 0.170278 0.107851 0.0911799 0.086964 0.138281 0.178342 0.241163 0.318571 
0.199385 0.326317 0.334655 0.33919 0.318428 0.402616 0.276582 0.29376 0.222333 
0.303057 0.385636 0.365715 0.136434 0.168545 0.173862 0.171054 0.16806 0.17542 
0.203846 0.207598 0.170374 0.170374 0.167183 0.170862 0.210112 0.176733 0.157482 
0.177073 0.239382 0.248317 0.241813 0.214329 0.197438 0.262276 0.263503 0.194026 
0.133445 0.112151 0.0744409 0.0993117 0.106141 0.154377 0.176878 0.167368 0.169364 
0.247006 0.236359 0.257888 0.260117 0.260117 0.292596 0.292596 0.271782 0.230094 
0.230094 0.223253 0.240035 0.226668 0.219953 0.230858 0.207212 0.208132 0.213868 
0.197428 0.164892 0.171441 0.165884 0.173778 0.219588 0.251557 0.261125 0.24168 
0.244714 0.201092 0.192965 0.233058 0.17227 0.146253 0.107826 0.101971 0.11917 
0.124947 0.124947 0.158171 0.185905 0.207317 0.195305 0.219072 0.179019 0.0731568 
0.0731568 0.0579616 0.0810234 0.113196 0.0217313 0.0148383 0.0372975 0.00811503 0.0154887 
0.029567 0.0603774 0.0902612 0.149437 0.259044 0.297063 0.206953 0.187932 0.230378 
0.150391 0.115063 0.119431 0.415803 0.518352 0.321062 0.290959 0.380107 0.133432 
0.125055 0.122471 0.0975524 0.120374 0.323942 0.07282 0.116929 0.0914239 0.0934433 
0 0.0166383 0.0469073 0.098195 0.0602535 0.0742008 0.0895087 0.165618 0.231599 
0.217055 0.203808 0.180875 0.19575 0.190074 0.146872 0.151554 
WidthEq 1 421 double
1 2.16412 3.80274 3.14047 3.55619 2.4684 2.79525 1.21324 3.67418 
2.78487 2.25549 3.19786 4.04565 3.84267 3.66224 3.69799 3.01825 1.16087 
3.29044 2.38739 1.73777 2.9244 3.36124 3.50077 2.18279 3.31094 2.64217 
3.17272 3.39387 1.44662 1.01647 2.85109 2.69705 1.44681 1.64394 1.32668 
1.24331 1.02443 1.20084 1.15881 1.08893 1.24809 1.49748 1.70854 2.11238 
2.06851 2.59978 1.55287 1.64756 1.73613 1.73613 1.79707 1.94243 1.75751 
1.83215 2.33904 2.33904 2.96426 3.098 3.36342 2.9552 2.37009 2.83427 
3.56743 3.54059 3.8023 3.91114 3.7473 3.28391 3.17469 2.93848 2.71491 
2.6635 2.63197 2.68964 2.68176 2.52177 3.16503 3.2785 3.34993 3.48515 
3.53384 3.56134 3.63086 3.77892 3.17272 3.24043 3.15453 3.15453 3.29398 
3.40572 3.40572 3.42147 3.32897 3.11677 3.07707 2.88949 2.75866 2.74494 
2.5211 2.5211 3.22076 3.17827 3.17827 2.94964 3.13426 3.21603 3.35747 
3.39434 3.41439 3.53068 2.7172 2.77436 2.78559 2.54469 2.30368 2.13037 
2.27752 2.25706 2.64099 3.04548 2.404 2.15001 1.95743 1.86218 1.75397 
3.50077 3.42284 3.33967 3.0019 2.98675 2.52902 2.3516 2.25203 2.23812 
2.00227 2.40378 2.59006 2.77815 2.68926 2.54649 2.52924 2.49754 2.41285 
2.45061 2.45381 2.27618 2.16081 2.19615 2.19615 2.07129 2.07831 2.07831 
2.0574 2.0574 2.11487 2.1016 2.1016 2.14767 2.40176 2.40176 2.8981 
3.2092 3.32838 3.44456 3.51829 3.5213 3.47647 3.47647 3.806 4.17732 
4.17732 3.29899 2.89728 2.40094 2.10624 1.95245 2.07826 2.36004 2.61555 
2.9766 2.95989 2.80516 2.58327 2.68744 2.76489 2.83041 2.76994 2.52044 
2.23543 2.00615 1.70904 1.56932 1.62246 1.51986 1.351 1.43693 1.58985 
1.85776 1.91235 1.71315 1.29783 1.57314 1.67107 1.749 1.76067 1.75844 
1.76924 1.76924 1.83145 1.96861 2.0681 2.12653 2.18321 2.3459 2.37489 
2.25283 2.17895 2.17895 2.07413 2.11677 2.08769 2.48747 2.56103 2.61412 
2.75593 2.90996 2.72863 2.33777 1.97175 3.43552 3.24825 2.81985 2.70442 
2.31912 2.23045 2.23882 2.37733 2.29914 2.20019 2.01913 2.01913 2.09187 
2.2092 1.93368 2.04968 2.03812 1.88771 2.13399 2.03637 2.27933 2.62173 
2.63311 2.78649 2.87476 2.61729 2.90269 2.966 2.6278 2.44591 1.75311 
3.81264 3.49073 3.30234 3.05244 2.62202 2.3955 2.13904 2.13904 2.45857 
2.77866 2.77023 3.44613 3.66224 3.26104 3.17318 2.88479 2.83173 2.68111 
3.26425 2.84405 2.78864 2.79371 3.00083 2.71604 2.91814 2.87819 2.60903 
2.41645 2.34127 2.79733 3.4347 2.9945 2.59605 2.48345 2.31459 2.39562 
2.32235 2.4709 2.60767 2.60767 2.52018 2.47169 2.50698 2.9122 3.17327 
3.135 2.76076 2.8054 2.72614 2.73197 2.83652 2.69077 2.46147 2.26696 
2.3885 2.48524 2.56115 2.5741 2.44053 2.4206 2.41458 2.26628 2.24707 
3.14069 3.20482 2.69863 2.50157 2.50157 2.1741 2.1741 2.18454 2.24217 
2.24217 2.37173 2.39791 2.55079 2.65855 2.54266 2.73243 2.86751 2.85268 
2.89162 2.98784 2.78475 2.66892 2.56605 2.42894 2.3991 2.1961 2.21698 
2.1631 2.2724 2.48329 2.39347 2.6133 2.65031 2.70387 2.56115 2.44719 
2.24637 2.24637 2.06442 2.03594 2.10293 2.39436 2.43684 2.69756 3.23934 
3.23934 3.03942 2.76683 2.75322 4.00926 3.68649 3.17989 3.18073 3.03248 
2.97038 2.88947 2.883 2.70728 2.32479 2.24592 2.75899 2.78047 2.67826 
3.20973 3.62521 3.60282 2.89334 2.4771 3.4791 3.75754 3.11327 3.03325 
3.0534 2.97114 3.19219 3.31322 3.22309 3.60281 3.20542 3.41919 3.56679 
3.54505 2.80306 2.40854 2.179 2.17054 2.11378 2.08319 2.04355 1.94308 
1.92666 1.79156 1.78253 1.82161 1.98903 2.11856 1.78666 
rRFP 1 421 double
2809.36 3491.59 4451.9 4063.78 4307.41 3669.91 3861.46 2934.33 4376.56 
3855.38 3545.14 4097.41 4594.26 4475.3 4369.56 4390.51 3992.15 2903.64 
4151.67 3622.44 3241.73 3937.15 4193.16 4274.93 3502.53 4163.68 3771.75 
4082.68 4212.28 3071.1 2819.01 3894.19 3803.91 3071.21 3186.74 3000.81 
2951.95 2823.68 2927.06 2902.43 2861.48 2954.75 3100.91 3224.6 3461.27 
3435.56 3746.91 3133.37 3188.86 3240.77 3240.77 3276.48 3361.67 3253.3 
3297.04 3594.1 3594.1 3960.51 4038.89 4194.44 3955.2 3612.3 3884.33 
4314 4298.27 4451.64 4515.43 4419.41 4147.84 4083.83 3945.4 3814.38 
3784.25 3765.77 3799.57 3794.95 3701.19 4078.17 4144.67 4186.53 4265.78 
4294.31 4310.43 4351.17 4437.94 4082.68 4122.36 4072.02 4072.02 4153.74 
4219.23 4219.23 4228.46 4174.25 4049.89 4026.62 3916.69 3840.02 3831.98 
3700.8 3700.8 4110.83 4085.93 4085.93 3951.94 4060.14 4108.06 4190.95 
4212.56 4224.31 4292.46 3815.72 3849.22 3855.8 3714.62 3573.38 3471.81 
3558.05 3546.06 3771.06 4008.11 3632.17 3483.32 3370.46 3314.64 3251.22 
4274.93 4229.26 4180.52 3982.57 3973.69 3705.44 3601.46 3543.11 3534.96 
3396.74 3632.04 3741.21 3851.44 3799.35 3715.68 3705.57 3686.99 3637.36 
3659.49 3661.36 3557.26 3489.65 3510.36 3510.36 3437.19 3441.3 3441.3 
3429.05 3429.05 3462.73 3454.95 3454.95 3481.95 3630.86 3630.86 3921.74 
4104.06 4173.9 4241.99 4285.2 4286.96 4260.69 4260.69 4453.81 4671.42 
4671.42 4156.68 3921.26 3630.38 3457.67 3367.54 3441.27 3606.41 3756.15 
3967.74 3957.95 3867.27 3737.23 3798.28 3843.67 3882.07 3846.63 3700.41 
3533.38 3399.01 3224.89 3143.01 3174.15 3114.02 3015.06 3065.42 3155.04 
3312.05 3344.04 3227.3 2983.9 3145.25 3202.64 3248.31 3255.15 3253.84 
3260.17 3260.17 3296.63 3377.01 3435.32 3469.56 3502.78 3598.12 3615.11 
3543.58 3500.28 3500.28 3438.85 3463.84 3446.8 3681.09 3724.2 3755.31 
3838.42 3928.69 3822.42 3593.36 3378.85 4236.69 4126.94 3875.88 3808.23 
3582.43 3530.46 3535.37 3616.54 3570.72 3512.73 3406.62 3406.62 3449.25 
3518.01 3356.54 3424.52 3417.75 3329.6 3473.93 3416.72 3559.11 3759.77 
3766.44 3856.33 3908.06 3757.17 3924.43 3961.53 3763.33 3656.73 3250.72 
4457.7 4269.05 4158.64 4012.19 3759.94 3627.19 3476.89 3476.89 3664.15 
3851.74 3846.8 4242.91 4369.56 4134.44 4082.95 3913.94 3882.84 3794.57 
4136.32 3890.06 3857.59 3860.56 3981.94 3815.04 3933.48 3910.07 3752.33 
3639.47 3595.41 3862.68 4236.21 3978.23 3744.72 3678.73 3579.77 3627.26 
3584.32 3671.38 3751.53 3751.53 3700.26 3671.84 3692.52 3930 4083 
4060.57 3841.25 3867.41 3820.96 3824.38 3885.65 3800.23 3665.85 3551.86 
3623.09 3679.78 3724.27 3731.86 3653.58 3641.9 3638.37 3551.46 3540.2 
4063.91 4101.49 3804.84 3689.35 3689.35 3497.44 3497.44 3503.56 3537.33 
3537.33 3613.26 3628.6 3718.2 3781.35 3713.43 3824.65 3903.81 3895.12 
3917.94 3974.33 3855.31 3787.43 3727.14 3646.79 3629.3 3510.33 3522.57 
3490.99 3555.05 3678.64 3626 3754.83 3776.52 3807.91 3724.27 3657.48 
3539.79 3539.79 3433.16 3416.47 3455.73 3626.52 3651.42 3804.21 4121.72 
4121.72 4004.56 3844.81 3836.83 4572.93 4383.77 4086.88 4087.37 4000.49 
3964.1 3916.68 3912.89 3809.91 3585.75 3539.53 3840.21 3852.8 3792.9 
4104.37 4347.86 4334.74 3918.95 3675.01 4262.23 4425.41 4047.84 4000.94 
4012.75 3964.54 4094.09 4165.02 4112.2 4334.73 4101.84 4227.12 4313.62 
4300.88 3866.04 3634.83 3500.31 3495.35 3462.09 3444.16 3420.93 3362.05 
3352.43 3273.25 3267.96 3290.86 3388.98 3464.89 3270.38 
rGFP 1 421 double
2773.86 3058.1 3188.27 3189.14 3729.25 3491.09 3146.74 3070.07 3772.56 
3367.21 3623.89 3665.85 3085.93 3394 3228.88 3833.64 3861.95 2927.81 
3187.75 3182.06 3185.89 3203.31 3390.63 3461.07 3716.83 3708.91 3687.91 
3694.12 3326.94 3144.99 3322.96 3826.4 3736.4 3406.19 3391.77 3341.94 
3213 3142.52 3169.33 3138.14 3087.54 3215.81 3226.35 3315.91 3460.84 
3566.54 3655.91 3173.52 3157.99 3153.79 3153.79 3086.64 3098.72 3131.59 
3117.42 3195.12 3195.12 3343.15 3372.56 3445.91 3475.9 3678.6 3568.48 
3411.85 3520.38 3676.73 3721.01 3847.68 3374.9 3518.31 3545.63 3645.38 
3570.32 3578.8 3536.47 3541.01 3561.15 3769.54 3746.54 3767.26 3796.16 
3874.32 3898.04 3899.8 3871.77 3694.12 3665.14 3593.96 3593.96 3615.48 
3686.6 3686.6 3739.63 3798.05 3799.83 3828.4 3879.54 3642.21 3680.99 
3608.75 3608.75 3643.89 3592.57 3592.57 3599.49 3633.9 3592.02 3537 
3577.81 3648.43 3719 3559.69 3439.78 3469.14 3400.3 3443.95 3401.42 
3359.2 3441.56 3369.74 3721.98 3707.89 3733.91 3712.23 3717.47 3714.01 
3461.07 3441.35 3425.51 3338.42 3400.35 3436.53 3399.47 3377.11 3318.65 
3312.4 3299.53 3248.58 3229.46 3259.06 3197.44 3213.69 3168.8 3112.05 
3143.31 3140.89 3202.65 3163.73 3171.26 3171.26 3091.37 3167.62 3167.62 
3246.99 3246.99 3208.16 3185.1 3185.1 3150.19 3116.28 3116.28 3132.2 
3165 3150.67 3226.85 3225.26 3267.11 3265.16 3265.16 3278.38 3350.15 
3350.15 3212.91 3126.83 3080.28 3034.54 3030.22 3043.06 3124.73 3169.04 
3183.22 3138.88 3174.57 3218.85 3222.14 3228.69 3232.37 3259.56 3316.65 
3305.8 3236.48 3162.23 3105.8 3119.53 3125.72 3115.02 3172.01 3277.36 
3288.4 3291.51 3240.64 3199.89 3190.7 3186.73 3157.4 3163.69 3104.15 
3137.51 3137.51 3090.8 3192.56 3202.37 3188.26 3146.99 3105.16 3155.4 
3141.69 3217.23 3217.23 3157.28 3102.85 3116.48 3060.31 3068.54 3097.12 
3110.43 3167.99 3194.83 3120.75 3072.69 3270.58 3212.51 3220.36 3088.31 
3051.64 3059.46 3041.53 3032.95 3067.09 3084.2 3112.95 3112.95 3104.17 
3036.28 3087.94 2999.6 3006.49 3153.15 3084.65 3140.35 3093.46 3099.31 
3168.89 3278.04 3321.42 3345.6 3353.22 3291.86 3341.09 3122.68 3084.99 
3602.26 3737.57 3586.84 3446.15 3338.21 3325.15 3195.52 3195.52 3197.42 
3266.43 3195.91 3223.95 3228.88 3135.37 3231.35 3242.51 3352.81 3450.9 
3393.14 3526.36 3521.94 3532.74 3568.38 3623.7 3452.37 3473.47 3248.43 
3327.14 3435.72 3586.11 3290.21 3251.59 3156.36 3121.41 3071.8 3105.46 
3132.07 3181.35 3153.09 3153.09 3124.31 3117.96 3196.25 3246.63 3274.06 
3307.31 3327.07 3358.6 3320.88 3270.11 3267.42 3348.33 3275.02 3100.52 
3033.31 3019.32 2968.64 3016.05 2999.04 3076.47 3113.01 3058 3056.1 
3462.73 3459.23 3342.62 3282.31 3282.31 3224.56 3224.56 3196.36 3150.21 
3150.21 3178.54 3214.63 3238.65 3258.9 3243.64 3256.62 3297.69 3304.84 
3283.02 3242.19 3202.02 3160.9 3148.2 3189.56 3234.37 3183.84 3160.49 