# vtk DataFile Version 3.0
vtk output
ASCII
DATASET POLYDATA
POINTS 253 float
3.40059 0.694908 -0.13865 2.67205 0.438076 0.0464345 3.92952 0.368137 -0.0694779 
3.69301 0.173042 0.231397 2.82001 -0.177674 0.715241 1.59943 -0.64227 1.34803 
2.74264 0.567534 -0.953592 2.57689 0.236998 -0.65074 4.19084 0.0835418 0.05194 
4.30599 0.0683456 0.0923835 1.26276 -0.950769 1.12687 2.35638 0.317977 -1.36877 
3.13845 0.197957 -1.19713 0.882592 -1.11162 0.868954 0.580982 -0.36344 -0.833473 
3.43562 -0.380743 -0.440614 3.32927 -0.339597 -1.70804 0.443423 -1.60148 0.0653409 
0.674357 -2.00187 0.379351 0.502085 -2.18084 -0.91773 0.508238 -2.18256 -0.85555 
0.523344 -2.17043 -0.786486 0.554813 -2.15006 -0.714725 0.581742 -2.13661 -0.646404 
0.617516 -2.14785 -0.593531 0.647899 -2.17897 -0.55149 0.686062 -2.22206 -0.517385 
0.716336 -2.25319 -0.475338 0.750673 -2.27101 -0.426098 0.766845 -2.27161 -0.364548 
0.774226 -2.26678 -0.298724 0.786451 -2.24214 -0.222031 0.80263 -2.2042 -0.138137 
0.785518 -2.15074 -0.0409895 0.763505 -2.09782 0.0564715 0.732754 -2.04589 0.154476 
0.710261 -2.01229 0.240797 0.684074 -1.99837 0.316176 0.391479 -1.60263 0.119154 
0.337115 -1.58441 0.169019 0.284058 -1.5674 0.235758 0.234014 -1.55517 0.310961 
0.19647 -1.5489 0.383233 0.185429 -1.53328 0.457661 0.187634 -1.50971 0.534887 
0.202899 -1.47731 0.613441 0.244035 -1.43691 0.681712 0.295807 -1.394 0.73245 
0.351624 -1.36475 0.792254 0.408926 -1.34593 0.855321 0.464852 -1.31667 0.915119 
0.518636 -1.27348 0.965644 0.573405 -1.23056 1.03138 0.628174 -1.18764 1.09711 
0.681947 -1.14441 1.14755 0.738151 -1.1206 1.20202 0.795777 -1.11585 1.24514 
0.852192 -1.10979 1.2713 0.908785 -1.10455 1.29884 0.962128 -1.08036 1.30844 
1.01427 -1.05491 1.30115 1.06997 -1.04842 1.31509 1.12665 -1.04406 1.31329 
1.18852 -1.01852 1.26322 3.28067 -0.159906 -1.51719 3.2169 0.0186579 -1.34585 
3.42793 -0.359931 -0.491527 3.40948 -0.353163 -0.549209 3.3656 -0.368507 -0.616465 
3.31037 -0.391555 -0.686738 3.25277 -0.408493 -0.753037 3.19382 -0.407249 -0.806505 
3.13503 -0.398308 -0.843783 3.07763 -0.391513 -0.86262 3.01988 -0.383112 -0.884226 
2.96353 -0.376857 -0.887391 2.90684 -0.35648 -0.870707 2.84697 -0.295281 -0.830142 
2.77983 -0.1756 -0.769836 2.6934 0.0107451 -0.708137 0.615646 -0.331457 -0.88332 
0.635274 -0.301158 -0.932224 0.660138 -0.270273 -0.981456 0.679875 -0.239963 -1.03037 
0.716344 -0.207777 -1.08033 0.761026 -0.174672 -1.1308 0.797604 -0.142474 -1.18077 
0.819256 -0.111949 -1.2298 0.855943 -0.079739 -1.27978 0.90243 -0.0464308 -1.33037 
0.948917 -0.0131229 -1.38095 0.985595 0.0190858 -1.43093 1.00726 0.0496121 -1.47996 
1.04394 0.0818219 -1.52993 1.09054 0.115142 -1.58053 1.13894 0.148665 -1.63124 
1.18745 0.182199 -1.68196 1.23596 0.215734 -1.73267 1.28447 0.249269 -1.78339 
1.33298 0.282804 -1.83411 1.3815 0.316284 -1.88473 1.43023 0.348856 -1.93379 
1.48006 0.376393 -1.97416 1.53176 0.395464 -1.99993 1.58242 0.423428 -2.0263 
1.63291 0.460584 -2.03906 1.6814 0.519365 -2.04491 1.73128 0.576114 -2.03249 
1.78207 0.628677 -2.01287 1.83266 0.677975 -2.00237 1.88231 0.735182 -1.99078 
1.93469 0.771138 -1.94277 1.97824 0.788478 -1.87894 1.99859 0.78203 -1.82156 
2.01859 0.756172 -1.77514 2.05494 0.712885 -1.74092 2.0875 0.649908 -1.71763 
2.12566 0.581127 -1.69843 2.14661 0.516849 -1.67441 2.15792 0.470754 -1.63862 
2.17648 0.438311 -1.59584 2.21129 0.414114 -1.55035 2.24109 0.389354 -1.50455 
2.27793 0.365383 -1.45919 2.30964 0.340838 -1.41351 1.16991 -1.00964 0.982664 
1.10186 -1.0575 0.894397 1.04601 -1.08663 0.86523 0.991708 -1.09945 0.8622 
0.937144 -1.10551 0.86553 3.14956 0.275556 -1.05936 3.14401 0.338438 -0.947475 
3.12815 0.38706 -0.85171 3.13404 0.432372 -0.762143 3.13125 0.481013 -0.669619 
3.16272 0.527086 -0.582961 3.21456 0.571472 -0.499649 3.2707 0.615753 -0.412668 
3.33091 0.661859 -0.299041 3.05311 0.192075 -1.26622 2.98676 0.175907 -1.32034 
2.93126 0.14819 -1.34861 2.87638 0.13207 -1.36722 2.81932 0.133139 -1.39092 
2.76345 0.133024 -1.39784 2.70799 0.135206 -1.39398 2.65116 0.147828 -1.39341 
2.5922 0.174313 -1.402 2.53537 0.186939 -1.40141 2.47895 0.201908 -1.39014 
2.42 0.240973 -1.3762 2.30798 0.284455 -1.31806 2.2615 0.251147 -1.26747 
2.22646 0.225546 -1.21388 2.21925 0.215902 -1.15458 2.23413 0.227997 -1.08551 
2.27503 0.255855 -1.01062 2.31747 0.290309 -0.932094 2.3467 0.323283 -0.852745 
2.39013 0.347546 -0.780213 2.43737 0.347442 -0.72139 2.48639 0.306593 -0.680932 
2.65423 0.389613 -0.654235 2.70744 0.512555 -0.660153 2.7405 0.592302 -0.683053 
2.74812 0.625125 -0.729006 2.74649 0.620939 -0.795189 2.74438 0.597428 -0.872517 
1.29402 -0.956372 1.28816 1.33921 -0.930997 1.36781 1.39104 -0.891024 1.41056 
1.43949 -0.82063 1.42562 1.48771 -0.74485 1.43474 1.53923 -0.682708 1.40897 
1.34697 -0.799123 1.15969 1.41254 -0.725675 1.20423 1.46944 -0.699339 1.22689 
1.52914 -0.674685 1.2625 4.24969 0.0701601 0.0821361 2.55206 0.308466 -0.51495 
2.56438 0.382816 -0.399785 2.57349 0.447583 -0.297999 2.57675 0.481466 -0.214735 
2.58066 0.48588 -0.148629 2.58907 0.464453 -0.0965822 2.6135 0.44721 -0.0349911 
1.67667 -0.581411 1.38619 1.73575 -0.519632 1.40584 1.78567 -0.461043 1.4005 
1.83623 -0.423894 1.38776 1.88689 -0.39593 1.3614 1.93859 -0.376859 1.33562 
1.98842 -0.349322 1.29525 2.03714 -0.31675 1.24619 2.08566 -0.28327 1.19557 
2.13418 -0.249735 1.14486 2.18269 -0.216201 1.09414 2.23109 -0.182678 1.04343 
2.27768 -0.149358 0.992834 2.31426 -0.11716 0.942866 2.3339 -0.0868605 0.893962 
2.35721 -0.0625737 0.841103 2.36416 -0.0465346 0.78555 2.36386 -0.0441564 0.723004 
2.3713 -0.0344875 0.663696 2.39556 -0.0229412 0.603327 2.41558 0.000985234 0.550679 
2.45119 0.0202268 0.493323 2.48595 0.0522212 0.443469 2.50645 0.0954643 0.401961 
2.53871 0.159281 0.370879 2.56906 0.222891 0.339921 2.57544 0.270968 0.303019 
2.57286 0.305202 0.259234 2.5789 0.333997 0.211149 2.60233 0.365069 0.161418 
2.62593 0.398173 0.10826 2.86219 -0.0870507 0.698435 2.89744 -0.0357387 0.65972 
2.92006 -0.0180089 0.603274 2.95793 0.000451756 0.54755 3.00512 0.039489 0.516556 
3.05679 0.0707533 0.513964 3.11173 0.0793191 0.521031 3.16818 0.0725887 0.525035 
3.21955 0.0931603 0.496675 3.26824 0.13006 0.454876 3.31879 0.150164 0.412602 
3.37371 0.137819 0.382065 3.4302 0.114123 0.356363 3.48465 0.108099 0.329668 
3.5354 0.127281 0.288962 3.58567 0.152834 0.252012 3.6387 0.165857 0.23667 
3.8846 0.365459 -0.129128 3.85166 0.382456 -0.176783 3.80277 0.418203 -0.199785 
3.7449 0.457047 -0.199978 3.68352 0.512627 -0.193904 3.61964 0.567982 -0.170242 
3.53388 0.628795 -0.144004 2.75984 0.413285 0.0996723 2.82966 0.392684 0.143515 
2.88884 0.384091 0.16563 2.94202 0.396728 0.150963 2.995 0.414192 0.142703 
3.04771 0.441282 0.147305 3.09807 0.491597 0.156055 3.14629 0.555845 0.155539 
3.19644 0.607127 0.162621 3.24809 0.636565 0.154344 3.29873 0.656459 0.106576 
3.3496 0.669405 0.0121504 
LINES 18 287
20 19 20 21 22 23 24 25 26 27 28 29 30 31 32 33 34 35 36 37 18 
28 17 38 39 40 41 42 43 44 45 46 47 48 49 50 51 52 53 54 55 56 57 58 59 60 61 62 63 10 
4 16 64 65 12 
16 15 66 67 68 69 70 71 72 73 74 75 76 77 78 79 7 
47 14 80 81 82 83 84 85 86 87 88 89 90 91 92 93 94 95 96 97 98 99 100 101 102 103 104 105 106 107 108 109 110 111 112 113 114 115 116 117 118 119 120 121 122 123 124 11 
7 10 125 126 127 128 129 13 
11 12 130 131 132 133 134 135 136 137 138 0 
14 12 139 140 141 142 143 144 145 146 147 148 149 150 11 
13 11 151 152 153 154 155 156 157 158 159 160 161 7 
8 7 162 163 164 165 166 167 6 
8 10 168 169 170 171 172 173 5 
6 10 174 175 176 177 5 
3 9 178 8 
9 7 179 180 181 182 183 184 185 1 
33 5 186 187 188 189 190 191 192 193 194 195 196 197 198 199 200 201 202 203 204 205 206 207 208 209 210 211 212 213 214 215 216 1 
19 4 217 218 219 220 221 222 223 224 225 226 227 228 229 230 231 232 233 3 
9 2 234 235 236 237 238 239 240 0 
14 1 241 242 243 244 245 246 247 248 249 250 251 252 0 

POINT_DATA 253
SCALARS DY_raw double
LOOKUP_TABLE default
54.307 62.4046 41.4882 56.0154 1.3242 15.6665 89.2547 60.9255 45.8798 
22.0271 32.6215 64.2655 49.8927 40.4089 52.0658 34.4572 57.4681 92.22 
52.0882 83.709 73.0576 73.0576 65.7518 70.5057 70.5057 61.3471 58.7351 
63.2492 58.535 58.535 54.8003 52.6133 52.8444 51.8528 51.5683 65.6094 
51.9522 45.588 90.759 85.269 73.39 61.7355 54.3857 58.0889 60.0351 
60.6593 63.6007 64.3616 60.6282 61.3049 61.8239 57.4001 57.7002 55.618 
46.3075 44.8031 49.5044 41.626 42.2467 39.2841 39.2841 26.8468 26.5353 
25.7026 34.5062 36.2322 34.4572 36.5859 42.4331 40.612 33.5297 32.0017 
34.1793 33.2833 36.0362 35.9427 42.3358 49.1848 40.6881 55.4727 52.0658 
26.5136 26.5136 29.7875 23.0158 23.0158 26.4239 30.6617 27.6411 32.8543 
35.8342 41.4861 47.9954 53.3701 57.3425 53.4667 53.4667 45.7687 47.8591 
44.8253 68.1467 60.5999 60.1522 25.8321 25.8321 31.7077 32.5399 41.1253 
40.9137 40.6431 40.1602 39.5962 51.2162 48.3507 68.8408 56.1363 75.9312 
84.6311 66.1336 76.969 76.969 66.3296 67.0859 67.0859 71.116 39.0065 
44.0787 45.4629 45.1644 48.7796 52.7317 48.3177 49.1365 45.2695 56.1685 
60.9884 65.8314 64.204 51.7847 49.5161 48.8456 49.5736 59.5827 59.5827 
55.7765 64.6947 66.1021 61.1731 61.1731 64.0131 60.753 69.1405 51.279 
37.5709 36.2953 41.3538 52.9357 49.7394 39.5126 46.4078 52.2827 50.5733 
59.5833 54.109 54.8521 63.3567 53.4725 85.1533 27.4089 25.1225 31.6283 
29.5763 26.1039 20.5385 42.5054 38.9431 31.6629 22.454 45.5453 44.4253 
41.1912 38.8593 25.7204 29.0349 38.7837 63.8569 18.2781 17.2788 14.3741 
8.12056 8.12056 6.15054 4.98607 0.565507 13.9466 13.9466 20.6698 16.067 
12.026 16.9041 22.9438 22.9438 34.6063 30.4429 30.4429 20.2214 14.8116 
0 6.8002 15.8515 34.8001 28.1074 28.1074 18.9742 15.7958 36.8778 
54.5314 21.7666 28.2308 35.4307 36.8825 31.1402 31.1402 26.9157 22.2451 
34.2924 34.1363 37.1911 19.5314 23.1955 23.3403 35.8531 46.7563 58.2455 
33.4747 37.1128 38.7606 45.9312 47.3105 59.0394 62.3731 45.4781 26.4521 
24.0903 30.6859 27.8983 44.6066 47.0468 47.5078 46.2799 45.9482 35.9166 
35.7974 
FIELD FieldData 7
DY_minmax 1 253 double
0.588886 0.676693 0.449883 0.607411 0.0143591 0.169882 0.967845 0.660654 0.497504 
0.238854 0.353736 0.696871 0.541018 0.43818 0.564583 0.373642 0.623163 1 
0.564826 0.90771 0.79221 0.79221 0.712988 0.764538 0.764538 0.665225 0.636902 
0.685851 0.634732 0.634732 0.594234 0.570519 0.573025 0.562273 0.559188 0.711444 
0.563351 0.494339 0.984158 0.924625 0.795815 0.669437 0.589738 0.629895 0.650999 
0.657767 0.689662 0.697914 0.65743 0.664768 0.670395 0.622426 0.62568 0.603101 
0.502142 0.485828 0.536808 0.451377 0.458108 0.425983 0.425983 0.291117 0.287739 
0.278709 0.374173 0.392889 0.373642 0.396724 0.460129 0.440382 0.363584 0.347015 
0.370628 0.360912 0.390764 0.38975 0.459074 0.533342 0.441207 0.601526 0.564583 
0.287504 0.287504 0.323005 0.249575 0.249575 0.286531 0.332484 0.29973 0.35626 
0.388573 0.44986 0.520445 0.578726 0.621801 0.579773 0.579773 0.496299 0.518967 
0.486069 0.738958 0.657123 0.652269 0.280114 0.280114 0.343826 0.352851 0.445947 
0.443653 0.440719 0.435482 0.429366 0.55537 0.524298 0.746484 0.608721 0.82337 
0.917709 0.717128 0.834624 0.834624 0.719254 0.727455 0.727455 0.771156 0.422972 
0.477973 0.492983 0.489747 0.528948 0.571804 0.52394 0.532818 0.490885 0.609071 
0.661336 0.713852 0.696205 0.561535 0.536935 0.529664 0.537558 0.646093 0.646093 
0.60482 0.701526 0.716787 0.663338 0.663338 0.694135 0.658783 0.749734 0.55605 
0.407406 0.393573 0.448425 0.574015 0.539356 0.42846 0.503229 0.566934 0.548398 
0.646099 0.586738 0.594796 0.687017 0.579836 0.923372 0.297212 0.272419 0.342966 
0.320714 0.283061 0.222712 0.460913 0.422284 0.343341 0.243483 0.493877 0.481732 
0.446662 0.421376 0.278903 0.314844 0.420556 0.69244 0.198201 0.187365 0.155867 
0.0880563 0.0880563 0.0666942 0.0540671 0.00613216 0.151231 0.151231 0.224136 0.174225 
0.130406 0.183302 0.248794 0.248794 0.375258 0.330112 0.330112 0.219273 0.160612 
0 0.0737388 0.171888 0.37736 0.304786 0.304786 0.205749 0.171284 0.39989 
0.591319 0.236029 0.306124 0.384198 0.39994 0.337673 0.337673 0.291864 0.241218 
0.371854 0.370162 0.403287 0.211791 0.251523 0.253094 0.388778 0.507008 0.631593 
0.362988 0.402438 0.420306 0.498061 0.513018 0.640201 0.676352 0.493148 0.286837 
0.261227 0.332747 0.302519 0.483697 0.510158 0.515157 0.501842 0.498245 0.389467 
0.388174 
WidthEq 1 253 double
2.20211 1.60501 1.7241 1.5153 1.55566 2.76768 1.77313 3.18241 1.43767 
1.01466 2.29634 2.08168 3.60494 3.2963 1.61123 2.75965 3.17881 1 
2.13714 2.43809 3.25579 3.25579 3.26638 2.88601 2.88601 2.99102 3.21137 
2.86011 3.37251 3.37251 3.12425 3.3731 3.22967 3.16087 3.06254 2.9066 
2.5073 2.11854 1.24638 1.44754 1.6411 1.87121 1.94316 2.88472 2.94661 
3.33552 3.47402 3.50411 3.50909 3.41441 3.28918 2.98937 2.89583 2.67629 
2.49247 2.38801 2.33535 2.12944 2.17555 2.27776 2.27776 2.4353 2.5483 
2.58612 3.37504 3.42182 2.75965 3.02138 3.14802 3.26357 3.21357 3.04733 
2.76512 2.54873 2.36429 2.20684 2.09303 2.05043 2.1682 2.68564 1.61123 
1.72327 1.72327 1.6517 1.60238 1.60238 1.65456 1.79247 1.72859 1.93369 
1.99363 1.97416 2.01436 1.90125 1.8046 1.73566 1.73566 1.52506 1.60408 
1.61226 1.56838 1.70363 1.77716 2.12023 2.12023 2.49088 2.69147 2.5471 
2.79271 2.70599 2.70841 2.68991 2.22586 2.14805 1.87069 1.82948 1.59513 
1.61513 1.57031 1.44838 1.44838 1.7015 1.85792 1.85792 2.31875 2.28244 
2.58628 3.07349 3.59464 3.49942 3.36875 3.07858 2.84554 2.98568 2.7608 
2.49539 2.19287 1.98305 2.04346 3.534 3.07213 2.92918 2.64976 2.64976 
2.74793 2.56451 2.43063 2.51075 2.51075 2.15597 2.54621 2.57056 2.88754 
2.87589 3.24339 3.26161 3.001 3.04748 3.13672 3.31065 3.48223 3.54496 
2.65293 2.26377 1.93429 1.83864 1.88994 1.60874 2.50539 2.25813 2.25241 
2.28291 2.61072 2.74606 2.04892 1.89507 2.3567 2.46059 1.50883 3.16509 
2.89698 2.76614 2.48363 2.00173 1.87656 1.80529 2.64579 2.44866 2.17823 
1.80776 1.80776 1.70066 1.84915 1.85674 2.15394 2.15394 2.18918 2.05577 
1.98818 1.89835 1.86064 1.86064 1.7858 1.78695 1.78695 1.69919 1.73985 
1.66892 1.55584 1.56767 1.4839 1.36441 1.36441 1.40454 1.42886 1.48301 
1.66234 2.1147 2.17564 2.04399 1.94456 1.868 1.868 1.44451 1.47808 
1.33353 1.32322 1.41835 1.60408 1.7525 1.87572 1.83248 1.92701 1.84237 
2.28172 2.81466 2.98731 2.76631 2.66009 2.36317 2.21586 1.46246 1.55904 
1.75257 1.79952 1.84492 1.90801 1.87452 1.96873 2.05856 2.03817 2.11156 
2.22921 
rRFP 1 253 double
3720.43 3314.37 3395.36 3253.36 3280.81 4105.05 3428.7 4387.09 3200.57 
2912.9 3784.51 3638.53 4674.43 4464.54 3318.6 4099.59 4384.64 2902.93 
3676.25 3880.91 4436.99 4436.99 4444.19 4185.52 4185.52 4256.93 4406.78 
4167.91 4516.37 4516.37 4347.54 4516.77 4419.23 4372.44 4305.57 4199.52 
3927.98 3663.6 3070.48 3207.28 3338.91 3495.4 3544.33 4184.64 4226.73 
4491.21 4585.4 4605.86 4609.25 4544.86 4459.7 4255.81 4192.2 4042.9 
3917.89 3846.85 3811.04 3671.01 3702.37 3771.88 3771.88 3879.01 3955.86 
3981.58 4518.09 4549.9 4099.59 4277.58 4363.7 4442.28 4408.28 4295.23 
4103.31 3956.15 3830.72 3723.65 3646.25 3617.28 3697.37 4049.26 3318.6 
3394.79 3394.79 3346.12 3312.58 3312.58 3348.07 3441.85 3398.41 3537.89 
3578.65 3565.41 3592.75 3515.83 3450.1 3403.22 3403.22 3260 3313.74 
3319.3 3289.46 3381.44 3431.44 3664.75 3664.75 3916.81 4053.22 3955.04 
4122.07 4063.1 4064.74 4052.16 3736.58 3683.67 3495.05 3467.02 3307.65 
3321.25 3290.77 3207.85 3207.85 3379.99 3486.36 3486.36 3799.75 3775.06 
3981.69 4313.02 4667.43 4602.67 4513.81 4316.48 4158 4253.3 4100.37 
3919.88 3714.15 3571.46 3612.54 4626.19 4312.09 4214.88 4024.86 4024.86 
4091.62 3966.88 3875.84 3930.32 3930.32 3689.05 3954.44 3971 4186.56 
4178.64 4428.56 4440.95 4263.72 4295.33 4356.02 4474.3 4590.98 4633.64 
4027.01 3762.36 3538.3 3473.25 3508.14 3316.91 3926.68 3758.53 3754.64 
3775.38 3998.31 4090.35 3616.25 3511.63 3825.56 3896.21 3248.96 4375.31 
4192.98 4104 3911.88 3584.16 3499.04 3450.57 4022.16 3888.1 3704.19 
3452.25 3452.25 3379.42 3480.4 3485.56 3687.67 3687.67 3711.64 3620.91 
3574.95 3513.86 3488.21 3488.21 3437.32 3438.1 3438.1 3378.42 3406.07 
3357.83 3280.93 3288.98 3232.01 3150.75 3150.75 3178.04 3194.58 3231.4 
3353.36 3660.99 3702.43 3612.9 3545.28 3493.22 3493.22 3205.22 3228.05 
3129.75 3122.74 3187.43 3313.74 3414.67 3498.47 3469.06 3533.35 3475.79 
3774.57 4137 4254.41 4104.12 4031.88 3829.96 3729.78 3217.43 3283.11 
3414.72 3446.65 3477.52 3520.43 3497.65 3561.72 3622.81 3608.94 3658.85 
3738.86 
rGFP 1 253 double
2662.75 2643.32 2614.69 2628.04 2545.22 2586.52 2701.42 2737.05 2609.12 
2565.51 2618.07 2676.94 2723.02 2676.36 2627.05 2638.25 2725.84 2635.38 
2654.48 2747.25 2781.02 2781.02 2757.93 2746.64 2746.64 2726.65 2731.78 
2724.06 2740.57 2740.57 2714.37 2720.63 2713.83 2707.06 2701.09 2733.86 
2673.42 2639.74 2656.28 2666.59 2663.6 2658.68 2648.84 2710.73 2720.06 
2745.49 2764.11 2768.69 2755.91 2752.48 2746.51 2714.75 2710.25 2692.01 
2658.58 2650.15 2658.77 2631.8 2635.07 2632.64 2632.64 2608.54 2610.78 
2609.63 2659.62 2667.14 2638.25 2653.7 2676.74 2675.7 2650.91 2640.68 
2637.67 2627.99 2628.36 2622.48 2631.77 2644.01 2631.38 2692.14 2627.05 
2588.85 2588.85 2592.36 2580.04 2580.04 2586.88 2598.12 2590.94 2606.69 
2614.6 2625.06 2639.84 2644.63 2646.64 2635.96 2635.96 2612.96 2619.93 
2615.43 2650.04 2646.4 2650.06 2597.93 2597.93 2622.14 2630.74 2647.91 
2657.42 2653.14 2651.93 2649.67 2657.16 2647.02 2671.94 2645.86 2664.28 
2679.85 2647.01 2654.64 2654.64 2656.02 2667.8 2667.8 2708.06 2632.19 
2657.16 2682.89 2705.51 2713.86 2720.8 2691.91 2682.98 2678.32 2698.23 
2695.35 2687.52 2670.48 2648.98 2718.15 2693.22 2688.37 2701.04 2701.04 
2696.43 2709.07 2703.83 2696.75 2696.75 2681.17 2697.85 2720.89 2691.23 
2651.21 2660.88 2678.04 2702.02 2694.74 2667.1 2696.8 2725.22 2722.44 
2701.23 2665.65 2649.26 2659.65 2644.22 2680.15 2611.83 2599.89 2614.4 
2610.68 2611.31 2599.56 2630.25 2616.96 2617.78 2598.41 2611.88 2683.77 
2662.49 2650.65 2607.04 2601.28 2615.94 2658.44 2591.52 2585.47 2574.47 
2557.84 2557.84 2553.62 2552.38 2544.21 2573.2 2573.2 2588.41 2576.19 
2567.07 2575.25 2585.85 2585.85 2604.96 2597.56 2597.56 2577.52 2568.93 
2543.16 2553.74 2568.01 2594.8 2581.51 2581.51 2569.81 2565.73 2597.85 
2633.81 2589.19 2604.58 2615.58 2614.88 2601.33 2601.33 2582.04 2576.04 
2588.89 2588.33 2595.91 2574.49 2583.81 2586.94 2608.86 2633.26 2650.47 
2619.54 2647.62 2658.95 2670.22 2669.01 2682.68 2681.37 2609.67 2584.4 
2585.38 2598.38 2594.63 2628.27 2631.35 2636.69 2638.43 2636.81 2619 
2622.96 
bkstRFP 1 253 double
1497.55 1091.49 1172.49 1030.49 1057.93 1882.18 1205.82 2164.22 977.695 
690.025 1561.64 1415.66 2451.56 2241.67 1095.72 1876.72 2161.77 680.055 
1453.38 1658.03 2214.11 2214.11 2221.31 1962.65 1962.65 2034.06 2183.9 
1945.03 2293.49 2293.49 2124.67 2293.9 2196.35 2149.56 2082.69 1976.65 
1705.11 1440.72 847.605 984.405 1116.03 1272.53 1321.45 1961.77 2003.85 
2268.34 2362.52 2382.98 2386.38 2321.98 2236.82 2032.94 1969.32 1820.03 
1695.01 1623.97 1588.17 1448.14 1479.49 1549.01 1549.01 1656.14 1732.99 
1758.7 2295.22 2327.02 1876.72 2054.7 2140.82 2219.4 2185.4 2072.35 
1880.44 1733.28 1607.84 1500.78 1423.38 1394.41 1474.49 1826.39 1095.72 
1171.92 1171.92 1123.24 1089.7 1089.7 1125.2 1218.97 1175.53 1315.01 
1355.78 1342.53 1369.88 1292.95 1227.22 1180.34 1180.34 1037.13 1090.86 
1096.43 1066.59 1158.57 1208.57 1441.88 1441.88 1693.93 1830.34 1732.17 
1899.19 1840.22 1841.86 1829.28 1513.7 1460.8 1272.18 1244.15 1084.78 
1098.38 1067.9 984.975 984.975 1157.11 1263.49 1263.49 1576.88 1552.18 
1758.82 2090.15 2444.56 2379.8 2290.94 2093.6 1935.13 2030.43 1877.49 
1697.01 1491.28 1348.59 1389.67 2403.31 2089.22 1992.01 1801.99 1801.99 
1868.74 1744.01 1652.97 1707.45 1707.45 1466.18 1731.57 1748.13 1963.69 
1955.77 2205.69 2218.07 2040.85 2072.45 2133.15 2251.43 2368.1 2410.77 
1804.14 1539.49 1315.43 1250.38 1285.26 1094.03 1703.8 1535.66 1531.76 
1552.51 1775.43 1867.47 1393.38 1288.76 1602.68 1673.34 1026.09 2152.44 
1970.1 1881.13 1689.01 1361.28 1276.17 1227.7 1799.28 1665.22 1481.32 
1229.38 1229.38 1156.55 1257.53 1262.68 1464.8 1464.8 1488.76 1398.03 
1352.07 1290.99 1265.34 1265.34 1214.45 1215.22 1215.22 1155.55 1183.2 
1134.95 1058.05 1066.11 1009.14 927.875 927.875 955.165 971.705 1008.53 
1130.49 1438.11 1479.55 1390.03 1322.41 1270.34 1270.34 982.345 1005.18 
906.875 899.865 964.555 1090.86 1191.8 1275.59 1246.18 1310.47 1252.92 
1551.7 1914.13 2031.53 1881.24 1809.01 1607.09 1506.91 994.555 1060.24 
1191.84 1223.78 1254.65 1297.55 1274.78 1338.84 1399.93 1386.07 1435.97 
1515.99 
bkstGFP 1 253 double
119.59 100.16 71.53 84.88 2.06 43.36 158.26 193.89 65.96 
22.35 74.91 133.78 179.86 133.2 83.89 95.09 182.68 92.22 
111.32 204.09 237.86 237.86 214.77 203.48 203.48 183.49 188.62 
180.9 197.41 197.41 171.21 177.47 170.67 163.9 157.93 190.7 
130.26 96.58 113.12 123.43 120.44 115.52 105.68 167.57 176.9 
202.33 220.95 225.53 212.75 209.32 203.35 171.59 167.09 148.85 
115.42 106.99 115.61 88.64 91.91 89.48 89.48 65.38 67.62 
66.47 116.46 123.98 95.09 110.54 133.58 132.54 107.75 97.52 
94.51 84.83 85.2 79.32 88.61 100.85 88.22 148.98 83.89 
45.69 45.69 49.2 36.88 36.88 43.72 54.96 47.78 63.53 
71.44 81.9 96.68 101.47 103.48 92.8 92.8 69.8 76.77 
72.27 106.88 103.24 106.9 54.77 54.77 78.98 87.58 104.75 
114.26 109.98 108.77 106.51 114 103.86 128.78 102.7 121.12 
136.69 103.85 111.48 111.48 112.86 124.64 124.64 164.9 89.03 
114 139.73 162.35 170.7 177.64 148.75 139.82 135.16 155.07 
152.19 144.36 127.32 105.82 174.99 150.06 145.21 157.88 157.88 
153.27 165.91 160.67 153.59 153.59 138.01 154.69 177.73 148.07 
108.05 117.72 134.88 158.86 151.58 123.94 153.64 182.06 179.28 
158.07 122.49 106.1 116.49 101.06 136.99 68.67 56.73 71.24 
67.52 68.15 56.4 87.09 73.8 74.62 55.25 68.72 140.61 
119.33 107.49 63.88 58.12 72.78 115.28 48.36 42.31 31.31 
14.68 14.68 10.46 9.22 1.05 30.04 30.04 45.25 33.03 
23.91 32.09 42.69 42.69 61.8 54.4 54.4 34.36 25.77 
0 10.58 24.85 51.64 38.35 38.35 26.65 22.57 54.69 
90.65 46.03 61.42 72.42 71.72 58.17 58.17 38.88 32.88 
45.73 45.17 52.75 31.33 40.65 43.78 65.7 90.1 107.31 
76.38 104.46 115.79 127.06 125.85 139.52 138.21 66.51 41.24 
42.22 55.22 51.47 85.11 88.19 93.53 95.27 93.65 75.84 
79.8 
tubeWidth 1 253 double
0.142167 0.189615 0.141657 0.209915 0.195158 0.293466 0.0541248 0.252513 0.221958 
0.220127 0.0969843 0.203663 0.273723 0.242249 0.220374 0.191759 0.213214 0.108268 
0.0992781 0.308165 0.310835 0.287544 0.26732 0.198345 0.170645 0.193166 0.191782 
0.210714 0.198575 0.233328 0.28288 0.272786 0.275562 0.276717 0.278438 0.243083 
0.236658 0.164601 0.177984 0.224942 0.199907 0.143824 0.192663 0.235291 0.281558 
0.293092 0.286974 0.278286 0.240766 0.242099 0.234575 0.241956 0.207329 0.228872 
0.223739 0.166745 0.160395 0.147867 0.176402 0.205496 0.197718 0.221959 0.218863 
0.137211 0.174044 0.24592 0.273462 0.296263 0.265177 0.251519 0.2177 0.211956 
0.217598 0.224693 0.235825 0.217028 0.217406 0.21688 0.172974 0.155716 0.238903 
0.21232 0.208162 0.176572 0.191497 0.159658 0.169395 0.199415 0.211331 0.207943 
0.207307 0.173478 0.1983 0.21283 0.215219 0.210859 0.159926 0.16105 0.162655 
0.172882 0.209976 0.215663 0.206107 0.175374 0.192771 0.222503 0.234848 0.24623 
0.212463 0.234749 0.296107 0.272906 0.248261 0.216334 0.174693 0.196348 0.215824 
0.225713 0.220778 0.202831 0.188361 0.154735 0.170809 0.174915 0.202478 0.135339 
0.20928 0.205125 0.205551 0.208087 0.215241 0.20322 0.234732 0.253616 0.279464 
0.253774 0.164812 0.218639 0.198975 0.216974 0.207953 0.210962 0.206181 0.217668 
0.208381 0.217736 0.218775 0.209272 0.221382 0.20213 0.182815 0.165263 0.200569 
0.241551 0.289267 0.28616 0.228728 0.150024 0.209846 0.255289 0.214425 0.265485 
0.107523 0.13309 0.144426 0.143231 0.107782 0.114707 0.205709 0.2029 0.198273 
0.256844 0.223705 0.238912 0.0750879 0.156186 0.186398 0.198352 0.259692 0.161181 
0.197884 0.216314 0.24847 0.234586 0.229893 0.211762 0.295749 0.284479 0.234277 
0.215503 0.19499 0.170827 0.185325 0.213472 0.224334 0.231846 0.250587 0.272653 
0.269333 0.251152 0.24823 0.248278 0.252734 0.240359 0.234068 0.220607 0.251056 
0.251659 0.242665 0.248051 0.218983 0.197235 0.14904 0.112122 0.140033 0.118076 
0.143386 0.24633 0.282754 0.284114 0.256673 0.248036 0.272276 0.243228 0.222375 
0.226692 0.212139 0.231427 0.236132 0.219733 0.241575 0.252231 0.261482 0.234994 
0.201669 0.222001 0.219219 0.230215 0.24434 0.187295 0.162393 0.131636 0.18684 
0.20356 0.219824 0.212472 0.220114 0.243371 0.218583 0.214039 0.228078 0.224496 
0.228265 
