# vtk DataFile Version 3.0
vtk output
ASCII
DATASET POLYDATA
POINTS 322 float
6.81011 0.180303 1.05463 7.08772 0.127835 0.682268 6.548 0.605869 0.90706 
0.545468 0.181319 1.05816 6.4327 0.642275 0.713458 2.90732 -1.83112 0.566562 
7.08425 -0.534821 0.366235 3.22228 -1.49694 0.306614 0.884361 1.11336 0.743389 
7.39103 0.492136 0.263795 0.363676 0.654267 0.510532 7.30377 -0.801829 -0.0716764 
7.47209 0.189389 -0.17338 1.96792 0.977404 0.156991 1.53119 0.730815 0.279278 
5.23413 0.746247 -0.2425 1.7051 0.912379 -0.109617 1.53816 1.20727 -0.207067 
1.25499 1.2522 -0.0589094 0.134492 0.802294 -0.0699745 7.65196 0.259577 -0.574271 
1.02579 1.164 -0.329071 -0.775107 0.0458535 -0.875002 0.218986 -1.78188 -1.15143 
-0.485251 -0.392981 -0.981272 2.07179 -1.19404 -1.3509 2.49629 -0.987565 -1.61119 
3.31881 -0.887491 -1.76161 2.51859 -0.664094 -1.7118 2.51094 -0.719028 -1.70992 
2.50371 -0.775336 -1.69577 2.49741 -0.834563 -1.66706 2.49395 -0.902357 -1.63687 
2.56673 -1.06607 -1.61933 2.6222 -1.13519 -1.61356 2.67104 -1.19847 -1.59701 
2.72018 -1.24841 -1.58652 2.77283 -1.2705 -1.58313 2.82723 -1.27817 -1.58572 
2.88338 -1.27143 -1.59429 2.94319 -1.23713 -1.60751 3.00437 -1.1903 -1.62691 
3.06439 -1.14287 -1.6313 3.11322 -1.09523 -1.62039 3.13757 -1.04564 -1.59358 
3.15988 -0.99501 -1.57403 3.19664 -0.945138 -1.56995 3.22859 -0.895504 -1.59555 
3.27285 -0.867607 -1.66111 2.424 -1.05722 -1.47957 2.36206 -1.10566 -1.37089 
2.30733 -1.12305 -1.28648 2.25263 -1.13499 -1.2313 2.19452 -1.15764 -1.2169 
2.13497 -1.17067 -1.26105 -0.848182 0.177432 -0.979782 -0.858943 0.261018 -1.04697 
-0.82687 0.316067 -1.05709 -0.792556 0.363102 -1.01783 -0.74238 0.406069 -0.962736 
-0.692107 0.449023 -0.90766 -0.655264 0.494508 -0.859332 -0.603349 0.535291 -0.804539 
-0.542986 0.564843 -0.751202 -0.483016 0.579117 -0.699481 -0.421024 0.606491 -0.646438 
-0.358324 0.631427 -0.57132 -0.297081 0.639095 -0.475619 -0.235094 0.651853 -0.379402 
-0.174833 0.66007 -0.305976 -0.11429 0.67751 -0.253938 -0.0544736 0.689967 -0.202404 
0.00778183 0.719142 -0.149169 0.0712467 0.759042 -0.102303 -0.565229 -0.380727 -0.977361 
-0.624887 -0.348339 -0.964525 -0.674381 -0.318264 -0.937366 -0.709453 -0.274655 -0.886887 
-0.727791 -0.223234 -0.834257 -0.758798 -0.162605 -0.804464 -0.783918 -0.0783674 -0.822668 
-0.447061 -0.316974 -0.974466 -0.406491 -0.258144 -0.969558 -0.387843 -0.20414 -0.964446 
-0.389885 -0.148514 -0.958486 -0.410571 -0.0903293 -0.951645 -0.426121 -0.0336149 -0.937673 
-0.448244 0.0223136 -0.908668 -0.465195 0.0713957 -0.858202 -0.502484 0.0992629 -0.807448 
-0.561489 0.0794317 -0.785265 -0.646737 0.0517878 -0.81336 -0.441815 -0.466682 -0.997955 
-0.420921 -0.527301 -1.02742 -0.398877 -0.581884 -1.07863 -0.382828 -0.634231 -1.13688 
-0.351577 -0.68943 -1.18846 -0.319505 -0.746983 -1.21796 -0.300227 -0.804223 -1.23211 
-0.267302 -0.864881 -1.23216 -0.235696 -0.926844 -1.2174 -0.226426 -0.987895 -1.17946 
-0.216805 -1.04974 -1.13415 -0.182678 -1.1143 -1.09739 -0.139622 -1.17713 -1.09054 
-0.105368 -1.23648 -1.10541 -0.0882814 -1.29192 -1.1342 -0.0656005 -1.34964 -1.14851 
-0.0475518 -1.4082 -1.14785 -0.0122274 -1.47069 -1.13326 0.0328463 -1.53381 -1.12652 
0.0794802 -1.5964 -1.12722 0.125982 -1.65822 -1.13529 0.172484 -1.72005 -1.14336 
0.95676 1.21387 -0.483006 0.893519 1.22934 -0.591092 0.831423 1.20515 -0.641309 
0.770699 1.1738 -0.655073 0.712318 1.15418 -0.655244 0.652009 1.12134 -0.656753 
0.591955 1.08783 -0.650887 0.534559 1.06768 -0.628791 0.477383 1.03932 -0.57776 
0.421948 1.01561 -0.503927 0.366253 0.985261 -0.415899 0.312235 0.971269 -0.341083 
0.257584 0.957031 -0.281183 0.200976 0.918452 -0.231253 0.155084 0.864247 -0.160973 
1.04622 1.07262 -0.13571 1.03934 0.999872 0.0356766 1.00112 0.962207 0.184478 
0.959006 0.981639 0.324544 0.928144 1.02372 0.464158 0.912825 1.06751 0.603454 
1.11948 1.22306 -0.256311 1.19314 1.25434 -0.165968 1.57016 1.1149 -0.153316 
1.61221 1.03994 -0.117909 1.65849 0.974788 -0.106453 1.62884 1.25706 -0.169982 
1.69985 1.28714 -0.131848 1.75681 1.2763 -0.100075 1.80668 1.22707 -0.077109 
1.85549 1.16098 -0.0385075 1.90813 1.08016 0.0406447 7.59713 0.245923 -0.499402 
7.53766 0.213467 -0.366741 0.189546 0.735951 0.114968 0.247488 0.696691 0.28033 
0.305925 0.672968 0.410064 1.31138 1.25817 -0.0601186 1.36954 1.27763 -0.0649275 
1.42529 1.281 -0.0862627 1.48045 1.26108 -0.134897 1.21243 1.27788 0.138972 
1.16527 1.27935 0.312082 1.11352 1.26393 0.43884 1.0576 1.23447 0.519524 
1.00141 1.21041 0.578434 0.943241 1.16797 0.650362 1.76498 0.890207 0.0450657 
1.82561 0.885682 0.149437 1.89209 0.919194 0.180627 1.64809 0.848738 0.0494608 
1.59012 0.788216 0.179099 5.17382 0.713413 -0.244009 5.11542 0.693694 -0.24419 
5.05508 0.658169 -0.238528 4.99378 0.61125 -0.21914 4.93295 0.560306 -0.177838 
4.87261 0.510264 -0.128991 4.81347 0.47085 -0.0865231 4.75578 0.448683 -0.0646311 
4.69543 0.413158 -0.0589682 4.63341 0.368578 -0.0616654 4.57114 0.322314 -0.0645331 
4.50936 0.276953 -0.0598654 4.4495 0.239869 -0.0394828 4.39253 0.215372 0.0044949 
4.33362 0.175167 0.0543372 4.27305 0.125906 0.095809 4.2115 0.0773024 0.115026 
4.14997 0.0312699 0.12707 4.0904 -0.00380557 0.147656 4.03542 -0.0146661 0.193013 
3.98214 -0.0163635 0.246752 3.92747 -0.025117 0.292323 3.87018 -0.0445271 0.314494 
3.81603 -0.0375366 0.324458 3.76552 -0.00321062 0.329745 3.71453 0.027837 0.3347 
3.66431 0.0641813 0.340192 3.61217 0.0849271 0.351548 3.56076 0.105807 0.377796 
3.51343 0.147406 0.428462 3.46659 0.189917 0.486674 3.41735 0.218392 0.536012 
3.36815 0.254405 0.563791 3.31748 0.287668 0.56897 3.26851 0.339881 0.553745 
3.21998 0.402369 0.517239 3.16951 0.454001 0.47218 3.1145 0.4696 0.438373 
3.05849 0.466265 0.43985 3.0092 0.4968 0.481952 2.9618 0.535501 0.539778 
2.91083 0.55214 0.587919 2.85774 0.561491 0.613 2.80535 0.582918 0.616982 
2.75584 0.631429 0.601382 2.70563 0.684862 0.556516 2.65277 0.724938 0.49541 
2.60016 0.769181 0.427293 2.54608 0.796059 0.379739 2.49223 0.822059 0.339531 
2.44077 0.859614 0.315379 2.38712 0.882143 0.289707 2.33252 0.893275 0.27777 
2.27789 0.901837 0.273006 2.22349 0.909509 0.275596 2.16887 0.917752 0.273283 
2.11258 0.928363 0.256375 2.04825 0.946545 0.21568 7.44899 0.286348 -0.154897 
7.42462 0.355994 -0.116911 7.4202 0.406475 -0.036894 7.41651 0.449689 0.0945066 
7.49201 0.0854169 -0.117969 7.53023 0.00486308 -0.0681285 7.57657 -0.063466 -0.0321695 
7.62179 -0.127461 -0.0180711 7.65664 -0.188389 -0.0182092 7.67435 -0.246155 -0.0249079 
7.69489 -0.303573 -0.0391181 7.69626 -0.356795 -0.067158 7.67693 -0.40486 -0.116331 
7.63866 -0.449507 -0.171989 7.60371 -0.495368 -0.220419 7.55259 -0.541188 -0.24596 
7.49196 -0.587157 -0.256305 7.43012 -0.634449 -0.25184 7.3708 -0.684334 -0.225376 
7.32438 -0.739768 -0.162664 7.39776 0.142698 0.0253262 7.35291 0.129298 0.220802 
7.32884 0.148814 0.40169 7.25389 0.161977 0.554591 0.414191 0.696441 0.572973 
0.45071 0.742826 0.613962 0.499191 0.791256 0.617509 0.544911 0.84306 0.591693 
0.567333 0.898895 0.559609 0.590571 0.952268 0.549594 0.639365 0.997221 0.567674 
0.699378 1.02757 0.613641 0.759363 1.04194 0.665382 0.821393 1.07201 0.711253 
0.41214 0.57948 0.627726 0.448541 0.507887 0.730743 0.459255 0.442155 0.812863 
0.467677 0.378238 0.88034 0.490845 0.312988 0.939748 0.51061 0.248219 0.999309 
3.20002 -1.56426 0.238725 3.15618 -1.6214 0.221053 3.12243 -1.67747 0.257205 
3.07258 -1.7333 0.333036 3.00259 -1.78641 0.441486 7.38428 0.544514 0.306832 
7.35336 0.595378 0.380299 7.31024 0.632253 0.48996 7.2618 0.641175 0.611734 
7.21106 0.639936 0.717596 7.15885 0.640805 0.786472 7.10545 0.648038 0.811339 
7.05252 0.668227 0.807751 7.00105 0.705683 0.78359 6.94762 0.727324 0.765272 
6.89298 0.735777 0.760497 6.83783 0.728593 0.791349 6.78071 0.703021 0.835228 
6.72431 0.682433 0.879601 6.66617 0.657194 0.901183 6.60829 0.638604 0.908559 
7.35018 0.42354 0.445836 7.32475 0.351774 0.587296 7.25909 0.261977 0.661906 
3.18357 -1.44408 0.408498 3.12919 -1.42901 0.503167 3.07424 -1.43697 0.567465 
3.01678 -1.45883 0.594975 2.96082 -1.46573 0.603528 2.90808 -1.47426 0.604347 
2.87338 -1.51071 0.601619 2.87873 -1.56468 0.595726 2.88072 -1.6202 0.589779 
2.87642 -1.6764 0.583965 2.88085 -1.74273 0.576792 7.03569 -0.465989 0.308036 
6.98928 -0.398208 0.25711 6.95525 -0.333665 0.220348 6.95042 -0.275478 0.204314 
6.96594 -0.221653 0.202054 6.98896 -0.170378 0.214191 6.98304 -0.117165 0.251483 
6.98664 -0.0655156 0.337993 7.0174 0.00528255 0.486091 6.49356 0.647305 0.808893 
6.94913 0.0963142 0.796082 6.86877 0.121584 0.92063 6.58079 0.545976 0.899643 
6.60031 0.487956 0.892859 6.63334 0.427283 0.892807 6.66693 0.365081 0.907475 
6.68945 0.302845 0.944858 6.73588 0.239702 0.996274 7.09162 0.217388 0.930946 
7.06416 0.266149 1.11588 7.01659 0.278915 1.20905 6.95991 0.273154 1.21609 
6.89181 0.238314 1.155 
LINES 32 390
6 28 29 30 31 32 26 
18 26 33 34 35 36 37 38 39 40 41 42 43 44 45 46 47 48 27 
8 26 49 50 51 52 53 54 25 
21 22 55 56 57 58 59 60 61 62 63 64 65 66 67 68 69 70 71 72 73 19 
9 24 74 75 76 77 78 79 80 22 
13 24 81 82 83 84 85 86 87 88 89 90 91 22 
24 24 92 93 94 95 96 97 98 99 100 101 102 103 104 105 106 107 108 109 110 111 112 113 23 
17 21 114 115 116 117 118 119 120 121 122 123 124 125 126 127 128 19 
8 21 129 130 131 132 133 134 8 
4 21 135 136 18 
5 17 137 138 139 16 
8 17 140 141 142 143 144 145 13 
4 20 146 147 12 
5 19 148 149 150 10 
6 18 151 152 153 154 17 
8 18 155 156 157 158 159 160 8 
5 16 161 162 163 13 
4 16 164 165 14 
60 15 166 167 168 169 170 171 172 173 174 175 176 177 178 179 180 181 182 183 184 185 186 187 188 189 190 191 192 193 194 195 196 197 198 199 200 201 202 203 204 205 206 207 208 209 210 211 212 213 214 215 216 217 218 219 220 221 222 223 13 
6 12 224 225 226 227 9 
18 12 228 229 230 231 232 233 234 235 236 237 238 239 240 241 242 243 11 
6 12 244 245 246 247 1 
12 10 248 249 250 251 252 253 254 255 256 257 8 
8 10 258 259 260 261 262 263 3 
18 9 269 270 271 272 273 274 275 276 277 278 279 280 281 282 283 284 2 
5 9 285 286 287 1 
11 6 299 300 301 302 303 304 305 306 307 1 
3 4 308 2 
4 1 309 310 0 
8 2 311 312 313 314 315 316 0 
7 1 317 318 319 320 321 0 
19 5 268 267 266 265 264 7 288 289 290 291 292 293 294 295 296 297 298 5 

POINT_DATA 322
SCALARS DY_raw double
LOOKUP_TABLE default
234.462 226.341 174.208 256.818 96.6353 274.464 200.953 210.857 247.845 
267.467 201.091 202.502 172.408 171.385 280.97 338.974 220.644 198.694 
210.668 201.98 230.963 205.828 132.679 198.953 139.843 200.238 293.919 
212.437 320.03 362.92 347.858 356.952 318.554 281.987 273.565 291.512 
297.206 297.206 290.121 325.544 275.24 241.589 316.291 318.263 330.762 
406.912 382.493 324.459 270.798 266.655 274.898 280.842 255.836 235.345 
229.623 137.271 138.135 131.981 152.333 162.935 174.285 180.476 171.729 
168.393 176.506 157.708 160.94 173.704 175.242 173.119 188.246 189.665 
208.134 196.359 129.315 126.758 138.349 153.201 150.696 140.399 124.792 
164.374 178.395 183.296 182.148 182.148 157.601 171.881 183.913 200.155 
191.966 178.393 154.41 194.482 185.78 194.676 190.067 190.067 207.321 
199.268 198.491 182.518 192.191 229.181 217.412 232.502 234.073 197.824 
216.871 221.749 204.561 195.208 166.629 183.555 185.438 175.433 193.68 
178.417 187.949 211.026 193.927 164.958 182.383 178.049 112.425 124.383 
135.786 154.632 177.397 205.197 205.584 213.638 211.159 196.922 208.193 
221.583 222.567 222.566 221.439 219.099 214.648 225.305 227.475 222.464 
199.928 169.415 193.325 173.557 201.424 183.02 198.653 198.328 187.393 
176.89 185.352 239.472 232.765 260.436 207.563 192.944 236.156 213.305 
208.604 189.473 239.088 267.923 228.415 214.691 231.396 161.57 181.483 
195.963 171.443 195.229 184.856 168.932 168.932 137.632 156.54 231.893 
236.383 281.989 224.375 259.752 295.386 274.002 284.446 279.109 244.049 
224.916 224.916 166.622 169.289 178.433 197.617 198.138 207.952 209.364 
209.364 188.371 192.368 174.303 191.152 178.811 178.811 203.506 227.911 
248.671 184.341 184.341 189.009 180.359 185.82 210.253 221.132 221.132 
221.797 220.162 198.855 160.491 160.491 160.51 168.011 167.936 162.385 
164.544 178.389 208.114 184.343 191.488 169.447 142.541 140.269 132.148 
138.882 138.882 192.89 186.658 190.989 195.019 177.07 196.539 222.441 
202.209 172.731 196.816 224.696 252.958 200.798 209.944 210.415 211.015 
194.715 212.615 234.038 250.48 253.645 250.881 215.595 225.728 251.8 
225.508 225.277 215.782 201.3 232.23 216.273 233.164 258.415 231.222 
200.356 173.8 190.28 176.035 179.463 179.463 192.865 207.451 184.133 
173.992 182.131 182.131 163.057 172.326 176.352 269.921 228.648 206.119 
203.972 212.266 217.369 207.928 219.636 208.742 199.502 203.987 197.623 
242.691 241.302 197.091 159.769 130.8 146.248 146.248 150.111 159.042 
173.573 206.575 134.843 209.393 207.611 201.797 198.773 201.051 196.82 
206.59 224.771 222.866 204.085 233.58 223.377 226.894 
FIELD FieldData 7
DY_minmax 1 322 double
0.444204 0.418033 0.25001 0.516258 0 0.573129 0.336209 0.368127 0.487337 
0.550579 0.336654 0.341201 0.244211 0.240913 0.594096 0.781039 0.39967 0.328929 
0.367519 0.339517 0.432927 0.351921 0.116166 0.329762 0.139254 0.333903 0.63583 
0.373219 0.719984 0.858216 0.809672 0.838982 0.715229 0.597375 0.57023 0.628072 
0.646423 0.646423 0.62359 0.737754 0.575629 0.467176 0.707934 0.714289 0.754574 
1 0.921299 0.734258 0.561313 0.547962 0.574527 0.593685 0.513092 0.447052 
0.428608 0.130966 0.133752 0.113916 0.179509 0.213678 0.250257 0.270212 0.242021 
0.231269 0.257417 0.196832 0.207249 0.248385 0.253344 0.246502 0.295253 0.299829 
0.359353 0.3214 0.105323 0.0970841 0.134441 0.182308 0.174234 0.141048 0.0907471 
0.218317 0.263507 0.279301 0.2756 0.2756 0.196489 0.24251 0.28129 0.333636 
0.307245 0.263499 0.186203 0.315353 0.287306 0.315977 0.301124 0.301124 0.356732 
0.330777 0.328274 0.276793 0.307969 0.427186 0.389253 0.437888 0.44295 0.326123 
0.387512 0.403232 0.347835 0.317694 0.225585 0.280135 0.286205 0.253958 0.312766 
0.263578 0.294296 0.368673 0.313563 0.220199 0.276359 0.262389 0.0508886 0.0894283 
0.126178 0.186917 0.260289 0.349886 0.351135 0.377092 0.369101 0.323215 0.359542 
0.402697 0.405867 0.405865 0.402232 0.39469 0.380345 0.414691 0.421688 0.405537 
0.332906 0.234563 0.311624 0.247912 0.337726 0.278411 0.328795 0.327749 0.292504 
0.258656 0.285928 0.46035 0.438735 0.527917 0.357512 0.310394 0.449663 0.376016 
0.360868 0.299207 0.459114 0.552046 0.424715 0.380485 0.434324 0.209279 0.273457 
0.320125 0.241098 0.317761 0.284328 0.233008 0.233008 0.13213 0.193068 0.435925 
0.450396 0.597381 0.411694 0.525713 0.640558 0.571639 0.6053 0.588097 0.475102 
0.41344 0.41344 0.225562 0.234157 0.263627 0.325455 0.327137 0.358765 0.363315 
0.363315 0.295658 0.308539 0.250319 0.304621 0.264847 0.264847 0.344435 0.423091 
0.489999 0.282669 0.282669 0.297715 0.269835 0.287435 0.36618 0.401243 0.401243 
0.403388 0.398118 0.329446 0.205802 0.205802 0.205862 0.230038 0.229797 0.211907 
0.218863 0.263486 0.359288 0.282676 0.305703 0.234666 0.14795 0.140627 0.114455 
0.136159 0.136159 0.310222 0.290135 0.304095 0.317085 0.259233 0.321981 0.405462 
0.340256 0.245252 0.322874 0.41273 0.503815 0.335709 0.365186 0.366702 0.368637 
0.316104 0.373792 0.442838 0.495829 0.506031 0.497123 0.383397 0.416056 0.500084 
0.415347 0.414602 0.384001 0.337327 0.437012 0.385582 0.44002 0.521404 0.433762 
0.334284 0.248696 0.301808 0.255899 0.266947 0.266947 0.31014 0.357151 0.281997 
0.249313 0.275548 0.275548 0.214071 0.243946 0.256922 0.558486 0.425466 0.352857 
0.34594 0.372668 0.389115 0.358687 0.396421 0.361311 0.331531 0.345986 0.325477 
0.470726 0.466249 0.32376 0.203474 0.110109 0.159899 0.159899 0.172349 0.201131 
0.247965 0.354327 0.123141 0.363408 0.357668 0.338927 0.329182 0.336524 0.322889 
0.354377 0.412973 0.406831 0.346302 0.441362 0.408479 0.419815 
WidthEq 1 322 double
2.32319 1.95403 2.66331 1.5516 2.77289 1.82872 1.45844 2.229 2.22655 
1.99508 2.54963 2.63118 3.29357 3.25115 1.58422 1.04161 2.75416 4.3665 
4.75302 3.52882 1.82496 3.22569 3.47424 1.4628 2.63732 1.33131 1.94434 
1.15257 1.36818 1.53177 1.69767 1.67924 1.88498 1.86015 1.75169 1.54443 
1.47039 1.47039 1.43505 1.19996 1.2904 1.28689 1.17332 1.18559 1.14175 
1.10719 1.21131 1.29816 1.11688 1.99842 1.99721 2.00547 2.12436 2.10197 
2.08002 2.84087 2.79356 2.70569 2.65431 2.60711 2.58938 2.54565 2.50942 
2.5213 2.48699 2.74957 3.10786 3.11513 3.34068 3.43508 3.51243 3.74754 
3.60863 3.56337 2.60241 2.42934 2.51161 2.66146 2.81121 3.08498 3.31006 
2.55837 2.5648 2.58554 2.80085 2.80085 3.61938 3.50307 3.93517 4.14988 
3.99002 3.85827 2.3413 1.96244 1.90887 1.79503 1.70265 1.70265 1.65448 
1.70499 1.79307 1.87619 1.79649 1.64913 1.76503 1.75796 1.72937 1.89855 
1.7733 1.80582 1.88931 1.9307 1.82122 1.67296 3.26938 3.2963 2.95286 
2.71834 2.3641 2.06296 2.06067 1.92266 1.96893 2.06915 2.89463 3.28654 
3.1993 3.40693 3.48664 3.42816 3.19756 2.5487 2.60813 2.52897 2.53053 
3.60776 4.21114 3.95455 3.63771 3.40202 4.02221 3.4744 3.15322 2.91278 
3.05424 3.22669 3.12437 3.35452 2.9273 2.81504 2.56341 4.95027 5.00227 
5.05453 4.79017 3.93416 3.421 3.04512 2.91617 2.82937 2.52295 3.11667 
2.96834 3.17412 3.0935 2.35971 1.58072 1.66835 1.532 1.63724 1.61822 
1.58086 1.56851 1.39338 1.30344 1.24434 1.24434 1.18438 1.14635 1.00934 
1.08984 1 1.11064 1.10782 1.05418 1.09619 1.05985 1.07051 1.07318 
1.07746 1.07746 1.26453 1.27852 1.34661 1.35717 1.37742 1.39585 1.58069 
1.58069 1.85776 2.00766 2.1544 2.17308 1.94691 1.94691 1.46231 1.43916 
1.36517 1.84722 1.84722 2.14581 2.20898 2.23442 1.90076 1.85893 1.85893 
1.86093 1.85063 1.95262 2.22174 2.22174 2.49978 2.66458 3.02341 3.03235 
2.73021 2.34324 2.1663 3.0129 2.62554 2.55749 2.48111 2.56094 2.5659 
2.36415 2.36415 1.79983 1.8394 1.74119 1.60824 1.83362 1.83627 2.20481 
2.7559 2.92257 2.3054 1.81814 1.91198 2.5677 2.42164 2.18173 2.17752 
2.20491 1.95221 1.82111 1.84246 1.93037 2.07397 2.12189 2.11648 1.96398 
1.97935 2.04996 2.02797 1.97128 1.67979 1.64029 1.81683 1.95488 2.30717 
2.50983 2.54752 2.45359 2.36384 2.28721 2.28721 2.07425 1.96668 2.06693 
2.07515 2.1552 2.1552 2.71102 2.74885 2.79706 2.00029 2.10839 2.12736 
2.28648 2.11598 1.96872 1.84463 1.8339 1.8152 1.68589 1.73133 1.82017 
1.99892 2.03152 2.13708 2.76299 3.11568 3.2429 3.2429 3.0392 2.3446 
2.03383 1.89505 2.6085 2.01172 2.22006 2.42476 2.50974 2.21943 2.44842 
2.50326 2.47358 1.95422 1.99892 1.97795 2.15586 2.30666 
rRFP 1 322 double
6586.46 5892.88 7225.49 5136.77 7431.37 5657.44 4961.75 6409.49 6404.89 
5970 7011.91 7165.12 8409.64 8329.94 5198.07 4178.59 7396.19 10425.5 
11151.7 8851.63 5650.38 8282.11 8749.1 4969.94 7176.65 4722.89 5874.67 
4387.07 4792.16 5099.51 5411.22 5376.59 5763.14 5716.49 5512.7 5123.3 
4984.2 4984.2 4917.8 4476.1 4646.02 4639.43 4426.04 4449.1 4366.74 
4301.8 4497.43 4660.6 4320.01 5976.27 5974 5989.51 6212.9 6170.83 
6129.58 7559.09 7470.2 7305.11 7208.58 7119.9 7086.59 7004.43 6936.35 
6958.68 6894.22 7387.56 8060.73 8074.38 8498.16 8675.52 8820.84 9262.58 
9001.58 8916.56 7111.06 6785.9 6940.47 7222.01 7503.37 8017.74 8440.62 
7028.32 7040.41 7079.37 7483.91 7483.91 9021.78 8803.25 9615.1 10018.5 
9718.15 9470.62 6620.48 5908.67 5808.02 5594.14 5420.58 5420.58 5330.07 
5424.96 5590.46 5746.63 5596.88 5320.01 5537.78 5524.49 5470.78 5788.64 
5553.32 5614.41 5771.28 5849.04 5643.35 5364.78 8364.2 8414.77 7769.51 
7328.88 6663.32 6097.54 6093.23 5833.94 5920.86 6109.16 7660.11 8396.43 
8232.53 8622.63 8772.38 8662.52 8229.26 7010.15 7121.81 6973.09 6976.02 
8999.96 10133.6 9651.52 9056.22 8613.41 9778.64 8749.4 8145.94 7694.2 
7959.98 8283.98 8091.74 8524.15 7721.49 7510.57 7037.8 11522.3 11620 
11718.2 11221.5 9613.2 8649.07 7942.85 7700.57 7537.49 6961.78 8077.27 
7798.59 8185.22 8033.75 6655.07 5191.48 5356.12 5099.95 5297.68 5261.94 
5191.74 5168.54 4839.51 4670.53 4559.48 4559.48 4446.83 4375.37 4117.96 
4269.2 4100.41 4308.28 4302.99 4202.2 4281.14 4212.85 4232.89 4237.91 
4245.95 4245.95 4597.42 4623.7 4751.63 4771.47 4809.51 4844.14 5191.43 
5191.43 5712 5993.63 6269.33 6304.43 5879.49 5879.49 4969.02 4925.51 
4786.51 5692.2 5692.2 6253.2 6371.88 6419.67 5792.78 5714.2 5714.2 
5717.95 5698.6 5890.23 6395.85 6395.85 6918.25 7227.88 7902.05 7918.86 
7351.19 6624.14 6291.7 7882.32 7154.52 7026.68 6883.16 7033.15 7042.48 
6663.42 6663.42 5603.15 5677.51 5492.99 5243.2 5666.65 5671.63 6364.04 
7399.46 7712.59 6553.04 5637.56 5813.86 7045.85 6771.43 6320.69 6312.77 
6364.23 5889.46 5643.14 5683.25 5848.42 6118.21 6208.26 6198.09 5911.56 
5940.44 6073.11 6031.79 5925.28 5377.63 5303.4 5635.1 5894.46 6556.37 
6937.12 7007.94 6831.47 6662.84 6518.86 6518.86 6118.74 5916.63 6104.99 
6120.44 6270.83 6270.83 7315.12 7386.21 7476.79 5979.78 6182.89 6218.53 
6517.49 6197.14 5920.48 5687.32 5667.16 5632.04 5389.09 5474.46 5641.38 
5977.21 6038.46 6236.8 7412.77 8075.41 8314.44 8314.44 7931.73 6626.69 
6042.81 5782.05 7122.52 6001.26 6392.69 6777.3 6936.96 6391.52 6821.75 
6924.78 6869.01 5893.23 5977.21 5937.81 6272.07 6555.41 
rGFP 1 322 double
2965.48 2863.06 2884.75 2819.26 2688.74 2922.7 2713.86 2890.78 2972.62 
2954.4 2933.49 2953.6 2988.62 2977.98 2865.9 2773.86 3028.47 3288.38 
3422.09 3133.53 2842.28 3084.72 2881.74 2711.81 2789.59 2687.36 2992.26 
2665.63 2858.64 2976.69 3011.33 3020.19 3021.25 2945.32 2899.98 2871 
2857.79 2857.79 2837.12 2811.42 2775.95 2731.68 2791.89 2798.11 2798.43 
2871.31 2884.1 2841.98 2723.23 2953.67 2969.81 2984 2964.27 2915.47 
2898.4 2810.75 2806.67 2777.88 2825.12 2845.57 2872.07 2880.21 2851.72 
2845.35 2859.75 2854.41 2920.96 2961.89 3006.21 3015.46 3081.98 3131.56 
3171.86 3120.48 2757.31 2728.72 2768.26 2828.52 2844.42 2853.91 2833.85 
2841.31 2878.33 2894.7 2930.95 2930.95 2991.2 3022.89 3144.51 3251.4 
3186.73 3109.07 2782.3 2802.44 2775.41 2770.23 2744.4 2744.4 2763.79 
2760.53 2776.69 2763.22 2766.05 2798.73 2804.52 2829.51 2825.58 2796.36 
2805.36 2821.22 2807.26 2797.67 2724.25 2727.86 3027.05 2999.06 2992.69 
2905.78 2865.11 2856.12 2820.4 2737.94 2779.88 2789.19 2746.21 2829.57 
2855.2 2947.6 3039.3 3124.23 3078.15 2965.28 2971.51 2918.79 2947.62 
3220.2 3358.04 3300.93 3226.31 3166.16 3284.14 3203.58 3138.06 3068.77 
3031.41 2967.43 3024.8 3002.98 3010.41 2935.99 2930.01 3402.56 3358.17 
3314.88 3308.65 3362.9 3217.07 3213.84 3026.07 2966.69 3016.59 3085.58 
3039.99 3022.19 3160.4 3053 2781.84 2778.96 2775.28 2685.31 2714.46 
2730.57 2689.69 2692.81 2661.73 2630.99 2630.99 2583.79 2600.23 2654.84 
2678.4 2702.77 2669.98 2708.54 2732.17 2721.14 2722.25 2719.57 2682.69 
2663.12 2663.12 2631.48 2637.22 2661.06 2688.98 2693.7 2711.05 2751.72 
2751.72 2770.73 2806.99 2796.3 2836.17 2768.91 2768.91 2718.37 2748.78 
2760.26 2761.3 2761.3 2826.36 2819.19 2835.98 2820.42 2831.85 2831.85 
2833.53 2828.22 2809.07 2777.35 2777.35 2822.02 2868.46 2928.52 2913.19 
2870.02 2838.79 2871.62 2976.19 2923.54 2854.14 2774.44 2780 2759.86 
2749.12 2749.12 2767.95 2764.12 2753.33 2734.42 2745.46 2781.68 2911.22 
2978.05 2925.6 2874.52 2829.31 2904.43 2936.37 2929.19 2879.85 2880.27 
2850.11 2835.85 2846.99 2882.28 2910.41 2941.1 2878.25 2898.53 2915.31 
2867.14 2882.59 2858.38 2817.6 2810.88 2775.53 2844.4 2925.95 2954.25 
2923.64 2863.54 2887.65 2836.9 2831.25 2831.25 2820.83 2828.77 2801.37 
2781.84 2813.31 2813.31 2862.83 2894.48 2914.05 2960.7 2902.86 2859.27 
2887.16 2869.93 2848.72 2804.33 2823.57 2799.69 2757.12 2773.95 2780.49 
2905.9 2910.99 2841.98 2862.22 2828.31 2895.05 2895.05 2877 2793.67 
2773.8 2812.25 2772.52 2842.02 2881.69 2910.09 2919.65 2867 2902.68 
2937.93 2976.77 2856.31 2828.73 2882.79 2902.35 2944.15 
bkstRFP 1 322 double
4364.88 3671.3 5003.91 2915.19 5209.79 3435.86 2740.17 4187.91 4183.31 
3748.42 4790.33 4943.54 6188.06 6108.36 2976.49 1957.01 5174.61 8203.92 
8930.12 6630.05 3428.8 6060.53 6527.52 2748.36 4955.07 2501.31 3653.09 
2165.49 2570.58 2877.93 3189.64 3155.01 3541.56 3494.91 3291.12 2901.72 
2762.62 2762.62 2696.22 2254.52 2424.44 2417.85 2204.46 2227.52 2145.16 
2080.22 2275.85 2439.02 2098.43 3754.69 3752.42 3767.93 3991.32 3949.25 
3908 5337.51 5248.62 5083.53 4987 4898.32 4865.01 4782.85 4714.77 
4737.1 4672.64 5165.98 5839.15 5852.8 6276.58 6453.94 6599.26 7041 
6780 6694.98 4889.48 4564.32 4718.89 5000.43 5281.79 5796.16 6219.04 
4806.74 4818.83 4857.79 5262.33 5262.33 6800.2 6581.67 7393.52 7796.92 
7496.57 7249.04 4398.9 3687.09 3586.44 3372.56 3199 3199 3108.49 
3203.38 3368.88 3525.05 3375.3 3098.43 3316.2 3302.91 3249.2 3567.06 
3331.74 3392.83 3549.7 3627.46 3421.77 3143.2 6142.62 6193.19 5547.93 
5107.3 4441.74 3875.96 3871.65 3612.36 3699.28 3887.58 5438.53 6174.85 
6010.95 6401.05 6550.8 6440.94 6007.68 4788.57 4900.23 4751.51 4754.44 
6778.38 7912.02 7429.94 6834.64 6391.83 7557.06 6527.82 5924.36 5472.62 
5738.4 6062.4 5870.16 6302.57 5499.91 5288.99 4816.22 9300.72 9398.42 
9496.62 8999.92 7391.62 6427.49 5721.27 5478.99 5315.91 4740.2 5855.69 
5577.01 5963.64 5812.17 4433.49 2969.9 3134.54 2878.37 3076.1 3040.36 
2970.16 2946.96 2617.93 2448.95 2337.9 2337.9 2225.25 2153.79 1896.38 
2047.62 1878.83 2086.7 2081.41 1980.62 2059.56 1991.27 2011.31 2016.33 
2024.37 2024.37 2375.84 2402.12 2530.05 2549.89 2587.93 2622.56 2969.85 
2969.85 3490.42 3772.05 4047.75 4082.85 3657.91 3657.91 2747.44 2703.93 
2564.93 3470.62 3470.62 4031.62 4150.3 4198.09 3571.2 3492.62 3492.62 
3496.37 3477.02 3668.65 4174.27 4174.27 4696.67 5006.3 5680.47 5697.28 
5129.61 4402.56 4070.12 5660.74 4932.94 4805.1 4661.58 4811.57 4820.9 
4441.84 4441.84 3381.57 3455.93 3271.41 3021.62 3445.07 3450.05 4142.46 
5177.88 5491.01 4331.46 3415.98 3592.28 4824.27 4549.85 4099.11 4091.19 
4142.65 3667.88 3421.56 3461.67 3626.84 3896.63 3986.68 3976.51 3689.98 
3718.86 3851.53 3810.21 3703.7 3156.05 3081.82 3413.52 3672.88 4334.79 
4715.54 4786.36 4609.89 4441.26 4297.28 4297.28 3897.16 3695.05 3883.41 
3898.86 4049.25 4049.25 5093.54 5164.63 5255.21 3758.2 3961.31 3996.95 
4295.91 3975.56 3698.9 3465.74 3445.58 3410.46 3167.51 3252.88 3419.8 
3755.63 3816.88 4015.22 5191.19 5853.83 6092.86 6092.86 5710.15 4405.11 
3821.23 3560.47 4900.94 3779.68 4171.11 4555.72 4715.38 4169.94 4600.17 
4703.2 4647.43 3671.65 3755.63 3716.23 4050.49 4333.83 
bkstGFP 1 322 double
544.699 442.279 463.969 398.479 267.959 501.919 293.079 469.999 551.839 
533.619 512.709 532.819 567.839 557.199 445.119 353.079 607.689 867.599 
1001.31 712.749 421.499 663.939 460.959 291.029 368.809 266.579 571.479 
244.849 437.859 555.909 590.549 599.409 600.469 524.539 479.199 450.219 
437.009 437.009 416.339 390.639 355.169 310.899 371.109 377.329 377.649 
450.529 463.319 421.199 302.449 532.889 549.029 563.219 543.489 494.689 
477.619 389.969 385.889 357.099 404.339 424.789 451.289 459.429 430.939 
424.569 438.969 433.629 500.179 541.109 585.429 594.679 661.199 710.779 
751.079 699.699 336.529 307.939 347.479 407.739 423.639 433.129 413.069 
420.529 457.549 473.919 510.169 510.169 570.419 602.109 723.729 830.619 
765.949 688.289 361.519 381.659 354.629 349.449 323.619 323.619 343.009 
339.749 355.909 342.439 345.269 377.949 383.739 408.729 404.799 375.579 
384.579 400.439 386.479 376.889 303.469 307.079 606.269 578.279 571.909 
484.999 444.329 435.339 399.619 317.159 359.099 368.409 325.429 408.789 
434.419 526.819 618.519 703.449 657.369 544.499 550.729 498.009 526.839 
799.419 937.259 880.149 805.529 745.379 863.359 782.799 717.279 647.989 
610.629 546.649 604.019 582.199 589.629 515.209 509.229 981.779 937.389 
894.099 887.869 942.119 796.289 793.059 605.289 545.909 595.809 664.799 
619.209 601.409 739.619 632.219 361.059 358.179 354.499 264.529 293.679 
309.789 268.909 272.029 240.949 210.209 210.209 163.009 179.449 234.059 
257.619 281.989 249.199 287.759 311.389 300.359 301.469 298.789 261.909 
242.339 242.339 210.699 216.439 240.279 268.199 272.919 290.269 330.939 
330.939 349.949 386.209 375.519 415.389 348.129 348.129 297.589 327.999 
339.479 340.519 340.519 405.579 398.409 415.199 399.639 411.069 411.069 
412.749 407.439 388.289 356.569 356.569 401.239 447.679 507.739 492.409 
449.239 418.009 450.839 555.409 502.759 433.359 353.659 359.219 339.079 
328.339 328.339 347.169 343.339 332.549 313.639 324.679 360.899 490.439 
557.269 504.819 453.739 408.529 483.649 515.589 508.409 459.069 459.489 
429.329 415.069 426.209 461.499 489.629 520.319 457.469 477.749 494.529 
446.359 461.809 437.599 396.819 390.099 354.749 423.619 505.169 533.469 
502.859 442.759 466.869 416.119 410.469 410.469 400.049 407.989 380.589 
361.059 392.529 392.529 442.049 473.699 493.269 539.919 482.079 438.489 
466.379 449.149 427.939 383.549 402.789 378.909 336.339 353.169 359.709 
485.119 490.209 421.199 441.439 407.529 474.269 474.269 456.219 372.889 
353.019 391.469 351.739 421.239 460.909 489.309 498.869 446.219 481.899 
517.149 555.989 435.529 407.949 462.009 481.569 523.369 
tubeWidth 1 322 double
0.257711 0.145368 0.306242 0.326417 0.241742 0.29615 0.174666 0.178607 0.225605 
0.159177 0.198239 0.275512 0.256437 0.281955 0.15225 0.220325 0.182393 0.220497 
0.279685 0.153542 0.160823 0.112662 0.115761 0.253453 0.243544 0.222296 0.136217 
0.144554 0.198924 0.188934 0.186403 0.190513 0.159289 0.141646 0.168348 0.152506 
0.209685 0.21545 0.209583 0.203667 0.200567 0.148316 0.142099 0.110933 0.126544 
0.140218 0.193854 0.223076 0.244166 0.230029 0.192757 0.259399 0.28388 0.309978 
0.325757 0.186149 0.196245 0.154254 0.183365 0.204632 0.171563 0.197775 0.222141 
0.216699 0.175301 0.216428 0.252981 0.235788 0.266812 0.266308 0.269043 0.297537 
0.259764 0.16957 0.178708 0.169372 0.177654 0.228227 0.23001 0.23592 0.311024 
0.159986 0.154536 0.1803 0.178897 0.168182 0.196149 0.245359 0.323081 0.325017 
0.239034 0.195218 0.246919 0.209008 0.232657 0.229147 0.226235 0.221084 0.218132 
0.231395 0.233389 0.267085 0.231418 0.191699 0.216124 0.17724 0.228388 0.241237 
0.189169 0.212025 0.211448 0.211193 0.224905 0.256556 0.228155 0.247801 0.247896 
0.251761 0.225658 0.211218 0.173766 0.200303 0.222183 0.209168 0.244874 0.247294 
0.249154 0.244139 0.248551 0.193624 0.254898 0.266408 0.161765 0.133544 0.158062 