# vtk DataFile Version 3.0
vtk output
ASCII
DATASET POLYDATA
POINTS 286 float
4.29883 -0.623337 0.622813 -0.328887 0.463014 -0.1458 3.22382 -1.33328 0.103235 
3.47129 -1.24003 0.125326 3.83422 -1.39989 0.136496 -0.618421 0.167242 -0.229645 
0.191707 0.912198 -0.326758 3.14009 -0.77571 -0.0629756 3.48093 -0.916509 -0.0518175 
4.98553 0.290866 0.128327 2.49731 1.71325 -0.259719 0.806112 -1.57523 -0.667398 
1.01233 -1.51496 -0.784166 1.56416 -1.41126 -0.608437 2.78893 1.61453 -0.382556 
5.77253 0.428609 -0.214582 1.36175 -1.46731 -0.825956 4.08484 1.09213 -0.473136 
4.62624 -0.244759 -0.535085 2.54419 1.50937 -0.740156 -0.475902 0.629331 -1.19219 
2.18371 -0.336788 -1.09564 4.22557 -0.411581 -0.973782 0.336869 0.975606 -1.31767 
1.87365 1.20834 -1.40617 0.0329421 0.801788 -1.81781 1.2591 1.50809 -1.6239 
1.81597 0.327921 -1.8076 1.37592 0.869567 -1.86322 0.0654039 0.362931 -2.38292 
2.58241 0.00521137 -2.45261 3.65554 -0.358568 -2.41179 3.76502 -0.35078 -2.40441 
3.71028 -0.354674 -2.4081 2.52751 0.00345613 -2.45616 2.47172 0.0134515 -2.45892 
2.41389 0.0503894 -2.45988 2.35471 0.0986593 -2.45267 2.29446 0.147794 -2.43058 
2.23283 0.195455 -2.38637 2.17027 0.24206 -2.3274 2.10727 0.288028 -2.26107 
2.04373 0.331337 -2.18504 1.97848 0.360456 -2.08782 1.90557 0.355711 -1.95877 
0.0936364 0.413024 -2.27341 0.0977772 0.462395 -2.18033 0.0910732 0.511983 -2.10279 
0.0833681 0.562491 -2.04012 0.0761205 0.613761 -1.9873 0.0685985 0.666798 -1.94182 
0.0559482 0.726691 -1.88623 1.74104 0.38829 -1.77323 1.67676 0.442859 -1.76589 
1.61833 0.495553 -1.78311 1.56241 0.547787 -1.80023 1.51642 0.600521 -1.81419 
1.48734 0.654459 -1.82703 1.45367 0.708565 -1.84758 1.42662 0.762646 -1.86027 
1.39395 0.815834 -1.86594 1.31705 0.920285 -1.86326 1.25832 0.969192 -1.86342 
1.20034 1.00816 -1.86424 1.1435 1.03204 -1.86607 1.08553 1.0709 -1.8669 
1.02695 1.11778 -1.8672 0.969131 1.15461 -1.86816 0.913342 1.1646 -1.87092 
0.858451 1.16274 -1.87448 0.803245 1.15843 -1.87078 0.747129 1.15295 -1.85235 
0.689627 1.146 -1.81179 0.631535 1.14022 -1.76373 0.572838 1.14247 -1.71514 
0.513898 1.14792 -1.66634 0.456298 1.10925 -1.59085 0.39759 1.04562 -1.47257 
1.42667 0.926154 -1.85601 1.47818 0.972801 -1.84946 1.53096 1.00255 -1.84404 
1.58336 1.03734 -1.83829 1.63629 1.06506 -1.83301 1.68884 1.09793 -1.82738 
1.74207 1.11519 -1.81539 1.79381 1.13085 -1.78128 1.83972 1.1584 -1.70204 
1.87091 1.17799 -1.5722 1.81481 0.238068 -1.68265 1.83577 0.16837 -1.58217 
1.84915 0.108654 -1.52112 1.86501 0.0523853 -1.48944 1.89593 -0.00290684 -1.45426 
1.9217 -0.0605446 -1.38982 1.96263 -0.119085 -1.29473 2.01362 -0.17691 -1.19896 
2.06825 -0.232495 -1.13257 2.12529 -0.285433 -1.10304 1.31677 1.47319 -1.62281 
1.3721 1.46265 -1.61267 1.42576 1.46102 -1.58712 1.47866 1.44967 -1.54 
1.53236 1.421 -1.48661 1.58615 1.3979 -1.44028 1.64184 1.36932 -1.41653 
1.69808 1.34683 -1.4072 1.75605 1.30797 -1.40637 1.81478 1.25906 -1.40621 
0.0930403 0.871433 -1.76939 0.145148 0.931598 -1.7172 0.192842 0.982591 -1.64857 
0.240219 1.0095 -1.55937 0.28906 0.992335 -1.44595 -0.0552342 0.801412 -1.71667 
-0.12594 0.793972 -1.61744 -0.188063 0.78169 -1.52298 -0.246715 0.760408 -1.45127 
-0.302944 0.723429 -1.3979 -0.359103 0.692121 -1.35155 -0.416243 0.653976 -1.28344 
1.92131 1.24639 -1.33351 1.97119 1.26177 -1.26977 2.02166 1.27587 -1.21354 
2.07159 1.30363 -1.1638 2.12222 1.3157 -1.1077 2.17359 1.31782 -1.05225 
2.22556 1.31877 -1.00431 2.27831 1.32247 -0.970994 2.33031 1.33623 -0.937008 
2.38013 1.36596 -0.887136 2.43033 1.39264 -0.830006 2.48332 1.44105 -0.778601 
0.34986 0.923797 -1.11223 0.310335 0.894324 -0.886136 0.248866 0.887413 -0.622602 
4.28015 -0.405657 -0.969958 4.33352 -0.390322 -0.958092 4.3847 -0.359147 -0.930353 
4.43488 -0.33459 -0.880829 4.48361 -0.304134 -0.816087 4.53195 -0.281689 -0.737057 
4.57899 -0.255155 -0.642939 2.62079 1.51154 -0.670741 2.67905 1.53618 -0.593426 
2.73199 1.56374 -0.498866 2.51673 1.58013 -0.590468 2.50155 1.64216 -0.430726 
4.02677 1.09939 -0.439029 3.9686 1.12105 -0.418782 3.91189 1.13 -0.406798 
3.85458 1.14023 -0.387306 3.79461 1.1726 -0.35153 3.73463 1.20497 -0.315744 
3.67732 1.2152 -0.296261 3.62107 1.22478 -0.291638 3.56414 1.24986 -0.29339 
3.50806 1.27032 -0.302862 3.45236 1.2989 -0.326607 3.39842 1.32403 -0.372808 
3.34367 1.36648 -0.425274 3.28784 1.41663 -0.469802 3.23125 1.45707 -0.492754 
3.17488 1.48138 -0.501969 3.11658 1.51789 -0.495545 3.05784 1.55378 -0.48176 
2.9994 1.57362 -0.456698 2.93938 1.59734 -0.431458 2.87236 1.60724 -0.405162 
1.31269 -1.40765 -0.981001 1.26145 -1.36535 -1.08533 1.20789 -1.36777 -1.10868 
1.15148 -1.41356 -1.05346 1.08762 -1.47015 -0.935008 1.30089 -1.5354 -0.670929 
1.24189 -1.58857 -0.559358 1.18524 -1.60952 -0.517266 1.13186 -1.60965 -0.555315 
1.07677 -1.58414 -0.653654 1.41051 -1.47017 -0.726391 1.46096 -1.469 -0.656204 
1.51282 -1.45342 -0.622096 0.928702 -1.48525 -0.782298 0.863717 -1.51551 -0.743862 
5.71718 0.426216 -0.210758 5.66017 0.432598 -0.191533 5.60017 0.451953 -0.141803 
5.53995 0.45464 -0.0709502 5.47955 0.446333 0.0139719 5.41975 0.436742 0.091416 
5.36042 0.427571 0.161466 5.30201 0.419345 0.216765 5.24512 0.410891 0.249822 
5.19129 0.395027 0.245333 5.14057 0.364381 0.210217 5.08993 0.339406 0.168068 
5.03876 0.308122 0.140321 2.70943 1.68145 -0.288468 2.64118 1.72207 -0.227805 
2.57516 1.72742 -0.221611 0.131343 0.810569 -0.434525 0.0788267 0.738451 -0.502484 
0.0269551 0.677084 -0.50845 -0.0348921 0.612751 -0.443328 -0.13948 0.541658 -0.31356 
2.4199 1.75348 -0.167422 2.35367 1.76131 -0.0816978 2.29407 1.7555 -0.0213385 
2.23713 1.74939 0.00940202 2.18225 1.74742 0.00584153 2.12661 1.75538 0.00294551 
2.06937 1.778 0.00844149 2.01221 1.78631 0.0277953 1.95506 1.79452 0.0471416 
1.89658 1.81362 0.074629 1.83909 1.80656 0.115181 1.78257 1.77344 0.168816 
1.72459 1.75304 0.230713 1.66586 1.74247 0.293268 1.60745 1.73436 0.348574 
1.54981 1.72911 0.389247 1.49295 1.73357 0.408344 1.43662 1.74411 0.413032 
1.38317 1.72322 0.408207 1.33008 1.69753 0.403061 1.27752 1.66477 0.397442 
1.22383 1.64699 0.392825 1.17061 1.62973 0.380831 1.11898 1.59792 0.360461 
1.06787 1.57242 0.325689 1.01717 1.54166 0.290566 0.965777 1.52652 0.249074 
0.913927 1.51084 0.214959 0.863227 1.47999 0.179829 0.811348 1.4515 0.159681 
0.760159 1.4073 0.145886 0.708977 1.363 0.132084 0.657244 1.33258 0.111807 
0.606981 1.28934 0.0832611 0.556259 1.24557 0.062082 0.504534 1.21505 0.041799 
0.454409 1.16999 0.0131212 0.405818 1.11785 -0.0308337 0.357027 1.07429 -0.0816407 
0.306707 1.0447 -0.138976 0.253691 0.992396 -0.220425 3.41991 -0.870351 -0.0151094 
3.36102 -0.832547 -0.00119615 3.3048 -0.810155 -0.0105398 3.24924 -0.783504 -0.0344132 
3.19452 -0.774374 -0.0520455 3.47899 -0.97629 0.0107525 3.46911 -1.03929 0.0651541 
3.45375 -1.1209 0.102997 3.52662 -0.878753 0.0504631 3.57543 -0.855878 0.1221 
3.62703 -0.837002 0.15643 3.68244 -0.84849 0.166502 3.73778 -0.852615 0.169655 
3.79129 -0.83909 0.1814 3.84247 -0.808025 0.209132 3.89266 -0.783577 0.258648 
3.94199 -0.754405 0.315902 3.99291 -0.739678 0.364767 4.04508 -0.721547 0.391635 
4.09582 -0.677995 0.412799 4.14549 -0.626942 0.441867 4.19529 -0.59736 0.491726 
4.24734 -0.610831 0.553531 0.100543 0.933873 -0.107669 0.0252072 0.952172 0.0675262 
-0.0374058 0.939881 0.174355 -0.0930851 0.894968 0.227198 -0.146267 0.850697 0.243036 
-0.200157 0.830463 0.245674 -0.250951 0.811294 0.227909 -0.287414 0.763016 0.169275 
-0.303481 0.662142 0.0420026 -0.436181 0.284759 -0.186728 -0.50748 0.197272 -0.212318 
-0.563783 0.1735 -0.224136 3.77843 -1.38999 0.133729 3.72148 -1.36661 0.131855 
3.6627 -1.35401 0.129093 3.58637 -1.32458 0.126444 3.35747 -1.27464 0.0859956 
3.28277 -1.31245 0.0786358 
LINES 31 346
3 32 33 31 
13 30 34 35 36 37 38 39 40 41 42 43 44 27 
9 29 45 46 47 48 49 50 51 25 
11 27 52 53 54 55 56 57 58 59 60 28 
19 28 61 62 63 64 65 66 67 68 69 70 71 72 73 74 75 76 77 23 
12 28 78 79 80 81 82 83 84 85 86 87 24 
12 27 88 89 90 91 92 93 94 95 96 97 21 
12 26 98 99 100 101 102 103 104 105 106 107 24 
7 25 108 109 110 111 112 23 
9 25 113 114 115 116 117 118 119 20 
14 24 120 121 122 123 124 125 126 127 128 129 130 131 19 
5 23 132 133 134 6 
9 22 135 136 137 138 139 140 141 18 
5 19 142 143 144 14 
4 19 145 146 10 
23 17 147 148 149 150 151 152 153 154 155 156 157 158 159 160 161 162 163 164 165 166 167 14 
7 16 168 169 170 171 172 12 
7 16 173 174 175 176 177 12 
5 16 178 179 180 13 
4 12 181 182 11 
15 15 183 184 185 186 187 188 189 190 191 192 193 194 195 9 
5 14 196 197 198 10 
7 6 199 200 201 202 203 1 
43 10 204 205 206 207 208 209 210 211 212 213 214 215 216 217 218 219 220 221 222 223 224 225 226 227 228 229 230 231 232 233 234 235 236 237 238 239 240 241 242 243 244 6 
7 8 245 246 247 248 249 7 
5 8 250 251 252 3 
17 8 253 254 255 256 257 258 259 260 261 262 263 264 265 266 267 0 
11 6 268 269 270 271 272 273 274 275 276 1 
5 1 277 278 279 5 
6 4 280 281 282 283 3 
4 3 284 285 2 

POINT_DATA 286
SCALARS DY_raw double
LOOKUP_TABLE default
196.411 169.905 233.043 146.29 133.198 215.344 149.415 214.222 105.413 
217.875 125.452 280.902 138.715 124.806 113.008 129.831 103.697 111.035 
71.858 109.414 375.995 145.69 68.0497 165.136 141.978 163.179 155.166 
103.682 99.5958 90.541 202.771 184.217 124.082 154.806 213.768 210.298 
212.037 235.859 232.531 235.253 241.447 166.539 123.497 99.0092 93.2697 
121.356 170.494 186.422 150.96 161.444 166.942 163.834 120.177 138.59 
171.299 193.788 182.273 149.508 124.807 110.842 98.2635 99.5958 109.521 
121.671 124.142 105 105 103.277 97.8851 97.8851 94.3394 99.151 
129.668 151.982 163.427 163.427 145.575 141.592 99.4182 122.639 148.544 
136.134 138.632 138.632 128.563 137.512 140.649 133.694 111.44 136.589 
149.662 172.501 166.181 181.964 175.664 149.798 163.852 136.974 155.166 
146.246 144.171 164.872 184.826 212.135 212.135 187.916 161.769 165.612 
146.632 149.051 151.159 150.797 186.646 189.186 189.452 181.28 202.644 
217.319 211.954 298.983 142.203 138.868 122.751 137.538 139.738 157.723 
181.691 176.879 152.997 138.953 141.348 126.765 163.918 165.616 164.352 
62.6371 62.6371 55.0369 48.3027 56.3735 71.1854 64.4841 104.837 98.6155 
102.51 107.828 121.889 141.247 141.247 154.099 173.49 169.472 125.965 
135.662 118.578 139.654 131.889 130.413 118.715 106.453 107.72 88.1221 
87.2348 79.0273 83.1449 88.9219 91.1523 99.7595 92.0735 100.196 120.472 
110.178 131.537 135.829 137.964 171.738 157.472 145.933 130.577 143.9 
149.602 186.734 186.64 129.831 158.43 146.123 160.513 178.322 206.863 
176.822 181.765 181.169 216.752 209.179 200.058 241.232 123.75 136.404 
137.095 147.07 162.407 186.739 192.327 198.999 128.761 140.292 174.24 
215.982 228.358 232.461 232.461 239.779 252.647 280.927 234.407 225.396 
246.412 202.534 214.044 199.482 197.319 197.319 203.885 182.649 182.649 
171.366 191.671 191.671 169.364 169.364 135.409 161.955 142.444 135.78 
168.668 124.063 99.8125 107.104 100.3 106.393 112.9 106.191 160.585 
171.018 153.949 126.813 141.525 151.589 178.342 178.342 109.815 123.604 
126.243 137.351 174.595 181.451 181.451 136.08 123.418 123.418 136.106 
124.661 156.108 129.628 139.367 132.773 161.482 196.179 178.789 206.115 
216.071 221.772 253.326 246.737 246.99 204.155 167.003 171.253 168.874 
174.688 127.083 135.225 140.975 154.002 157.031 182.663 
FIELD FieldData 7
DY_minmax 1 286 double
0.451973 0.371086 0.563762 0.299021 0.259069 0.50975 0.308557 0.506326 0.17428 
0.517474 0.235431 0.709809 0.275905 0.233461 0.197457 0.248797 0.169045 0.191437 
0.0718824 0.186491 1 0.297192 0.0602609 0.356533 0.285864 0.350563 0.326109 
0.168997 0.156528 0.128896 0.471383 0.414763 0.231251 0.325011 0.504942 0.494352 
0.49966 0.572353 0.562198 0.570505 0.589406 0.360815 0.229465 0.154738 0.137223 
0.222932 0.372884 0.421492 0.313273 0.345268 0.362044 0.352559 0.219335 0.275525 
0.37534 0.44397 0.40883 0.308841 0.233464 0.190846 0.152462 0.156528 0.186818 
0.223895 0.231436 0.173019 0.173019 0.167762 0.151308 0.151308 0.140487 0.155171 
0.248297 0.316392 0.351318 0.351318 0.29684 0.284686 0.155986 0.226847 0.305901 
0.26803 0.275652 0.275652 0.244926 0.272236 0.281807 0.260583 0.192673 0.269418 
0.309312 0.379009 0.359721 0.407886 0.388661 0.309729 0.352616 0.270594 0.326109 
0.298887 0.292556 0.355729 0.41662 0.499958 0.499958 0.426048 0.346259 0.357985 
0.300066 0.307448 0.313881 0.312774 0.422174 0.429925 0.430739 0.405799 0.470996 
0.515777 0.499406 0.764987 0.28655 0.276372 0.227188 0.272315 0.279029 0.333912 
0.407052 0.392368 0.319491 0.276634 0.283942 0.239438 0.352815 0.357999 0.354141 
0.0437436 0.0437436 0.0205504 0 0.0246294 0.0698297 0.0493799 0.172523 0.153537 
0.165421 0.181649 0.22456 0.283632 0.283632 0.322853 0.382026 0.369766 0.236999 
0.266589 0.214454 0.278772 0.255074 0.250572 0.214874 0.177455 0.181322 0.121514 
0.118807 0.0937605 0.106326 0.123955 0.130762 0.157028 0.133573 0.15836 0.220235 
0.188821 0.254002 0.267098 0.273615 0.37668 0.333146 0.297932 0.251072 0.291728 
0.309128 0.422444 0.422157 0.248797 0.336068 0.298512 0.342427 0.396773 0.483871 
0.392196 0.407279 0.405461 0.514047 0.490937 0.463104 0.588752 0.230239 0.268854 
0.270964 0.301404 0.348206 0.422459 0.43951 0.45987 0.245531 0.280718 0.384315 
0.511696 0.549463 0.561984 0.561984 0.584319 0.623585 0.709887 0.567922 0.540427 
0.604559 0.470658 0.505784 0.461344 0.454745 0.454745 0.47478 0.409978 0.409978 
0.375545 0.437508 0.437508 0.369435 0.369435 0.265816 0.346827 0.287287 0.26695 
0.367313 0.231193 0.15719 0.179441 0.158676 0.17727 0.197127 0.176654 0.342647 
0.374484 0.322395 0.239587 0.284482 0.315192 0.396833 0.396833 0.187713 0.229794 
0.237844 0.271744 0.385399 0.40632 0.40632 0.267866 0.229226 0.229226 0.267945 
0.233018 0.328984 0.248176 0.277896 0.257775 0.345383 0.451266 0.398198 0.481587 
0.51197 0.529367 0.625658 0.605552 0.606323 0.475606 0.36223 0.375199 0.36794 
0.385683 0.240409 0.265256 0.282804 0.322555 0.331801 0.41002 
WidthEq 1 286 double
1.48735 3.59862 1.21408 2.08246 2.04322 2.54106 4.17551 1.44132 2.46736 
1.0871 3.74712 2.38703 4.33604 3.19898 4.23822 1.27736 4.46976 2.12772 
1.11667 4.34077 1.19188 2.68372 1.44397 4.28279 5.22638 4.29872 3.02554 
3.94314 3.6816 2.19903 1.83148 1.55736 1 1.51939 1.82928 1.98885 
2.24952 1.97768 2.19361 2.15212 2.08283 2.64486 3.22043 3.65877 3.82259 
2.73281 3.09502 3.1359 3.59017 3.77574 3.96295 4.18682 3.72851 3.25364 
2.61929 1.89073 1.87566 2.25977 2.66437 2.73374 3.59729 3.6816 3.09183 
3.14455 3.03935 3.61279 3.61279 3.92703 4.25481 4.25481 4.24724 4.19977 
3.82379 3.69262 3.57892 3.57892 3.98841 4.39052 3.83815 3.48725 3.38972 
3.54196 3.91968 3.91968 4.27169 4.38311 4.65267 5.30894 3.73377 3.24222 
2.73217 2.35507 2.01848 2.03706 2.05809 2.52574 2.46845 2.74162 3.02554 
3.33864 3.54587 3.36261 3.01755 3.23181 3.23181 3.85227 4.61338 4.73621 
4.24998 3.96141 3.66628 3.74155 3.44278 3.99053 3.49054 3.10747 2.56312 
2.50472 2.26823 1.3637 5.23028 5.01766 4.50411 4.0964 3.6245 3.2741 
2.90693 2.915 2.97457 3.07176 3.38873 3.97123 4.67261 4.53695 4.31125 
1.90162 1.90162 2.28432 2.45332 2.41021 2.01659 1.77892 4.45197 4.30756 
4.22635 4.05677 3.66228 2.50273 2.50273 2.29353 2.18631 2.01975 2.13433 
2.07702 2.03581 2.01914 1.90746 1.75574 1.6859 1.66554 1.91869 2.32021 
2.43575 3.24169 3.2719 4.18358 4.40913 4.40151 4.08937 3.48529 3.67523 
4.17227 4.18674 4.43119 4.54191 4.19303 4.22927 4.3181 4.26516 4.2135 
4.12597 3.49814 3.35191 1.27736 1.35727 1.34594 1.36457 1.26744 1.10117 
1.14715 1.12658 1.1167 1.15788 1.20916 1.37806 1.23417 3.9428 3.76823 
3.79905 4.34467 4.20174 3.56187 3.22608 3.05822 3.32136 3.12215 2.85808 
2.40591 2.36003 2.29162 2.29162 2.1411 1.84741 1.78022 1.84539 2.009 
1.99066 2.39176 2.2402 2.34955 2.69564 2.69564 2.73406 3.10925 3.10925 
3.27633 3.10643 3.10643 3.09329 3.09329 3.12146 2.27601 2.43535 2.00502 
1.37158 1.56285 2.16828 2.42383 2.9103 3.7171 3.99746 4.02937 3.75129 
3.87001 4.12183 2.53705 2.40057 2.20638 1.84125 1.84125 2.42446 2.26223 
2.19127 2.49057 1.96209 1.69105 1.69105 1.81688 1.91213 1.91213 2.0429 
2.2291 2.04654 2.48027 2.27652 2.28127 1.84133 1.66792 3.39211 3.00654 
2.69694 2.62126 2.23452 2.57124 2.51727 2.86087 3.419 3.47488 3.60122 
3.5022 2.21243 2.13749 2.07208 1.98214 2.00866 1.67435 
rRFP 1 286 double
2784.15 3579.44 2681.21 3008.32 2993.54 3181.07 3796.75 2766.81 3153.31 
2633.38 3635.38 3123.05 3857.22 3428.9 3820.37 2705.05 3907.59 3025.37 
2644.52 3859 2672.85 3234.81 2767.81 3837.16 4192.6 3843.16 3363.57 
3709.22 3610.7 3052.23 2913.78 2810.52 2600.57 2796.22 2912.95 2973.06 
3071.25 2968.85 3050.19 3034.56 3008.46 3220.17 3436.98 3602.1 3663.81 
3253.3 3389.74 3405.14 3576.26 3646.16 3716.68 3801.01 3628.37 3449.49 
3210.54 2936.1 2930.42 3075.11 3227.52 3253.65 3578.94 3610.7 3388.54 
3408.4 3368.77 3584.78 3584.78 3703.15 3826.62 3826.62 3823.77 3805.89 
3664.26 3614.85 3572.02 3572.02 3726.27 3877.74 3669.67 3537.49 3500.75 
3558.1 3700.38 3700.38 3832.98 3874.95 3976.49 4223.7 3630.35 3445.19 
3253.06 3111.01 2984.22 2991.22 2999.14 3175.3 3153.72 3256.62 3363.57 
3481.51 3559.57 3490.54 3360.56 3441.27 3441.27 3674.99 3961.69 4007.96 
3824.8 3716.1 3604.93 3633.28 3520.74 3727.07 3538.73 3394.43 3189.38 
3167.38 3078.3 2737.57 4194.07 4113.98 3920.53 3766.95 3589.19 3457.2 
3318.89 3321.93 3344.37 3380.98 3500.38 3719.8 3984 3932.9 3847.88 
2940.2 2940.2 3084.36 3148.02 3131.78 2983.51 2893.98 3900.89 3846.49 
3815.9 3752.02 3603.42 3166.63 3166.63 3087.83 3047.44 2984.7 3027.86 
3006.27 2990.75 2984.47 2942.4 2885.25 2858.94 2851.27 2946.63 3097.88 
3141.4 3444.99 3456.37 3799.79 3884.75 3881.88 3764.3 3536.75 3608.3 
3795.53 3800.98 3893.06 3934.77 3803.35 3817 3850.46 3830.52 3811.06 
3778.09 3541.59 3486.51 2705.05 2735.15 2730.88 2737.9 2701.31 2638.68 
2656 2648.25 2644.53 2660.04 2679.36 2742.98 2688.78 3709.09 3643.33 
3654.94 3860.47 3806.63 3565.6 3439.11 3375.88 3475 3399.96 3300.49 
3130.16 3112.88 3087.11 3087.11 3030.41 2919.78 2894.47 2919.02 2980.65 
2973.74 3124.83 3067.74 3108.93 3239.3 3239.3 3253.77 3395.1 3395.1 
3458.04 3394.04 3394.04 3389.09 3389.09 3399.7 3081.23 3141.25 2979.15 
2740.54 2812.59 3040.65 3136.91 3320.16 3624.07 3729.68 3741.7 3636.95 
3681.67 3776.53 3179.56 3128.15 3055 2917.46 2917.46 3137.15 3076.04 
3049.31 3162.05 2962.98 2860.88 2860.88 2908.28 2944.16 2944.16 2993.42 
3063.56 2994.79 3158.17 3081.42 3083.21 2917.49 2852.17 3501.65 3356.41 
3239.79 3211.28 3065.6 3192.44 3172.11 3301.54 3511.78 3532.83 3580.42 
3543.12 3057.28 3029.05 3004.41 2970.53 2980.52 2854.59 
rGFP 1 286 double
2807.93 3127.22 2798.73 2820.44 2787.95 3063 3139.68 2824.56 2775.89 
2752.65 2985.88 3186.32 3117.27 2915.05 2994.75 2681.64 2979.3 2752.05 
2596.04 2990.74 2963.94 2906.79 2614.06 3223.04 3257.83 3217.26 2985.26 
2924.63 2882.47 2714.9 2887.17 2802.69 2639.88 2751.01 2906.84 2934.05 
2992.78 2982.25 3025.88 3022.09 3018.69 2956.27 2913.51 2878.05 2872.33 
2847.44 3043.48 3100.4 3057.77 3125.37 3177.38 3201.74 2963.88 2966.72 
2964.48 2882.2 2857.68 2853.65 2848.33 2818.81 2869.28 2882.47 2854.42 
2898.4 2893.11 2895.14 2895.14 2921.37 2932.28 2932.28 2916.48 2932.21 
3011.62 3077.01 3100.69 3100.69 3096.41 3137.46 2897.38 2943.47 3019.32 
2997.98 3059.19 3059.19 3064.98 3118.53 3170.19 3225.57 2931.89 2958.65 
2924.7 2922.05 2851.23 2886.47 2877.33 2894.15 2920.26 2891.33 2985.26 
3004.06 3027.01 3070.2 3073.52 3201.38 3201.38 3239.7 3262.1 3300.17 
3138.98 3106.25 3069.99 3080.01 3158.38 3270.75 3177.09 3079.12 3035.2 
3060.12 2996.56 2923.52 3259.56 3212.59 3068.68 3079.21 3022.28 3032.2 
3043.96 3031.4 2970.9 2942.63 2994.79 3019.21 3281.72 3267.19 3224.36 
2634.91 2634.91 2641.52 2634.3 2651.67 2659.35 2630.51 2982.53 2940.59 
2949.04 2953.23 2962.19 2869.3 2869.3 2869.23 2895.1 2858.09 2784.65 
2797.57 2757.2 2797.78 2767.37 2744.77 2715.94 2693.1 2722.48 2720.26 
2728.28 2771.98 2787.84 2887.81 2917.7 2954.89 2892.32 2865.01 2958.56 
2975.49 3066.51 3117.68 3142.42 3235.9 3181.79 3145.95 3072.73 3122.12 
3133.05 3169.02 3141.4 2681.64 2730.83 2712.47 2734.83 2741.81 2743.59 
2718.64 2720.57 2718.11 2766.77 2768.73 2791.49 2813.52 3003.72 3029.8 
3036.63 3154.77 3198.19 3180.94 3136.26 3124.38 2943.46 2953.81 3013.79 
3035.43 3054.73 3048.51 3048.51 3029.19 2982.54 3015.91 2948.37 2968.62 
3006.32 3000.21 2995.3 2984.49 3047.7 3047.7 3073.23 3083.7 3083.7 
3077.25 3111.21 3111.21 3039.69 3039.69 2938.47 2884.41 2862.7 2788.04 
2747.14 2709.69 2732.22 2775.4 2807.7 2911.27 2967.11 2943.68 3118.2 
3177.64 3150.35 2837.53 2855.54 2850.26 2844.17 2844.17 2782.04 2795.42 
2792.43 2857.88 2858.37 2822.64 2822.64 2763.04 2751.79 2751.79 2793.85 
2793.68 2835.28 2837.31 2833.07 2818.69 2813.14 2843.01 3122.27 3135.49 
3098.53 3097.12 3081.86 3150.22 3137.54 3099.86 3086.78 3110.88 3123.95 
3127.59 2796.96 2804.84 2807.91 2821.05 2831.22 2821.64 
bkstRFP 1 286 double
560.269 1355.56 457.329 784.439 769.659 957.189 1572.87 542.929 929.429 
409.499 1411.5 899.169 1633.34 1205.02 1596.49 481.169 1683.71 801.489 
420.639 1635.12 448.969 1010.93 543.929 1613.28 1968.72 1619.28 1139.69 
1485.34 1386.82 828.349 689.899 586.639 376.689 572.339 689.069 749.179 
847.369 744.969 826.309 810.679 784.579 996.289 1213.1 1378.22 1439.93 
1029.42 1165.86 1181.26 1352.38 1422.28 1492.8 1577.13 1404.49 1225.61 
986.659 712.219 706.539 851.229 1003.64 1029.77 1355.06 1386.82 1164.66 
1184.52 1144.89 1360.9 1360.9 1479.27 1602.74 1602.74 1599.89 1582.01 
1440.38 1390.97 1348.14 1348.14 1502.39 1653.86 1445.79 1313.61 1276.87 
1334.22 1476.5 1476.5 1609.1 1651.07 1752.61 1999.82 1406.47 1221.31 
1029.18 887.129 760.339 767.339 775.259 951.419 929.839 1032.74 1139.69 
1257.63 1335.69 1266.66 1136.68 1217.39 1217.39 1451.11 1737.81 1784.08 
1600.92 1492.22 1381.05 1409.4 1296.86 1503.19 1314.85 1170.55 965.499 
943.499 854.419 513.689 1970.19 1890.1 1696.65 1543.07 1365.31 1233.32 
1095.01 1098.05 1120.49 1157.1 1276.5 1495.92 1760.12 1709.02 1624 
716.319 716.319 860.479 924.139 907.899 759.629 670.099 1677.01 1622.61 
1592.02 1528.14 1379.54 942.749 942.749 863.949 823.559 760.819 803.979 
782.389 766.869 760.589 718.519 661.369 635.059 627.389 722.749 873.999 
917.519 1221.11 1232.49 1575.91 1660.87 1658 1540.42 1312.87 1384.42 
1571.65 1577.1 1669.18 1710.89 1579.47 1593.12 1626.58 1606.64 1587.18 
1554.21 1317.71 1262.63 481.169 511.269 506.999 514.019 477.429 414.799 
432.119 424.369 420.649 436.159 455.479 519.099 464.899 1485.21 1419.45 
1431.06 1636.59 1582.75 1341.72 1215.23 1152 1251.12 1176.08 1076.61 
906.279 888.999 863.229 863.229 806.529 695.899 670.589 695.139 756.769 
749.859 900.949 843.859 885.049 1015.42 1015.42 1029.89 1171.22 1171.22 
1234.16 1170.16 1170.16 1165.21 1165.21 1175.82 857.349 917.369 755.269 
516.659 588.709 816.769 913.029 1096.28 1400.19 1505.8 1517.82 1413.07 
1457.79 1552.65 955.679 904.269 831.119 693.579 693.579 913.269 852.159 
825.429 938.169 739.099 636.999 636.999 684.399 720.279 720.279 769.539 
839.679 770.909 934.289 857.539 859.329 693.609 628.289 1277.77 1132.53 
1015.91 987.399 841.719 968.559 948.229 1077.66 1287.9 1308.95 1356.54 
1319.24 833.399 805.169 780.529 746.649 756.639 630.709 
bkstGFP 1 286 double
292.132 611.422 282.932 304.642 272.152 547.202 623.882 308.762 260.092 
236.852 470.082 670.522 601.472 399.252 478.952 165.842 463.502 236.252 
80.242 474.942 448.142 390.992 98.262 707.242 742.032 701.462 469.462 
408.832 366.672 199.102 371.372 286.892 124.082 235.212 391.042 418.252 
476.982 466.452 510.082 506.292 502.892 440.472 397.712 362.252 356.532 
331.642 527.682 584.602 541.972 609.572 661.582 685.942 448.082 450.922 
448.682 366.402 341.882 337.852 332.532 303.012 353.482 366.672 338.622 
382.602 377.312 379.342 379.342 405.572 416.482 416.482 400.682 416.412 
495.822 561.212 584.892 584.892 580.612 621.662 381.582 427.672 503.522 
482.182 543.392 543.392 549.182 602.732 654.392 709.772 416.092 442.852 
408.902 406.252 335.432 370.672 361.532 378.352 404.462 375.532 469.462 
488.262 511.212 554.402 557.722 685.582 685.582 723.902 746.302 784.372 
623.182 590.452 554.192 564.212 642.582 754.952 661.292 563.322 519.402 
544.322 480.762 407.722 743.762 696.792 552.882 563.412 506.482 516.402 
528.162 515.602 455.102 426.832 478.992 503.412 765.922 751.392 708.562 
119.112 119.112 125.722 118.502 135.872 143.552 114.712 466.732 424.792 
433.242 437.432 446.392 353.502 353.502 353.432 379.302 342.292 268.852 
281.772 241.402 281.982 251.572 228.972 200.142 177.302 206.682 204.462 
212.482 256.182 272.042 372.012 401.902 439.092 376.522 349.212 442.762 
459.692 550.712 601.882 626.622 720.102 665.992 630.152 556.932 606.322 
617.252 653.222 625.602 165.842 215.032 196.672 219.032 226.012 227.792 
202.842 204.772 202.312 250.972 252.932 275.692 297.722 487.922 514.002 
520.832 638.972 682.392 665.142 620.462 608.582 427.662 438.012 497.992 
519.632 538.932 532.712 532.712 513.392 466.742 500.112 432.572 452.822 
490.522 484.412 479.502 468.692 531.902 531.902 557.432 567.902 567.902 
561.452 595.412 595.412 523.892 523.892 422.672 368.612 346.902 272.242 
231.342 193.892 216.422 259.602 291.902 395.472 451.312 427.882 602.402 
661.842 634.552 321.732 339.742 334.462 328.372 328.372 266.242 279.622 
276.632 342.082 342.572 306.842 306.842 247.242 235.992 235.992 278.052 
277.882 319.482 321.512 317.272 302.892 297.342 327.212 606.472 619.692 
582.732 581.322 566.062 634.422 621.742 584.062 570.982 595.082 608.152 
611.792 281.162 289.042 292.112 305.252 315.422 305.842 
tubeWidth 1 286 double
0.126879 0.074616 0.151951 0.0574093 0.277808 0.232766 0.223075 0.148056 0.215553 
0.202222 0.228808 0.142034 0.208852 0.233125 0.188343 0.176602 0.108655 0.285209 
0.221376 0.250192 0.116185 0.231793 0.117325 0.154527 0.220112 0.300817 0.216982 
0.261603 0.219723 0.224165 0.0434348 0.212453 0.103696 0.163186 0.0837099 0.0786312 
0.0839411 0.104877 0.129259 0.211878 0.174615 0.200389 0.217689 0.218201 0.240506 
0.312333 0.276054 0.25479 0.237508 0.218241 0.216297 0.253279 0.262052 0.241064 
0.22308 0.200345 0.164771 0.145397 0.150791 0.153406 0.191811 0.155405 0.177202 
0.167778 0.17631 0.160738 0.183517 0.240681 0.312326 0.309081 0.273864 0.235251 
0.248523 0.252043 0.195544 0.189839 0.23433 0.208289 0.15689 0.196375 0.177955 
0.146959 0.164817 0.171563 0.210019 0.265842 0.248401 0.248236 0.247269 0.26053 
0.182474 0.158984 0.185305 0.245646 0.186505 0.264646 0.229231 0.256182 0.254358 
0.2667 0.261229 0.221601 0.221212 0.164606 0.192389 0.179233 0.212375 0.240785 
0.233786 0.180016 0.168049 0.10309 0.159084 0.226692 0.238181 0.226203 0.250344 
0.24332 0.187266 0.237906 0.299345 0.271327 0.268052 0.246344 0.264068 0.235073 
0.211328 0.203594 0.198699 0.195288 0.173929 0.198883 0.224058 0.152453 0.215943 
0.212165 0.269969 0.311374 0.2892 0.26355 0.248928 0.296065 0.246699 0.168124 
0.0980169 0.195113 0.197449 0.272686 0.270915 0.257158 0.27848 0.254275 0.20571 
0.223169 0.238648 0.246969 0.230888 0.230057 0.203029 0.194512 0.170518 0.165878 
0.210603 0.228656 0.246666 0.267364 0.277177 0.267217 0.169851 0.190494 0.191203 
0.149395 0.175076 0.1684 0.22395 0.249273 0.255295 0.197533 0.256061 0.279393 
0.301692 0.215107 0.275284 0.218159 0.204024 0.234367 0.224293 0.223717 0.20787 
0.150561 0.159432 0.196998 0.244214 0.211863 0.219595 0.241603 0.153434 0.211386 
0.23905 0.227418 0.218311 0.189142 0.190785 0.169882 0.259303 0.241147 0.248642 
0.223616 0.234273 0.235452 0.228618 0.217871 0.215737 0.223165 0.213987 0.201928 
0.216366 0.247165 0.235454 0.205786 0.208207 0.242774 0.216124 0.222244 0.232517 
0.224124 0.242291 0.251107 0.271174 0.267492 0.249412 0.229608 0.208402 0.158531 
0.123272 0.138549 0.165169 0.227612 0.265364 0.277032 0.293758 0.251951 0.237762 
0.24288 0.26483 0.262219 0.279002 0.327186 0.307647 0.240554 0.200153 0.198761 
0.17657 0.272797 0.188813 0.176879 0.223153 0.211793 0.193414 0.190866 0.246387 
0.279982 0.255081 0.271051 0.334743 0.312985 0.291647 0.250554 0.106826 0.212317 
0.234137 0.164427 0.132835 0.115021 0.147626 0.245141 0.0945624 0.0659361 0.113404 
0.219622 0.289314 0.277733 0.249947 0.194133 0.170128 0.173641 
