# vtk DataFile Version 3.0
vtk output
ASCII
DATASET POLYDATA
POINTS 353 float
1.47498 0.532382 1.89396 6.15795 1.18873 0.605479 6.00469 0.971955 0.147738 
7.5871 0.540544 0.200652 7.24897 0.976306 0.234574 5.49386 0.608424 -0.0282017 
7.46825 0.709494 -0.348709 7.46458 0.814762 -0.452407 7.76959 0.268949 -0.200456 
8.24846 0.215585 -0.436865 7.76001 0.118353 -0.718862 4.39245 0.0733844 -0.230964 
4.48488 0.16171 -0.319601 5.1755 0.452436 -0.674893 7.95524 -0.389161 -0.116626 
4.25956 -0.238296 -0.202328 4.06847 -0.215559 -0.527856 4.92542 0.0736776 -0.828781 
0.0990312 0.12273 -0.7681 7.84716 -0.651154 -0.558657 7.91769 -0.514716 -0.55392 
8.33007 -0.151118 -1.01296 8.30908 -0.000837414 -1.06711 7.67736 0.0413144 -1.25911 
3.85308 -0.156441 -0.931392 4.76839 0.204906 -1.20955 3.50981 -0.0827299 -1.34591 
3.63982 0.29178 -1.27594 2.73696 0.361278 -1.32905 3.26952 -0.104647 -1.5208 
7.76885 -1.16617 -0.470952 7.63552 -0.546547 -1.26665 3.695 -0.537623 -1.02104 
2.9307 0.215913 -1.79627 7.66094 -1.37168 -0.495377 7.57057 -1.16741 -0.747195 
7.60044 -1.04563 -0.867733 7.51182 -0.513217 -1.67186 4.6715 -0.581575 -1.27522 
5.04443 -0.922647 -1.22623 6.54874 -1.62759 -0.837877 7.86186 -0.745635 -1.72958 
7.67418 -0.645293 -1.82529 6.81843 -0.991599 -2.31189 6.88189 -0.933698 -2.19322 
6.94195 -0.870884 -2.10012 6.99538 -0.79909 -2.05738 7.04902 -0.745157 -2.02824 
7.10367 -0.707322 -2.00407 7.15869 -0.665569 -1.97335 7.21408 -0.619976 -1.93602 
7.27118 -0.576361 -1.88636 7.33296 -0.545695 -1.82402 7.40734 -0.518209 -1.75878 
7.60477 -0.582359 -1.75091 7.92286 -0.721067 -1.66122 7.98033 -0.68533 -1.61421 
8.03771 -0.654795 -1.57248 8.09853 -0.640629 -1.51467 8.15976 -0.602098 -1.43234 
8.21787 -0.503782 -1.32567 8.27448 -0.345821 -1.18069 6.5985 -1.52712 -0.802523 
6.65164 -1.46519 -0.770864 6.70608 -1.4376 -0.757385 6.76056 -1.42704 -0.758316 
6.81523 -1.42304 -0.763186 6.87138 -1.4261 -0.761135 6.92979 -1.43984 -0.748586 
6.98595 -1.4429 -0.746528 7.04064 -1.43898 -0.751322 7.09533 -1.43506 -0.756117 
7.1515 -1.43819 -0.753989 7.21029 -1.4481 -0.734819 7.26848 -1.44397 -0.708684 
7.32773 -1.42796 -0.663067 7.38484 -1.39613 -0.622595 7.44223 -1.37076 -0.586171 
7.50479 -1.37809 -0.548808 7.57775 -1.39254 -0.515007 7.56567 -0.574347 -1.59865 
7.59137 -0.596702 -1.52159 7.60895 -0.580711 -1.41283 4.98224 -0.868479 -1.23696 
4.92051 -0.805199 -1.23587 4.86046 -0.743748 -1.2226 4.80438 -0.698025 -1.2043 
4.75565 -0.656229 -1.21347 4.72034 -0.616295 -1.24182 2.77706 0.284365 -1.85462 
2.68219 0.3254 -1.88435 2.61892 0.329538 -1.90555 2.56122 0.308453 -1.93969 
2.50844 0.256081 -1.95999 2.455 0.212481 -1.97851 2.40061 0.190242 -1.98686 
2.34616 0.179606 -1.98585 2.29175 0.174326 -1.97972 2.23708 0.17033 -1.97485 
2.18093 0.173382 -1.9769 2.12252 0.187131 -1.98946 2.06636 0.190184 -1.99151 
2.01169 0.186188 -1.98664 1.95729 0.180908 -1.98051 1.9029 0.17555 -1.9743 
1.84852 0.170193 -1.96809 1.79413 0.164835 -1.96188 1.73974 0.159477 -1.95567 
1.68536 0.15412 -1.94947 1.63097 0.148762 -1.94326 1.57659 0.143405 -1.93705 
1.5222 0.138047 -1.93084 1.46782 0.13269 -1.92463 1.41343 0.127332 -1.91843 
1.35905 0.121974 -1.91222 1.30475 0.121818 -1.90073 1.25064 0.132058 -1.8787 
1.19679 0.157894 -1.84085 1.14304 0.188939 -1.79771 1.08919 0.214776 -1.75985 
1.03507 0.225015 -1.73782 0.980779 0.224859 -1.72634 0.92641 0.219424 -1.72005 
0.872312 0.212705 -1.71251 0.819698 0.198937 -1.69804 0.769336 0.174473 -1.67307 
0.716739 0.160628 -1.65852 0.662927 0.152547 -1.64964 0.610346 0.138624 -1.63502 
0.560272 0.112798 -1.60871 0.509445 0.0905429 -1.58591 0.459747 0.0685573 -1.55298 
0.409208 0.0618213 -1.51428 0.360066 0.070952 -1.44963 0.310531 0.104451 -1.36739 
0.263881 0.146768 -1.25228 0.218929 0.187172 -1.12491 0.175868 0.216073 -1.00703 
0.142361 0.219873 -0.916604 0.125292 0.199345 -0.854471 0.104662 0.162895 -0.807786 
3.07338 0.151558 -1.72877 3.16091 0.113695 -1.67641 3.21438 0.0747627 -1.63783 
3.24245 0.00774243 -1.59249 3.3324 -0.166633 -1.48308 3.40636 -0.151638 -1.43225 
7.55875 -0.255038 -1.53708 7.61608 -0.0598012 -1.40285 7.591 -0.669111 -1.28378 
7.56881 -0.77133 -1.29706 7.54696 -0.851646 -1.2938 7.54291 -0.908986 -1.27188 
7.54908 -0.95318 -1.23883 7.55713 -0.986806 -1.19542 7.56366 -1.0102 -1.14127 
7.56069 -1.01896 -1.07018 7.54474 -1.0238 -0.992312 7.55537 -1.03123 -0.922773 
7.57006 -1.08824 -0.825222 7.56453 -1.12839 -0.785548 7.65404 -0.960341 -0.812296 
7.70698 -0.853234 -0.752343 7.76914 -0.74748 -0.665207 7.72043 -1.28279 -0.490402 
3.61183 -0.124631 -1.27068 3.68359 -0.125158 -1.21788 3.73531 -0.117146 -1.15434 
3.77044 -0.115428 -1.08136 3.81397 -0.126177 -1.00909 3.75912 -0.493455 -0.91059 
3.82749 -0.438645 -0.792737 3.92123 -0.350001 -0.661387 3.63482 -0.515472 -1.04185 
3.57828 -0.516252 -1.05052 3.52334 -0.535838 -1.06148 3.46869 -0.573681 -1.08566 
3.41535 -0.629045 -1.11339 3.36418 -0.700307 -1.1359 3.31076 -0.760873 -1.16891 
3.25594 -0.809189 -1.20356 3.20102 -0.845741 -1.229 3.14608 -0.865333 -1.23995 
3.08983 -0.867482 -1.24728 3.03142 -0.853734 -1.25984 2.97526 -0.850681 -1.26189 
2.92058 -0.854599 -1.2571 2.86589 -0.858518 -1.2523 2.80971 -0.855388 -1.25443 
2.751 -0.840207 -1.26839 2.69286 -0.822096 -1.27485 2.63238 -0.78673 -1.28788 
2.57239 -0.738849 -1.30285 2.52384 -0.693716 -1.3257 2.50224 -0.640663 -1.34642 
2.4945 -0.570668 -1.35286 2.49919 -0.468313 -1.32902 2.52115 -0.348674 -1.29129 
2.54002 -0.22416 -1.24792 2.57559 -0.108371 -1.21703 2.62096 0.00318213 -1.19255 
2.66605 0.0991454 -1.18388 2.701 0.178532 -1.18991 2.71869 0.235456 -1.21512 
2.7394 0.282298 -1.25124 2.74312 0.322275 -1.29071 3.74328 -0.407955 -0.979781 
3.79473 -0.282091 -0.948696 7.71305 -0.231448 -0.980906 3.40498 -0.065875 -1.45138 
7.70312 0.0817156 -1.11085 7.72565 0.111741 -0.984796 7.73039 0.128201 -0.859386 
7.87403 -0.575126 -0.57165 3.582 0.122448 -1.32053 4.77906 0.18639 -1.15087 
4.80204 0.173944 -1.08053 4.85481 0.147621 -0.981191 3.9424 -0.112228 -0.827393 
4.00984 -0.0621005 -0.74368 4.05824 -0.0453661 -0.667703 4.07449 -0.0950088 -0.603293 
8.31844 -0.0696535 -1.04452 8.32684 -0.0362179 -0.80024 8.29566 0.0834735 -0.605638 
7.9006 -0.578832 -0.547639 7.8733 -0.344523 -0.450479 7.85349 -0.187479 -0.365698 
7.84481 -0.0552869 -0.308609 7.83577 0.0560994 -0.272628 7.81506 0.161151 -0.240595 
7.91929 -0.521256 -0.334269 4.13212 -0.270421 -0.410564 4.19577 -0.271853 -0.308109 
5.06422 0.307297 -0.77809 5.00291 0.148067 -0.516084 5.05025 0.237287 -0.294274 
5.10387 0.305667 -0.150593 5.1636 0.344544 -0.0641124 5.22057 0.376514 -0.0237873 
5.27533 0.402593 -0.00881826 5.3283 0.435457 -0.00397644 5.37935 0.486165 -0.00628442 
5.43423 0.53942 -0.00769957 4.22652 -0.0397953 -0.421069 4.32383 0.0487354 -0.314242 
7.792 0.15499 -0.517586 7.79688 0.210597 -0.350135 4.25307 -0.211064 -0.0938319 
4.22146 -0.201884 0.00166972 4.1779 -0.209452 0.0826814 4.13242 -0.217209 0.163912 
4.08692 -0.219697 0.250354 4.04123 -0.2157 0.340813 3.99405 -0.204654 0.42435 
3.94452 -0.188043 0.492036 3.89677 -0.191155 0.558321 3.84848 -0.20858 0.607522 
3.79662 -0.214676 0.635224 3.7446 -0.214363 0.667005 3.69509 -0.209142 0.725107 
3.64528 -0.19117 0.791456 3.59807 -0.179969 0.87484 3.55209 -0.17461 0.963962 
3.50489 -0.163416 1.04734 3.45517 -0.140313 1.11903 3.40623 -0.120857 1.19431 
3.3565 -0.0976899 1.26593 3.309 -0.0851204 1.34797 3.26124 -0.0712665 1.42875 
3.20963 -0.0448064 1.48676 3.15607 -0.0203383 1.52596 3.10169 -0.00880785 1.54672 
3.04562 -0.000547196 1.54994 2.9873 0.0183958 1.54267 2.93143 0.036968 1.55652 
2.87757 0.0628818 1.5943 2.82537 0.0921505 1.64955 2.77404 0.122902 1.71374 
2.7182 0.175102 1.75686 2.66276 0.219758 1.797 2.60688 0.255297 1.82533 
2.54872 0.284706 1.82853 2.49265 0.292967 1.83175 2.43798 0.288971 1.83662 
2.38367 0.288892 1.84803 2.32955 0.299132 1.87006 2.27569 0.325046 1.90784 
2.22165 0.357452 1.94964 2.16603 0.391699 1.97924 2.1078 0.41585 1.97724 
2.05145 0.408578 1.96455 1.99595 0.37475 1.93644 1.93915 0.341484 1.89737 
1.88029 0.329233 1.85846 1.82412 0.332363 1.85633 1.76961 0.355722 1.88623 
1.71407 0.395254 1.92103 1.65618 0.440267 1.94006 1.6001 0.460374 1.9524 
1.54546 0.471635 1.95263 1.49866 0.496654 1.92877 4.30602 -0.173346 -0.225533 
4.35076 -0.0981874 -0.237973 4.38399 -0.0137781 -0.238525 5.25699 0.511088 -0.542909 
5.32419 0.539178 -0.435532 5.38611 0.55968 -0.345833 5.43671 0.57936 -0.255147 
5.46572 0.598242 -0.149431 4.43867 0.117547 -0.275283 7.6313 0.360645 -0.58233 
7.54519 0.546839 -0.448438 7.71781 0.361908 -0.0727597 7.66096 0.446921 0.0732471 
7.46909 0.767961 -0.406354 7.39827 0.782994 -0.180726 7.34145 0.863042 -0.0402169 
7.29393 0.925468 0.096692 5.58117 0.679618 0.0804383 5.6442 0.755693 0.1292 
5.69754 0.802526 0.137594 5.74932 0.82814 0.125339 5.8043 0.834457 0.12441 
5.85785 0.865083 0.118277 5.92136 0.910632 0.128467 7.51316 0.659639 0.282154 
7.45062 0.744919 0.334387 7.38991 0.812398 0.352125 7.3299 0.860334 0.337101 
7.28125 0.900265 0.308976 7.25927 0.93771 0.272442 6.10233 1.02542 0.147465 
6.17225 1.05698 0.152615 6.22902 1.07176 0.153717 6.28356 1.07925 0.149561 
6.33794 1.08461 0.143353 6.39233 1.08997 0.137145 6.44673 1.09525 0.131013 
6.5014 1.09924 0.126142 6.55755 1.09626 0.128124 6.61568 1.08381 0.139405 
6.67035 1.0878 0.134542 6.72279 1.10241 0.119249 6.77973 1.09564 0.124952 
6.83728 1.08033 0.128649 6.8958 1.05483 0.131996 6.95199 1.03474 0.119637 
7.00836 1.02505 0.117825 7.06718 1.01499 0.137141 7.12568 1.01768 0.164696 
7.18663 1.00311 0.198809 6.10908 1.07761 0.391311 
LINES 42 440
12 43 44 45 46 47 48 49 50 51 52 53 37 
3 42 54 37 
9 41 55 56 57 58 59 60 61 21 
5 37 80 81 82 31 
8 39 83 84 85 86 87 88 38 
4 29 145 146 26 
12 31 149 150 151 152 153 154 155 156 157 158 36 
4 36 159 160 35 
5 36 161 162 163 19 
7 26 165 166 167 168 169 24 
5 32 170 171 172 16 
35 32 173 174 175 176 177 178 179 180 181 182 183 184 185 186 187 188 189 190 191 192 193 194 195 196 197 198 199 200 201 202 203 204 205 28 
4 32 206 207 24 
3 31 208 10 
3 29 209 26 
3 19 213 20 
3 27 214 26 
5 25 215 216 217 17 
6 24 218 219 220 221 16 
3 22 222 21 
4 21 223 224 9 
3 20 225 19 
7 20 226 227 228 229 230 8 
3 19 231 14 
4 16 232 233 15 
11 17 235 236 237 238 239 240 241 242 243 5 
4 16 244 245 11 
4 10 246 247 8 
56 15 248 249 250 251 252 253 254 255 256 257 258 259 260 261 262 263 264 265 266 267 268 269 270 271 272 273 274 275 276 277 278 279 280 281 282 283 284 285 286 287 288 289 290 291 292 293 294 295 296 297 298 299 300 301 0 
5 15 302 303 304 11 
3 12 310 11 
4 10 311 312 6 
3 7 315 6 
5 6 316 317 318 4 
9 5 319 320 321 322 323 324 325 2 
22 2 332 333 334 335 336 337 338 339 340 341 342 343 344 345 346 347 348 349 350 351 4 
3 2 352 1 
22 40 62 63 64 65 66 67 68 69 70 71 72 73 74 75 76 77 78 79 34 164 30 
59 18 140 139 138 137 136 135 134 133 132 131 130 129 128 127 126 125 124 123 122 121 120 119 118 117 116 115 114 113 112 111 110 109 108 107 106 105 104 103 102 101 100 99 98 97 96 95 94 93 92 91 90 89 33 141 142 143 144 29 
8 37 147 148 23 210 211 212 10 
9 17 234 13 305 306 307 308 309 5 
11 8 313 314 3 326 327 328 329 330 331 4 

POINT_DATA 353
SCALARS DY_raw double
LOOKUP_TABLE default
31.9285 118.53 39.7164 32.3128 59.6914 51.4504 33.629 34.2484 42.8036 
63.3152 52.405 42.0213 54.311 45.9262 70.0358 42.9947 50.2047 55.2367 
96.8399 39.6484 35.3405 35.8912 41.8041 50.2592 56.319 48.5057 64.62 
89.8016 48.8676 57.4459 66.0806 44.6765 25.3406 61.829 75.1223 67.4883 
55.2401 40.6326 51.727 43.8397 60.7752 31.4777 27.2443 42.7967 38.053 
33.4968 39.5133 42.7615 38.6358 46.5834 52.4687 50.2651 49.2473 51.2082 
37.2665 41.7838 47.6965 35.9737 36.8597 40.948 51.2678 38.1872 79.9504 
75.3637 59.4418 62.6534 62.6534 62.4323 58.25 58.25 59.6676 52.2121 
48.9639 48.9639 53.727 57.9896 74.1111 74.5361 73.8344 67.7176 45.8058 
48.6189 44.4477 43.8397 38.2556 42.3366 49.9861 54.3992 52.363 50.991 
42.6967 42.484 41.9899 35.6103 34.448 34.6685 42.0525 42.0525 42.262 
37.1293 37.1293 32.1337 32.1337 35.2296 39.0495 39.0495 39.0641 44.4836 
44.4836 46.8117 47.1202 47.1202 45.614 46.6757 46.6757 52.7226 55.8949 
57.1113 54.4041 54.4041 54.4787 48.4673 48.4673 46.0875 44.447 44.1653 
44.1653 44.8206 37.447 37.447 39.3224 30.1578 33.2581 34.4103 32.5166 
30.9052 30.106 37.3647 48.0239 52.8469 60.4411 52.1365 52.2959 52.6411 
43.8301 57.5506 59.3178 48.879 44.2022 34.7805 35.6728 39.6025 49.5314 
57.1889 60.4113 68.6396 60.5633 59.426 55.2401 52.1847 67.4883 57.8423 
40.022 34.733 77.252 73.8134 72.1682 64.1629 49.1214 57.6793 35.9663 
46.8319 60.2734 36.3115 36.3115 50.4192 80.7226 56.9483 57.8575 57.0472 
50.0146 47.7564 52.9891 52.9891 66.9208 73.5038 73.5038 70.5756 70.5756 
75.4669 66.3477 50.9692 45.5418 42.6521 39.8947 46.2387 57.9591 69.5416 
54.7637 58.8522 71.6907 86.0045 76.7045 58.5801 52.5664 48.8676 35.7494 
42.78 43.5974 43.8198 47.879 49.8825 49.9498 37.0948 72.2033 44.6737 
43.8734 47.8694 58.7154 58.1982 50.1088 50.257 39.5512 68.9599 64.2723 
37.0948 52.7962 54.7984 57.3548 54.3343 40.1081 62.5137 46.2054 43.0772 
38.1209 64.0354 50.8612 44.6202 56.7186 59.3749 59.5345 67.6232 65.9371 
62.0103 37.0533 36.538 46.8671 42.0005 55.0611 52.4078 53.8593 47.1889 
44.2016 48.2273 49.5102 49.599 49.8258 48.6847 41.4275 41.5762 42.517 
36.8071 37.5441 36.7015 39.8653 47.0065 47.6118 58.5015 63.1769 54.7388 
55.0647 55.0647 58.6809 58.6809 52.4956 51.1678 54.6139 53.7042 57.8509 
55.0585 56.8443 68.7094 68.7094 78.2123 78.2123 75.357 75.4175 75.4175 
68.872 70.5279 73.8451 67.4234 58.4804 54.3208 60.1158 58.9242 53.8482 
43.7589 43.0207 39.5271 39.6414 35.2937 46.2081 39.17 38.8095 52.143 
58.8027 57.2076 58.7208 50.8653 41.9375 34.7812 37.4413 52.1191 46.103 
32.7107 42.5407 46.1939 41.2567 59.7639 55.9349 48.409 41.6028 42.7332 
39.1456 37.005 31.3903 36.1648 39.0809 44.0565 52.8112 52.8112 43.078 
44.6962 43.9734 48.6262 37.072 34.2419 34.2419 33.9984 40.2499 37.7674 
37.7674 38.9591 45.4483 55.1775 59.8057 50.0008 54.0171 54.0171 63.967 
59.6914 45.4509 
FIELD FieldData 7
DY_minmax 1 353 double
0.0706941 1 0.154265 0.0748178 0.368613 0.28018 0.0889418 0.0955877 0.187392 
0.407499 0.290424 0.178998 0.310876 0.220901 0.479617 0.189444 0.266813 0.32081 
0.767247 0.153535 0.107307 0.113217 0.176667 0.267398 0.332424 0.24858 0.421501 
0.69172 0.252464 0.344516 0.437175 0.20749 0 0.391551 0.5342 0.45228 
0.320847 0.164096 0.283148 0.19851 0.380243 0.0658563 0.0204279 0.187319 0.136415 
0.0875233 0.152085 0.18694 0.142668 0.227953 0.291108 0.26746 0.256539 0.277581 
0.127975 0.176449 0.239898 0.114103 0.12361 0.16748 0.278221 0.137854 0.586009 
0.53679 0.365934 0.400398 0.400398 0.398025 0.353145 0.353145 0.368357 0.288354 
0.253498 0.253498 0.30461 0.350351 0.523348 0.527909 0.520379 0.45474 0.219609 
0.249796 0.205035 0.19851 0.138588 0.182381 0.264467 0.311823 0.289973 0.27525 
0.186245 0.183963 0.178661 0.110203 0.0977301 0.100096 0.179333 0.179333 0.18158 
0.126503 0.126503 0.0728957 0.0728957 0.106118 0.147107 0.147107 0.147265 0.205421 
0.205421 0.230403 0.233714 0.233714 0.21755 0.228944 0.228944 0.293832 0.327873 
0.340927 0.311875 0.311875 0.312676 0.248169 0.248169 0.222631 0.205028 0.202004 
0.202004 0.209037 0.129912 0.129912 0.150036 0.0516928 0.0849619 0.0973256 0.0770042 
0.0597132 0.0511368 0.129029 0.243411 0.295166 0.376657 0.287543 0.289253 0.292957 
0.198407 0.34564 0.364604 0.252587 0.202401 0.101298 0.110873 0.153042 0.259587 
0.341759 0.376338 0.464634 0.377969 0.365765 0.320847 0.288059 0.45228 0.348771 
0.157543 0.100788 0.557053 0.520154 0.502499 0.416596 0.255188 0.347022 0.114023 
0.230619 0.374858 0.117727 0.117727 0.269114 0.594296 0.339177 0.348934 0.340239 
0.264772 0.24054 0.296692 0.296692 0.44619 0.516831 0.516831 0.485409 0.485409 
0.537897 0.44004 0.275016 0.216775 0.185767 0.156178 0.224254 0.350024 0.474314 
0.315734 0.359608 0.497375 0.650975 0.551178 0.356688 0.292156 0.252464 0.111696 
0.18714 0.195911 0.198298 0.241856 0.263355 0.264077 0.126133 0.502876 0.20746 
0.198872 0.241753 0.358139 0.352589 0.265783 0.267374 0.152492 0.468071 0.41777 
0.126133 0.294622 0.316107 0.343539 0.311127 0.158468 0.398898 0.223897 0.190329 
0.137143 0.415227 0.273858 0.206886 0.336713 0.365216 0.366929 0.453728 0.435635 
0.393497 0.125687 0.120158 0.230998 0.178775 0.318926 0.290453 0.30603 0.23445 
0.202394 0.245593 0.25936 0.260313 0.262747 0.250502 0.172626 0.174222 0.184317 
0.123045 0.130954 0.121912 0.155863 0.232493 0.238988 0.355844 0.406016 0.315467 
0.318964 0.318964 0.35777 0.35777 0.291396 0.277148 0.314127 0.304365 0.348863 
0.318898 0.338061 0.465384 0.465384 0.567358 0.567358 0.536718 0.537367 0.537367 
0.467128 0.484897 0.520494 0.451584 0.355617 0.310982 0.373167 0.36038 0.30591 
0.197643 0.189722 0.152233 0.153459 0.106805 0.223925 0.148402 0.144533 0.287612 
0.359076 0.34196 0.358198 0.273901 0.178099 0.101306 0.12985 0.287356 0.222798 
0.079087 0.184571 0.223774 0.170793 0.369391 0.328303 0.247544 0.174507 0.186637 
0.14814 0.125169 0.0649186 0.116153 0.147445 0.200837 0.294782 0.294782 0.190337 
0.207702 0.199946 0.249873 0.125887 0.0955181 0.0955181 0.0929054 0.159989 0.13335 
0.13335 0.146138 0.215772 0.320175 0.369839 0.264625 0.307723 0.307723 0.414494 
0.368613 0.215801 
WidthEq 1 353 double
3.83513 1 2.9975 3.09165 2.96374 3.17685 3.50144 2.04477 4.38982 
2.11671 4.40263 3.83782 3.38753 5.27586 2.33595 4.11469 4.75015 4.57486 
1.15087 3.91542 3.95439 3.4652 2.278 4.70719 5.62705 3.9348 2.8779 
1.52002 3.80784 2.6693 1.76058 4.33181 5.24929 2.44659 2.27855 2.39805 
3.07874 4.27145 2.42233 3.49592 1.7958 2.79976 3.38787 1.84243 3.24705 
4.23085 4.16037 4.02606 3.83479 3.41216 3.09823 3.46901 3.77848 3.97261 
4.18687 2.83866 2.78113 3.37663 3.54967 3.64829 2.95254 3.75624 2.08629 
2.44335 2.94439 2.71637 2.71637 2.70149 2.70455 2.70455 2.64382 2.88611 
2.9681 2.9681 2.74257 2.51649 2.30519 2.38408 2.47568 2.73902 3.97591 
3.77507 4.23599 3.49592 3.58432 3.61531 3.47456 3.34233 2.97042 3.01504 
3.53002 3.86098 3.92403 4.0126 4.04755 3.98835 4.21283 4.21283 4.34694 
4.51691 4.51691 4.37858 4.37858 4.224 3.97496 3.97496 3.99421 4.03362 
4.03362 4.05903 4.12307 4.12307 4.11387 4.04043 4.04043 3.89586 3.74149 
3.75355 4.11697 4.11697 4.0001 4.27278 4.27278 4.36019 4.21715 4.14647 
4.14647 4.22172 4.25054 4.25054 4.26297 4.71254 4.68757 5.06476 6.32631 
6.67492 6.70796 6.30782 4.58501 3.89048 2.94998 2.79881 3.10579 3.34359 
3.43212 2.65002 2.6417 3.64226 4.84614 4.62817 3.89092 3.29348 2.83961 
2.7612 2.38565 2.56761 2.86312 2.93104 3.07874 3.02714 2.39805 2.69024 
2.99236 3.83094 2.04603 2.64613 2.82105 3.41069 4.48786 4.87332 5.63972 
5.40935 4.2055 4.39255 4.39255 4.01573 3.04066 3.68668 3.74973 3.79159 
3.89746 4.00742 3.86098 3.86098 3.36876 2.99699 2.99699 2.55287 2.55287 
2.37614 2.57688 2.91823 3.2647 3.74823 3.75889 3.7501 3.16516 2.85297 
3.40061 3.96672 3.58554 3.31971 3.67462 4.13656 4.20326 3.80784 5.67617 
5.892 3.74884 3.12279 4.26951 3.96512 4.12975 4.06768 2.24602 5.19836 
5.41923 5.02576 5.38275 4.82386 5.17295 5.14754 3.22695 2.4813 2.4085 
4.06768 4.07719 4.18023 3.6473 3.63987 4.20738 3.41621 4.57479 4.53163 
5.7538 4.04823 4.46136 4.16919 3.5119 3.20893 3.11366 2.7458 2.65799 
2.86469 5.13827 4.39187 4.57911 4.44851 3.76237 3.43365 3.20297 3.35609 
3.22092 3.22535 3.47787 3.90189 3.75889 3.87083 3.85734 3.92219 3.91467 
4.01471 4.02779 4.03771 4.0702 3.83649 4.02296 3.74452 3.68331 3.14987 
2.99321 2.99321 2.75388 2.75388 2.81376 2.92137 2.97781 3.04948 3.06011 
2.97229 2.87487 2.65451 2.65451 2.50868 2.50868 2.53951 2.63268 2.63268 
2.68803 2.6727 2.52704 2.71211 2.95843 3.00309 3.09502 3.17136 3.18247 
3.68954 3.53969 3.92693 4.35934 4.28688 4.01424 4.09497 4.07967 4.50434 
3.72636 3.2896 3.57829 3.58319 4.08584 4.12263 4.12085 3.29975 2.96987 
3.26071 3.23244 2.86509 3.11028 2.90962 2.90498 3.17627 3.38079 3.30656 
3.0739 3.09445 3.60653 3.04965 2.74379 2.7517 2.75851 2.75851 2.8655 
2.78682 2.69549 2.63911 2.83611 2.93179 2.93179 2.95632 2.81666 2.74522 
2.74522 2.66947 2.4518 2.38394 2.4486 2.53856 2.74246 2.74246 2.68435 
2.96374 2.17421 
rRFP 1 353 double
3374 2541.7 3128.1 3155.74 3118.19 3180.75 3276.04 2848.41 3536.84 
2869.53 3540.6 3374.79 3242.6 3796.95 2933.89 3456.07 3642.62 3591.16 
2585.99 3397.57 3409.01 3265.4 2916.88 3630.01 3900.05 3403.26 3092.99 
2694.36 3365.99 3031.75 2764.98 3519.81 3789.15 2966.37 2917.04 2952.12 
3151.95 3502.09 2959.25 3274.42 2775.32 3070.05 3242.7 2789.01 3201.36 
3490.17 3469.48 3430.05 3373.9 3249.83 3157.67 3266.52 3357.37 3414.36 
3477.26 3081.47 3064.58 3239.4 3290.2 3319.15 3114.9 3350.84 2860.6 
2965.42 3112.51 3045.57 3045.57 3041.2 3042.1 3042.1 3024.27 3095.4 
3119.47 3119.47 3053.26 2986.89 2924.86 2948.02 2974.91 3052.22 3415.33 
3356.37 3491.68 3274.42 3300.37 3309.47 3268.15 3229.33 3120.15 3133.25 
3284.43 3381.59 3400.1 3426.1 3436.36 3418.98 3484.88 3484.88 3524.25 
3574.15 3574.15 3533.54 3533.54 3488.16 3415.05 3415.05 3420.7 3432.27 
3432.27 3439.73 3458.53 3458.53 3455.83 3434.27 3434.27 3391.83 3346.51 
3350.05 3456.74 3456.74 3422.43 3502.48 3502.48 3528.14 3486.15 3465.4 
3465.4 3487.49 3495.95 3495.95 3499.6 3631.58 3624.25 3734.98 4105.33 
4207.67 4217.37 4099.9 3594.14 3390.25 3114.15 3069.77 3159.89 3229.7 
3255.69 3026.09 3023.65 3317.38 3670.8 3606.81 3390.38 3214.99 3081.75 
3058.73 2948.48 3001.9 3088.65 3108.59 3151.95 3136.8 2952.12 3037.9 
3126.59 3372.77 2848.78 3024.95 3076.3 3249.4 3565.62 3678.78 3903.77 
3836.14 3482.73 3537.64 3537.64 3427.02 3140.77 3330.42 3348.93 3361.22 
3392.3 3424.58 3381.59 3381.59 3237.09 3127.95 3127.95 2997.57 2997.57 
2945.69 3004.62 3104.83 3206.54 3348.49 3351.62 3349.04 3177.32 3085.67 
3246.44 3412.63 3300.73 3222.69 3326.88 3462.49 3482.07 3365.99 3914.47 
3977.83 3348.67 3164.88 3501.52 3412.16 3460.49 3442.27 2907.49 3774.2 
3839.04 3723.53 3828.33 3664.26 3766.74 3759.28 3195.46 2976.56 2955.19 
3442.27 3445.06 3475.31 3318.86 3316.68 3483.28 3251.02 3591.14 3578.47 
3937.26 3436.56 3557.84 3472.07 3279.11 3190.17 3162.2 3054.21 3028.43 
3089.11 3756.56 3537.44 3592.41 3554.07 3352.64 3256.14 3188.42 3233.37 
3193.69 3194.99 3269.12 3393.6 3351.62 3384.48 3380.52 3399.56 3397.35 
3426.72 3430.56 3433.47 3443.01 3374.4 3429.14 3347.4 3329.43 3172.83 
3126.84 3126.84 3056.58 3056.58 3074.16 3105.75 3122.32 3143.36 3146.48 
3120.7 3092.1 3027.41 3027.41 2984.6 2984.6 2993.65 3021 3021 
3037.25 3032.75 2989.99 3044.32 3116.63 3129.74 3156.73 3179.14 3182.4 
3331.26 3287.27 3400.95 3527.89 3506.62 3426.58 3450.28 3445.79 3570.46 
3342.07 3213.85 3298.6 3300.04 3447.6 3458.4 3457.88 3216.83 3119.99 
3205.37 3197.07 3089.23 3161.21 3102.3 3100.94 3180.58 3240.62 3218.83 
3150.53 3156.56 3306.89 3143.41 3053.62 3055.94 3057.94 3057.94 3089.35 
3066.25 3039.44 3022.89 3080.72 3108.81 3108.81 3116.01 3075.01 3054.04 
3054.04 3031.8 2967.9 2947.98 2966.96 2993.37 3053.23 3053.23 3036.17 
3118.19 2886.41 
rGFP 1 353 double
2495.96 2492.04 2492.56 2473.41 2550.42 2536.96 2491.26 2443.54 2561.41 
2507.53 2604.23 2534.78 2557.49 2615.81 2537.11 2550.42 2611.99 2626.21 
2484.96 2528.75 2513.26 2497.88 2468.74 2610.09 2690.42 2564.37 2559.48 
2510.01 2559.59 2526.85 2489.85 2567.04 2506.53 2524.78 2544.68 2535.35 
2543.58 2547.07 2498.81 2526.77 2482.65 2461.64 2465.81 2452.36 2497.07 
2515.23 2537.9 2545.67 2521.67 2532.46 2536.07 2547.88 2559.59 2576.94 
2529.54 2492.12 2506.16 2494.98 2504.35 2522.9 2524.88 2516.95 2540.31 
2557.65 2548.53 2543.7 2543.7 2542.17 2531.05 2531.05 2531.26 2524.2 
2518.84 2518.84 2520.86 2519.44 2544.35 2551.21 2556.3 2558.99 2555.63 
2557.05 2561.79 2526.77 2510.63 2526.57 2547.19 2555.33 2529.05 2527.25 
2524.23 2537.54 2538.28 2516.4 2512.94 2511.78 2550.67 2550.67 2557.22 
2541.22 2541.22 2514.21 2514.21 2522.32 2528.73 2528.73 2529.54 2552.94 
2552.94 2563.52 2567.79 2567.79 2561.16 2562.1 2562.1 2578.91 2582.64 
2587.88 2597.49 2597.49 2591.43 2580.6 2580.6 2574.46 2560.95 2556.64 
2556.64 2562.73 2532.68 2532.68 2541.14 2515.63 2529.41 2547.79 2579.22 
2579.8 2575.46 2609.2 2593.7 2579.11 2551.81 2519.43 2535.93 2549.52 
2523.94 2526.02 2530.21 2551.54 2587.72 2534.48 2512.31 2503.94 2514.16 
2531.42 2517.63 2549.75 2546.91 2547.69 2543.58 2531.48 2535.35 2529.12 
2493.27 2506.57 2531.57 2568.83 2577.1 2592.35 2593.96 2654.6 2576.35 
2626.84 2626.99 2533.01 2533.01 2575.98 2618.96 2583.46 2590.46 2589.81 
2568.44 2564.89 2578.1 2578.1 2598.95 2593.8 2593.8 2553.68 2553.68 
2552.83 2544.48 2522.25 2522.19 2533.38 2523.47 2546.91 2556.96 2571.91 
2559.74 2606.96 2630.56 2659.02 2655.37 2615.83 2594.46 2559.59 2576.43 
2625.57 2536.95 2510.35 2577.93 2571.3 2579.79 2524.4 2535.68 2605.74 
2611.27 2614.09 2689.56 2654.25 2632.72 2632.21 2501.14 2544.62 2528.31 
2524.4 2588.77 2602.58 2582.7 2571.28 2542.26 2587.07 2584.89 2568.72 
2592.85 2632.74 2600.42 2559.54 2572.7 2564.04 2558.88 2559.19 2548.77 
2551.15 2563.9 2533.98 2588.12 2560.35 2580.67 2553.46 2546.02 2531.88 
2515.88 2529.06 2545.7 2567.04 2560.8 2561.96 2533.31 2536.58 2539.95 
2521.28 2524.73 2521.7 2535.77 2553.85 2565.05 2592.57 2606.21 2545.93 
2538.33 2538.33 2535.11 2535.11 2521.22 2522.99 2536.14 2537.28 2550.54 
2537.16 2536.93 2555.9 2555.9 2569.72 2569.72 2564.88 2572.06 2572.06 
2558.64 2562.01 2560.12 2556.37 2546.52 2536.64 2559.57 2560.38 2544.88 
2534.96 2525.79 2528.73 2546.32 2524.81 2559 2533.91 2531.84 2608.38 
2592.63 2561.7 2583.63 2555.77 2544.86 2516.9 2527.8 2545.49 2510.43 
2480.17 2511.02 2505.86 2501.83 2547.4 2536 2527.27 2514.16 2514.81 
2493.84 2488.02 2486.72 2483.8 2480.74 2494.74 2519.19 2519.19 2496.95 
2498.07 2492.04 2501.84 2478.65 2473.9 2473.9 2474.02 2486.88 2477.19 
2477.19 2477.51 2484.94 2505.05 2519.95 2500.44 2521.65 2521.65 2545.22 
2550.42 2472.33 
bkstRFP 1 353 double
1125.87 293.567 879.967 907.607 870.057 932.617 1027.91 600.277 1288.71 
621.397 1292.47 1126.66 994.467 1548.82 685.757 1207.94 1394.49 1343.03 
337.857 1149.44 1160.88 1017.27 668.747 1381.88 1651.92 1155.13 844.857 
446.227 1117.86 783.617 516.847 1271.68 1541.02 718.237 668.907 703.987 
903.817 1253.96 711.117 1026.29 527.187 821.917 994.567 540.877 953.227 
1242.04 1221.35 1181.92 1125.77 1001.7 909.537 1018.39 1109.24 1166.23 
1229.13 833.337 816.447 991.267 1042.07 1071.02 866.767 1102.71 612.467 
717.287 864.377 797.437 797.437 793.067 793.967 793.967 776.137 847.267 
871.337 871.337 805.127 738.757 676.727 699.887 726.777 804.087 1167.2 
1108.24 1243.55 1026.29 1052.24 1061.34 1020.02 981.197 872.017 885.117 
1036.3 1133.46 1151.97 1177.97 1188.23 1170.85 1236.75 1236.75 1276.12 
1326.02 1326.02 1285.41 1285.41 1240.03 1166.92 1166.92 1172.57 1184.14 
1184.14 1191.6 1210.4 1210.4 1207.7 1186.14 1186.14 1143.7 1098.38 
1101.92 1208.61 1208.61 1174.3 1254.35 1254.35 1280.01 1238.02 1217.27 
1217.27 1239.36 1247.82 1247.82 1251.47 1383.45 1376.12 1486.85 1857.2 
1959.54 1969.24 1851.77 1346.01 1142.12 866.017 821.637 911.757 981.567 
1007.56 777.957 775.517 1069.25 1422.67 1358.68 1142.25 966.857 833.617 
810.597 700.347 753.767 840.517 860.457 903.817 888.667 703.987 789.767 
878.457 1124.64 600.647 776.817 828.167 1001.27 1317.49 1430.65 1655.64 
1588.01 1234.6 1289.51 1289.51 1178.89 892.637 1082.29 1100.8 1113.09 
1144.17 1176.45 1133.46 1133.46 988.957 879.817 879.817 749.437 749.437 
697.557 756.487 856.697 958.407 1100.36 1103.49 1100.91 929.187 837.537 
998.307 1164.5 1052.6 974.557 1078.75 1214.36 1233.94 1117.86 1666.34 
1729.7 1100.54 916.747 1253.39 1164.03 1212.36 1194.14 659.357 1526.07 
1590.91 1475.4 1580.2 1416.13 1518.61 1511.15 947.327 728.427 707.057 
1194.14 1196.93 1227.18 1070.73 1068.55 1235.15 1002.89 1343.01 1330.34 
1689.13 1188.43 1309.71 1223.94 1030.98 942.037 914.067 806.077 780.297 
840.977 1508.43 1289.31 1344.28 1305.94 1104.51 1008.01 940.287 985.237 
945.557 946.857 1020.99 1145.47 1103.49 1136.35 1132.39 1151.43 1149.22 
1178.59 1182.43 1185.34 1194.88 1126.27 1181.01 1099.27 1081.3 924.697 
878.707 878.707 808.447 808.447 826.027 857.617 874.187 895.227 898.347 
872.567 843.967 779.277 779.277 736.467 736.467 745.517 772.867 772.867 
789.117 784.617 741.857 796.187 868.497 881.607 908.597 931.007 934.267 
1083.13 1039.14 1152.82 1279.76 1258.49 1178.45 1202.15 1197.66 1322.33 
1093.94 965.717 1050.47 1051.91 1199.47 1210.27 1209.75 968.697 871.857 
957.237 948.937 841.097 913.077 854.167 852.807 932.447 992.487 970.697 
902.397 908.427 1058.76 895.277 805.487 807.807 809.807 809.807 841.217 
818.117 791.307 774.757 832.587 860.677 860.677 867.877 826.877 805.907 
805.907 783.667 719.767 699.847 718.827 745.237 805.097 805.097 788.037 
870.057 638.277 
bkstGFP 1 353 double
122.45 118.53 119.05 99.9 176.91 163.45 117.75 70.03 187.9 
134.02 230.72 161.27 183.98 242.3 163.6 176.91 238.48 252.7 
111.45 155.24 139.75 124.37 95.23 236.58 316.91 190.86 185.97 
136.5 186.08 153.34 116.34 193.53 133.02 151.27 171.17 161.84 
170.07 173.56 125.3 153.26 109.14 88.13 92.3 78.85 123.56 
141.72 164.39 172.16 148.16 158.95 162.56 174.37 186.08 203.43 
156.03 118.61 132.65 121.47 130.84 149.39 151.37 143.44 166.8 
184.14 175.02 170.19 170.19 168.66 157.54 157.54 157.75 150.69 
145.33 145.33 147.35 145.93 170.84 177.7 182.79 185.48 182.12 
183.54 188.28 153.26 137.12 153.06 173.68 181.82 155.54 153.74 
150.72 164.03 164.77 142.89 139.43 138.27 177.16 177.16 183.71 
167.71 167.71 140.7 140.7 148.81 155.22 155.22 156.03 179.43 
179.43 190.01 194.28 194.28 187.65 188.59 188.59 205.4 209.13 
214.37 223.98 223.98 217.92 207.09 207.09 200.95 187.44 183.13 
183.13 189.22 159.17 159.17 167.63 142.12 155.9 174.28 205.71 
206.29 201.95 235.69 220.19 205.6 178.3 145.92 162.42 176.01 
150.43 152.51 156.7 178.03 214.21 160.97 138.8 130.43 140.65 
157.91 144.12 176.24 173.4 174.18 170.07 157.97 161.84 155.61 
119.76 133.06 158.06 195.32 203.59 218.84 220.45 281.09 202.84 
253.33 253.48 159.5 159.5 202.47 245.45 209.95 216.95 216.3 
194.93 191.38 204.59 204.59 225.44 220.29 220.29 180.17 180.17 
179.32 170.97 148.74 148.68 159.87 149.96 173.4 183.45 198.4 