# vtk DataFile Version 3.0
vtk output
ASCII
DATASET POLYDATA
POINTS 511 float
2.35959 2.47842 1.44835 1.12667 0.465555 1.60499 1.0207 1.61193 1.4238 
0.46384 -0.165532 1.62265 0.901416 1.80792 1.38131 0.596482 1.03753 1.46026 
2.27592 2.47407 1.23602 1.37439 0.440236 1.43347 1.91803 2.61338 1.17474 
-0.070472 0.495771 1.26083 3.96847 1.72019 1.33644 3.71663 2.05918 1.25777 
4.1101 1.0465 1.24851 -0.806933 0.547999 0.152096 -0.682653 0.359321 -0.212808 
6.45812 1.64769 0.206398 1.61552 -0.334846 -0.255714 -0.670619 0.142344 -0.891475 
1.92373 -0.382164 -0.484915 -0.619676 -0.0870573 -0.953554 4.93539 0.905473 -1.07806 
-0.10588 1.26868 -1.90886 5.35133 1.20984 -1.48251 2.50118 -1.21219 -1.44957 
2.09046 1.63156 -1.91586 7.75253 0.81748 -1.4904 5.95117 1.35645 -1.70713 
4.03074 1.0767 -2.02006 2.4134 -1.05243 -1.89002 8.10522 0.979053 -1.9488 
6.35548 1.16157 -2.17487 5.90929 1.31786 -2.29518 7.74311 -0.138368 -2.0286 
7.41673 0.114263 -2.5099 7.46416 0.162846 -2.48153 7.48311 0.220698 -2.43517 
7.47938 0.285585 -2.37735 7.45919 0.354303 -2.32197 7.45764 0.414276 -2.30086 
7.46893 0.467737 -2.30746 7.4826 0.517999 -2.33592 7.48404 0.571877 -2.35878 
7.45807 0.63104 -2.378 7.41691 0.682462 -2.39027 7.36656 0.7094 -2.39244 
7.312 0.728778 -2.3789 7.25691 0.759146 -2.34444 7.20464 0.805189 -2.30444 
7.14999 0.837321 -2.27019 7.09782 0.866229 -2.25779 7.05052 0.905826 -2.26148 
7.0012 0.928568 -2.27798 6.9503 0.940608 -2.30062 6.89979 0.94982 -2.33033 
6.84677 0.962149 -2.33819 6.79043 0.978775 -2.31691 6.72995 1.00077 -2.25923 
6.67033 1.0218 -2.20884 6.61445 1.04029 -2.18779 6.56596 1.06196 -2.21157 
6.52196 1.09716 -2.24438 6.47181 1.12098 -2.2536 6.41511 1.14054 -2.22526 
5.95732 1.22797 -2.49622 6.0207 1.15044 -2.63706 6.08131 1.11106 -2.71477 
6.13764 1.09189 -2.73943 6.18735 1.08386 -2.70245 6.23255 1.08413 -2.622 
6.27518 1.10048 -2.499 6.31818 1.13583 -2.34862 7.80577 -0.107432 -2.11645 
7.84709 -0.0662431 -2.16303 7.8763 -0.0143029 -2.14477 7.87982 0.0480175 -2.09328 
7.8994 0.108368 -2.02461 7.90499 0.169326 -1.98023 7.88708 0.234867 -1.94672 
7.87414 0.297489 -1.92729 7.85611 0.361293 -1.90862 7.85529 0.420216 -1.8948 
7.86244 0.479049 -1.86499 7.86588 0.542635 -1.80366 7.85346 0.615633 -1.70783 
7.81085 0.706037 -1.59793 7.77334 -0.193549 -1.9492 7.79125 -0.244985 -1.86423 
7.78057 -0.288892 -1.77609 7.74971 -0.327221 -1.68352 7.71272 -0.365011 -1.59927 
7.70299 -0.409136 -1.51099 7.67595 -0.448355 -1.41786 7.61245 -0.476454 -1.30792 
7.53498 -0.500421 -1.19264 7.45723 -0.525973 -1.09223 7.38398 -0.555013 -1.02847 
7.31775 -0.577937 -1.00249 7.26054 -0.577986 -1.00146 7.20702 -0.567623 -1.00907 
7.15478 -0.556581 -1.02419 7.1038 -0.549229 -1.05368 7.05334 -0.552972 -1.10407 
7.00333 -0.563732 -1.16846 6.96274 -0.545591 -1.25111 6.92544 -0.523064 -1.3491 
6.89538 -0.485593 -1.47107 6.87236 -0.440227 -1.60094 6.87275 -0.39845 -1.72761 
6.92371 -0.366556 -1.83201 6.99683 -0.33893 -1.92571 7.072 -0.310134 -2.0043 
7.14607 -0.282167 -2.07534 7.21647 -0.264519 -2.13774 7.27913 -0.269046 -2.18269 
7.33718 -0.270061 -2.191 7.39263 -0.250728 -2.14987 7.44239 -0.240999 -2.08536 
7.4959 -0.233814 -2.05019 7.56086 -0.21158 -2.06868 7.62792 -0.18974 -2.10195 
7.6868 -0.174281 -2.08999 5.92472 1.36602 -2.02173 6.28472 1.1995 -2.02276 
6.22048 1.24158 -1.90818 6.16507 1.29144 -1.84147 6.10792 1.32207 -1.80227 
6.03954 1.34141 -1.76015 8.04479 0.983276 -1.91862 7.97924 0.976657 -1.8573 
7.92266 0.974873 -1.76552 7.88764 0.95091 -1.6655 7.86153 0.911291 -1.58477 
7.82346 0.865617 -1.52962 2.31892 -1.0998 -1.89378 2.24262 -1.14285 -1.89612 
2.17403 -1.1828 -1.89049 2.10519 -1.22028 -1.87019 2.03394 -1.25451 -1.82805 
1.96102 -1.28659 -1.77134 1.88728 -1.31759 -1.70734 1.81357 -1.34849 -1.64335 
1.74112 -1.37871 -1.58686 1.67277 -1.40135 -1.54609 1.611 -1.41084 -1.52912 
1.54963 -1.42747 -1.52611 1.49034 -1.44018 -1.53099 1.42699 -1.46916 -1.53392 
1.36167 -1.50601 -1.53592 1.29875 -1.53322 -1.53907 1.24107 -1.53514 -1.53781 
1.18219 -1.53305 -1.52222 1.11765 -1.54047 -1.48326 1.05595 -1.53211 -1.43877 
0.997462 -1.5153 -1.4027 0.941462 -1.50171 -1.38847 0.884737 -1.4998 -1.38768 
0.825187 -1.51356 -1.39242 0.769318 -1.51262 -1.39892 0.716296 -1.50029 -1.40677 
0.666148 -1.47647 -1.416 0.620093 -1.43629 -1.42716 0.572353 -1.40285 -1.43753 
0.523449 -1.37406 -1.44735 0.466828 -1.37612 -1.45349 0.411034 -1.37048 -1.45313 
0.358817 -1.34616 -1.4476 0.309447 -1.30169 -1.42964 0.258857 -1.26209 -1.4111 
0.208684 -1.21643 -1.38587 0.155247 -1.18821 -1.36597 0.098573 -1.16854 -1.33765 
0.0419261 -1.14877 -1.30934 -0.0143847 -1.11449 -1.26053 -0.0662692 -1.05374 -1.20004 
-0.119371 -0.989081 -1.12521 -0.174464 -0.941155 -1.0632 -0.226243 -0.893146 -1.02343 
-0.278359 -0.864035 -1.01106 -0.329206 -0.834234 -1.00617 -0.375519 -0.777986 -0.989596 
-0.421371 -0.705384 -0.937719 -0.459508 -0.629962 -0.862767 -0.479593 -0.560388 -0.799962 
-0.498859 -0.497177 -0.788878 -0.508063 -0.441595 -0.820728 -0.530117 -0.384789 -0.869296 
-0.552171 -0.326219 -0.90305 -0.553411 -0.270726 -0.918915 -0.555585 -0.214133 -0.927512 
-0.581986 -0.151908 -0.939697 2.49051 -0.995698 -1.95743 2.53054 -0.946549 -2.02041 
2.55369 -0.89975 -2.06988 2.58213 -0.851967 -2.08877 2.63142 -0.805579 -2.07493 
2.67926 -0.755327 -2.03169 2.71354 -0.701038 -1.98305 2.76336 -0.651247 -1.93952 
2.82529 -0.606917 -1.9164 2.89061 -0.565249 -1.90758 2.95643 -0.526434 -1.90582 
3.02066 -0.498322 -1.91019 3.0829 -0.486967 -1.92738 3.15118 -0.464201 -1.96818 
3.22 -0.431376 -2.0104 3.27621 -0.391997 -2.03995 3.30479 -0.342558 -2.04399 
3.33069 -0.291612 -2.04103 3.3685 -0.242553 -2.0289 3.39076 -0.188998 -2.01165 
3.40184 -0.131081 -1.98127 3.41292 -0.0731624 -1.95087 3.4353 -0.0196331 -1.93362 
3.47652 0.0268672 -1.93579 3.51525 0.0713042 -1.96054 3.56145 0.111359 -2.0064 
3.59221 0.15412 -2.06195 3.61334 0.200887 -2.10412 3.6381 0.251216 -2.10872 
3.67155 0.303933 -2.07503 3.68077 0.364048 -2.03009 3.67434 0.426917 -1.9949 
3.68647 0.482829 -1.97916 3.67083 0.543433 -1.98235 3.64629 0.605226 -1.99425 
3.63367 0.663366 -2.01181 3.60786 0.722697 -2.0461 3.57443 0.779186 -2.10344 
3.53721 0.823519 -2.16697 3.49253 0.842856 -2.22012 3.44249 0.853928 -2.25005 
3.39115 0.864214 -2.27248 3.34061 0.87332 -2.30218 3.29254 0.879097 -2.35371 
3.24485 0.882045 -2.41232 3.19393 0.876432 -2.4625 3.13767 0.858279 -2.49636 
3.0846 0.852848 -2.53174 3.03277 0.843621 -2.58148 2.97656 0.812502 -2.63604 
2.92152 0.790438 -2.68426 2.87127 0.800682 -2.71409 2.81447 0.79351 -2.72703 
2.75614 0.784618 -2.73236 2.69612 0.76899 -2.73689 2.63973 0.767866 -2.74314 
2.58417 0.765667 -2.75667 2.52662 0.74671 -2.78303 2.47199 0.730693 -2.82456 
2.4161 0.709587 -2.86548 2.36137 0.706315 -2.8863 2.30498 0.70519 -2.89255 
2.24328 0.691605 -2.8825 2.18451 0.680959 -2.88762 2.12447 0.665225 -2.89213 
2.07054 0.660772 -2.92021 2.0162 0.654661 -2.9481 1.95706 0.625012 -2.9806 
1.8963 0.597618 -2.99854 1.84077 0.595515 -3.01209 1.78725 0.605879 -3.01971 
1.73418 0.617996 -3.02753 1.68069 0.628465 -3.03517 1.6248 0.629306 -3.04165 
1.56522 0.615442 -3.04639 1.50888 0.61452 -3.05266 1.45299 0.615352 -3.05915 
1.39629 0.612984 -3.06525 1.34692 0.639914 -3.07484 1.2963 0.66187 -3.08384 
1.2437 0.675847 -3.09189 1.19023 0.686422 -3.09954 1.13434 0.687264 -3.10602 
1.07396 0.67457 -3.10349 1.01558 0.678635 -3.08813 0.957118 0.695549 -3.05207 
0.898268 0.715293 -3.00893 0.840273 0.734068 -2.9731 0.783936 0.750694 -2.95182 
0.727572 0.767215 -2.93053 0.669113 0.784129 -2.89448 0.607388 0.792386 -2.84997 
0.5424 0.783203 -2.8108 0.480289 0.776749 -2.78678 0.416493 0.763559 -2.76196 
0.352699 0.759147 -2.72336 0.285561 0.750148 -2.6694 0.21884 0.747205 -2.60874 
0.148491 0.72976 -2.54635 0.079386 0.712897 -2.49145 0.0168357 0.717399 -2.44649 
-0.0431577 0.720311 -2.40854 -0.101237 0.698917 -2.35172 -0.149209 0.664882 -2.2768 
-0.213811 0.634508 -2.18926 -0.285489 0.604786 -2.11014 -0.34846 0.572158 -2.03715 
-0.395999 0.535061 -1.96927 -0.455443 0.499849 -1.91056 -0.511369 0.462056 -1.86615 
-0.541305 0.416457 -1.83269 -0.559846 0.368208 -1.79754 -0.578184 0.321675 -1.74756 
-0.598074 0.277266 -1.68299 -0.62074 0.236548 -1.59291 -0.647288 0.202692 -1.44777 
-0.669953 0.174935 -1.20891 2.44765 -1.11386 -1.74143 2.47582 -1.16534 -1.595 
3.96653 1.1009 -1.93298 3.90476 1.10896 -1.87339 3.85385 1.08247 -1.84514 
3.83839 1.03294 -1.83205 3.85125 0.973977 -1.82189 3.86202 0.91627 -1.80461 
3.88769 0.856856 -1.77032 3.92065 0.798508 -1.71276 3.955 0.742688 -1.64786 
3.99315 0.697254 -1.59161 4.03952 0.675876 -1.55304 4.09003 0.666663 -1.52333 
4.14344 0.669044 -1.495 4.20177 0.686715 -1.47589 4.25844 0.697755 -1.456 
4.31356 0.70697 -1.42848 4.36086 0.69809 -1.37658 4.4114 0.710921 -1.31244 
4.45905 0.721025 -1.23316 4.50677 0.735741 -1.14701 4.55974 0.775843 -1.05649 
4.6176 0.822362 -0.988949 4.67764 0.855634 -0.956884 4.73941 0.865129 -0.973857 
4.80492 0.876382 -1.01328 4.86915 0.882549 -1.05208 5.86104 1.3145 -1.54291 
5.79794 1.28317 -1.37971 5.73645 1.26077 -1.22266 5.68327 1.24794 -1.06607 
5.61937 1.25108 -0.930645 5.54373 1.23972 -0.809491 5.46642 1.21592 -0.709284 
5.38939 1.18932 -0.616179 5.31575 1.15829 -0.552165 5.24802 1.12148 -0.524303 
5.19654 1.07384 -0.553273 5.16383 1.01742 -0.616491 5.11901 0.961292 -0.703721 
5.06422 0.910438 -0.785346 5.01102 0.87334 -0.86881 4.96792 0.872671 -0.964037 
7.66542 0.934105 -1.28645 7.59797 1.03174 -1.1277 7.54408 1.11487 -1.02805 
7.49539 1.19161 -0.964538 7.44853 1.26368 -0.920223 7.40004 1.32483 -0.882022 
7.34697 1.36766 -0.841639 7.28933 1.40543 -0.778426 7.21906 1.40585 -0.688528 
7.1468 1.39829 -0.59768 7.08585 1.41843 -0.53978 7.03423 1.45828 -0.513857 
6.97737 1.47284 -0.492337 6.90915 1.45511 -0.444743 6.83559 1.42921 -0.37394 
6.76192 1.41606 -0.282436 6.69479 1.42901 -0.19403 6.63016 1.45638 -0.0999387 
6.56888 1.4971 -0.00742608 6.51249 1.56617 0.0965164 2.04741 1.64865 -1.98356 
2.00508 1.68179 -2.03095 1.95576 1.70454 -2.04745 1.90238 1.7198 -2.04825 
1.85021 1.73117 -2.06339 1.8005 1.7392 -2.10037 1.75163 1.74615 -2.14464 
1.70109 1.75526 -2.17433 1.64973 1.76544 -2.19676 1.59836 1.77562 -2.21917 
1.54783 1.78473 -2.24887 1.49563 1.79598 -2.26401 1.44261 1.80831 -2.27186 
1.38873 1.82161 -2.27242 1.33608 1.831 -2.28733 1.28018 1.83183 -2.29382 
1.21978 1.81905 -2.29127 1.16093 1.82125 -2.27569 1.10291 1.82237 -2.26739 
1.04331 1.80841 -2.27212 0.989431 1.80416 -2.30022 0.938016 1.79659 -2.35016 
0.882948 1.77441 -2.39837 0.826638 1.76043 -2.42532 0.763645 1.74606 -2.40777 
0.700239 1.73882 -2.37624 0.634837 1.71482 -2.35754 0.573555 1.68536 -2.37523 
0.516419 1.66763 -2.40173 0.454872 1.63801 -2.40437 0.397259 1.60093 -2.37531 
0.353431 1.56152 -2.33681 0.299031 1.53289 -2.31618 0.23969 1.51997 -2.30595 
0.177624 1.49312 -2.28645 0.129933 1.45538 -2.2411 0.11193 1.40976 -2.18367 
0.0743304 1.36859 -2.12913 0.0320748 1.3285 -2.07529 -0.0307906 1.29585 -2.00228 
5.27769 1.17881 -1.4185 5.20664 1.1463 -1.36151 5.14698 1.10937 -1.31765 
5.10618 1.06542 -1.2932 5.06133 1.02152 -1.27676 5.02167 0.978187 -1.24474 
4.97289 0.941377 -1.17705 -0.671912 0.0437343 -1.01647 -0.648463 -0.0311942 -1.03665 
-0.63283 -0.0136702 -0.856619 -0.656279 0.0612583 -0.836439 1.82893 -0.323723 -0.411394 
1.75056 -0.312345 -0.346638 1.68377 -0.314559 -0.298658 -0.66887 0.253629 -0.546014 
-0.638438 0.425855 -0.0216865 -0.595414 0.478861 0.15623 -0.555577 0.501578 0.308113 
-0.514859 0.510265 0.432025 -0.468882 0.522422 0.525884 -0.418475 0.547901 0.610745 
-0.372991 0.558091 0.704838 -0.33398 0.551176 0.815784 -0.298235 0.526823 0.921402 
-0.255545 0.512674 0.996155 -0.207133 0.503857 1.04064 -0.158282 0.496795 1.08492 
-0.112719 0.494134 1.15831 -0.744793 0.45366 -0.0303557 4.13071 1.08986 1.17664 
4.14791 1.13577 1.11908 4.15206 1.18825 1.08921 4.13487 1.25098 1.1006 
4.11924 1.31687 1.14184 4.0951 1.3865 1.19664 4.07585 1.455 1.25216 
4.04116 1.52621 1.29799 4.00025 1.5971 1.32808 3.97147 1.66252 1.33775 
3.68047 2.09941 1.1799 3.63327 2.12188 1.14861 3.57826 2.13939 1.16237 
3.52112 2.1572 1.19091 3.46564 2.17286 1.20489 3.41225 2.18812 1.2041 
3.3621 2.21194 1.19488 3.31561 2.25036 1.18392 3.26546 2.27418 1.1747 
3.21288 2.28826 1.16663 3.15944 2.29894 1.15898 3.10401 2.30165 1.15227 
3.04734 2.29937 1.14615 2.99714 2.32738 1.14385 2.94402 2.35245 1.1567 
2.88516 2.37219 1.19984 2.82101 2.38389 1.26616 2.75149 2.38291 1.3488 
2.68686 2.39273 1.41536 2.62599 2.40001 1.45256 2.56846 2.39872 1.45374 
2.52075 2.4235 1.42959 2.47097 2.44438 1.4133 2.41673 2.46061 1.4198 
-0.0381425 0.440215 1.34053 -0.00454546 0.385337 1.41273 0.0330125 0.337962 1.4692 
0.0749564 0.302382 1.50182 0.105299 0.252389 1.52019 0.120715 0.195773 1.52276 
0.154373 0.141483 1.51199 0.202947 0.0973081 1.48636 0.248793 0.0391903 1.47001 
0.289047 -0.0241761 1.48395 0.326012 -0.0831393 1.52699 0.364996 -0.129646 1.57597 
0.412166 -0.152206 1.60727 -0.00512586 0.537546 1.26964 0.0567025 0.5819 1.29274 
0.104554 0.632149 1.33598 0.125575 0.68952 1.38266 0.137689 0.748079 1.4206 
0.160165 0.801584 1.43787 0.200659 0.849137 1.443 0.238877 0.896336 1.44039 
0.293561 0.939708 1.44021 0.357955 0.980709 1.44149 0.423638 1.01944 1.44325 
0.486554 1.04666 1.4464 0.542941 1.04779 1.45265 1.99407 2.63605 1.08209 
2.06155 2.642 1.02109 2.11426 2.61089 1.00154 2.162 2.57743 1.0119 
2.20425 2.53958 1.05244 2.24357 2.51198 1.12879 1.31803 0.456757 1.45476 
1.25954 0.473565 1.49083 1.19655 0.481132 1.54282 0.941179 1.74259 1.39547 
0.980941 1.67726 1.40963 
LINES 27 559
31 33 34 35 36 37 38 39 40 41 42 43 44 45 46 47 48 49 50 51 52 53 54 55 56 57 58 59 60 61 62 30 
16 32 71 72 73 74 75 76 77 78 79 80 81 82 83 84 25 
38 32 85 86 87 88 89 90 91 92 93 94 95 96 97 98 99 100 101 102 103 104 105 106 107 108 109 110 111 112 113 114 115 116 117 118 119 120 32 
7 30 122 123 124 125 126 26 
8 29 127 128 129 130 131 132 25 
59 28 133 134 135 136 137 138 139 140 141 142 143 144 145 146 147 148 149 150 151 152 153 154 155 156 157 158 159 160 161 162 163 164 165 166 167 168 169 170 171 172 173 174 175 176 177 178 179 180 181 182 183 184 185 186 187 188 189 19 
119 28 190 191 192 193 194 195 196 197 198 199 200 201 202 203 204 205 206 207 208 209 210 211 212 213 214 215 216 217 218 219 220 221 222 223 224 225 226 227 228 229 230 231 232 233 234 235 236 237 238 239 240 241 242 243 244 245 246 247 248 249 250 251 252 253 254 255 256 257 258 259 260 261 262 263 264 265 266 267 268 269 270 271 272 273 274 275 276 277 278 279 280 281 282 283 284 285 286 287 288 289 290 291 292 293 294 295 296 297 298 299 300 301 302 303 304 305 306 17 
4 28 307 308 23 
28 27 309 310 311 312 313 314 315 316 317 318 319 320 321 322 323 324 325 326 327 328 329 330 331 332 333 334 20 
18 26 335 336 337 338 339 340 341 342 343 344 345 346 347 348 349 350 20 
22 25 351 352 353 354 355 356 357 358 359 360 361 362 363 364 365 366 367 368 369 370 15 
42 24 371 372 373 374 375 376 377 378 379 380 381 382 383 384 385 386 387 388 389 390 391 392 393 394 395 396 397 398 399 400 401 402 403 404 405 406 407 408 409 410 21 
9 22 411 412 413 414 415 416 417 20 
4 17 418 419 19 
4 19 420 421 17 
5 18 422 423 424 16 
3 17 425 14 
15 14 426 427 428 429 430 431 432 433 434 435 436 437 438 9 
3 14 439 13 
12 12 440 441 442 443 444 445 446 447 448 449 10 
26 11 450 451 452 453 454 455 456 457 458 459 460 461 462 463 464 465 466 467 468 469 470 471 472 473 0 
15 9 474 475 476 477 478 479 480 481 482 483 484 485 486 3 
15 9 487 488 489 490 491 492 493 494 495 496 497 498 499 5 
8 8 500 501 502 503 504 505 6 
5 7 506 507 508 1 
4 4 509 510 2 
12 30 70 69 68 67 66 65 64 63 31 121 26 

POINT_DATA 511
SCALARS DY_raw double
LOOKUP_TABLE default
353.61 215.769 318.117 382.869 270.046 253.837 382.08 472.026 328.551 
251.737 283.773 379.842 438.512 210.392 172.109 367.844 219.753 172.072 
299.528 167.106 318.873 224.149 395.511 331.197 295.767 288.069 189.405 
245.05 219.145 292.904 220.049 202.225 420.25 344.712 365.666 352.286 
380.546 405.085 393.095 382.104 349.501 339.527 304.061 260.418 260.418 
277.049 290.124 293.699 262.458 263.361 263.361 296.964 290.076 258.296 
225.368 196.163 214.647 221.196 198.975 196.264 196.264 208.949 215.353 
212.756 207.459 195.546 209.818 209.311 219.135 226.378 219.656 368.469 
357.509 370.801 341.887 362.841 346.6 315.523 295.458 303.678 307.871 
309.106 336.572 399.4 345.984 490.464 556.224 433.495 412.659 308.741 
294.232 304.616 311.827 294.244 354.835 391.521 372.289 372.289 322.066 
395.722 362.294 383.283 409.985 423.936 387.981 394.079 364.263 280.041 
288.977 259.571 294.036 256.229 266.992 373.212 387.41 398.715 432.903 
451.852 411.152 448.436 405.456 193.836 178.531 182.077 183.648 188.411 
189.646 282.4 267.433 248.289 271.37 264.262 294.16 217.108 218.965 
216.017 201.369 199.997 213.55 273.039 252.985 327.644 325.824 332.024 
332.024 300.39 259.192 259.192 262.019 240.591 225.62 245.488 245.886 
254.787 270.187 308.944 322.243 324.301 324.301 312.468 286.58 259.967 
259.967 247.182 241.485 241.485 238.03 217.758 219.6 219.6 221.193 
212.733 244.804 256.959 262.773 208.098 210.367 180.568 184.166 169.174 
167.42 174.108 177.67 182.068 188.725 196.646 165.858 161.891 149.998 
149.546 209.342 219.941 236.154 246.496 251.546 277.142 278.915 374.561 
373.543 458.741 404.717 366.272 434.747 321.207 292.72 272.279 259.679 
270.059 233.486 262.743 248.889 319.33 319.33 314.977 314.206 295.213 
224.018 243.916 243.916 225.782 257.025 283.512 297.905 292.375 296.69 
286.794 305.754 332.183 347.37 311.46 311.46 257.347 231.203 259.74 
263.159 239.318 236.114 338.251 322.105 309.047 309.848 309.848 270.553 
315.543 315.543 340.583 326.787 283.579 275.224 275.224 249.302 264.792 
264.792 278.471 247.734 279.238 268.321 220.612 266.794 266.794 265.595 
320.606 286.384 286.384 242.37 227.191 264.115 258.094 267.863 279.802 
279.802 269.81 263.565 263.565 272.976 231.383 221.802 238.075 227.183 
204.072 219.998 225.695 211.258 211.336 234.831 249.42 200.167 237.955 
214.184 203.607 212.112 217.589 209.853 206.718 209.337 235.374 222.937 
240.059 258.492 235.71 230.108 178.139 189.312 159.596 155.715 159.22 
170.212 226.204 232.563 260.94 264.1 243.657 257.583 257.583 280.364 
278.778 256.464 226.72 238.467 236.96 240.353 281.392 304.288 293.432 
333.665 393.502 481.381 419.53 431.326 395.206 400.984 310.567 253.282 
247.647 324.628 194.678 211.801 280.286 296.026 280.664 276.52 253.412 
258.093 338.238 389.636 326.774 377.373 377.65 441.913 477.012 444.967 
232.221 225.527 228.126 213.581 197.031 192.977 205.948 222.295 251.987 
247.488 263.688 189.397 186.061 229.524 205.897 230.79 282.939 250.496 
259.428 327.561 202.808 182.657 182.657 177.025 174.735 178.079 178.079 
190.941 217.021 217.021 236.077 246.052 227.487 246.808 230.68 236.739 
236.739 293.932 285.239 270.871 323.32 305.634 269.37 314.196 265.478 
234.157 212.258 239.373 234.355 234.613 215.947 227.759 222.104 237.202 
241.44 234.31 238.998 238.998 196.531 202.555 461.356 430.467 466.338 
403.813 419.723 343.519 352.186 164.963 167.416 174.95 179.918 220.419 
210.363 227.608 144.307 203.189 226.561 269.913 234.304 210.522 208.998 
211.535 214.456 227.496 241.678 236.278 284.279 265.108 179.78 338.202 
332.436 295.332 286.932 281.731 307.088 315.986 336.493 355.686 340.656 
306.081 270.603 270.603 279.687 293.228 293.228 298.176 286.341 286.341 
252.982 236.29 236.29 214.644 236.56 226.384 315.054 348.018 379.842 
328.971 362.407 283.465 287.009 287.009 353.481 258.169 281.168 322.847 
382.422 346.867 336.137 262.058 207.06 186.957 186.957 197.776 296.561 
315.069 229.148 233.367 274.976 264.969 317.26 264.845 215.832 227.355 
184.372 215.013 230.955 236.182 236.182 307.947 340.718 370.962 411.065 
423.128 406.215 355.166 234.435 202.994 268.752 277.293 
FIELD FieldData 7
DY_minmax 1 511 double
0.508121 0.173488 0.421955 0.57915 0.305255 0.265903 0.577235 0.795596 0.447285 
0.260805 0.338578 0.571804 0.714235 0.160434 0.0674957 0.542676 0.183158 0.0674052 
0.376826 0.0553481 0.423791 0.193832 0.609843 0.453708 0.367697 0.349007 0.109484 
0.244571 0.181683 0.360747 0.183878 0.140606 0.6699 0.48652 0.537388 0.504907 
0.573511 0.633084 0.603976 0.577294 0.498145 0.473931 0.38783 0.281881 0.281881 
0.322254 0.353997 0.362676 0.286833 0.289024 0.289024 0.370602 0.353881 0.27673 
0.19679 0.125889 0.170764 0.186663 0.132717 0.126135 0.126135 0.15693 0.172477 
0.166172 0.153312 0.124392 0.15904 0.157808 0.181657 0.199241 0.182924 0.544193 
0.517585 0.549853 0.47966 0.530531 0.491102 0.415658 0.366947 0.386901 0.397082 
0.400078 0.466757 0.619282 0.489607 0.840357 1 0.702054 0.651471 0.399193 
0.363969 0.38918 0.406684 0.363999 0.511095 0.600155 0.553466 0.553466 0.431542 
0.610355 0.529202 0.580156 0.64498 0.678848 0.591562 0.606366 0.533982 0.329518 
0.351213 0.279824 0.363493 0.27171 0.29784 0.555707 0.590175 0.617621 0.700617 
0.746619 0.647813 0.738328 0.633985 0.12024 0.0830842 0.0916931 0.0955084 0.10707 
0.11007 0.335246 0.29891 0.252436 0.308469 0.291212 0.363796 0.176737 0.181247 
0.174088 0.138528 0.135197 0.1681 0.312521 0.263835 0.445083 0.440664 0.455716 
0.455716 0.378918 0.278905 0.278905 0.285767 0.233746 0.197402 0.245634 0.246601 
0.26821 0.305596 0.399685 0.431972 0.436968 0.436968 0.40824 0.345393 0.280784 
0.280784 0.249748 0.235917 0.235917 0.227528 0.178316 0.182787 0.182787 0.186655 
0.166117 0.243974 0.273482 0.287598 0.154865 0.160372 0.0880291 0.0967648 0.0603703 
0.056111 0.0723473 0.0809949 0.0916719 0.107834 0.127062 0.0523195 0.042688 0.0138163 
0.0127195 0.157884 0.183615 0.222974 0.248081 0.260342 0.322481 0.326786 0.558981 
0.556511 0.763344 0.632191 0.538858 0.705095 0.429457 0.360298 0.310675 0.280086 
0.305286 0.216497 0.287524 0.253892 0.424899 0.424899 0.414331 0.412459 0.366351 
0.193512 0.241819 0.241819 0.197794 0.273643 0.337944 0.372886 0.359462 0.369937 
0.345912 0.391942 0.456102 0.492972 0.405794 0.405794 0.274424 0.210956 0.280235 
0.288533 0.230655 0.222879 0.470834 0.431636 0.399935 0.401879 0.401879 0.306485 
0.415706 0.415706 0.476495 0.443002 0.338108 0.317824 0.317824 0.254894 0.292498 
0.292498 0.325708 0.251088 0.327569 0.301066 0.185245 0.29736 0.29736 0.294449 
0.427998 0.344916 0.344916 0.238066 0.201215 0.290855 0.276239 0.299954 0.328938 
0.328938 0.304682 0.289521 0.289521 0.312367 0.211392 0.188134 0.22764 0.201195 
0.14509 0.183753 0.197584 0.162536 0.162725 0.219763 0.25518 0.135611 0.227348 
0.169638 0.143961 0.16461 0.177906 0.159125 0.151513 0.157872 0.221082 0.19089 
0.232456 0.277205 0.221898 0.208298 0.0821328 0.109257 0.0371182 0.0276957 0.0362041 
0.0628885 0.198819 0.214257 0.283147 0.29082 0.24119 0.274999 0.274999 0.330303 
0.326452 0.27228 0.200072 0.22859 0.224932 0.233169 0.332797 0.388383 0.362027 
0.459701 0.604964 0.818307 0.668151 0.696789 0.609101 0.623129 0.403625 0.264555 
0.250877 0.437761 0.122285 0.163855 0.330114 0.368325 0.331032 0.320972 0.264872 
0.276236 0.470803 0.595579 0.442971 0.565809 0.566483 0.72249 0.807699 0.729906 
0.213427 0.197176 0.203485 0.168174 0.127996 0.118154 0.149645 0.18933 0.261412 
0.25049 0.289819 0.109465 0.101365 0.20688 0.149522 0.209953 0.336553 0.257792 
0.279478 0.444881 0.142023 0.093102 0.093102 0.0794288 0.0738702 0.0819881 0.0819881 
0.113212 0.176525 0.176525 0.222787 0.247005 0.201934 0.24884 0.209686 0.224396 
0.224396 0.363242 0.342137 0.307257 0.434586 0.39165 0.303612 0.412436 0.294164 
0.218127 0.164962 0.230791 0.218609 0.219233 0.173919 0.202594 0.188865 0.225519 
0.235807 0.2185 0.229879 0.229879 0.126784 0.141408 0.769692 0.694705 0.781788 
0.629998 0.668622 0.483623 0.504662 0.0501464 0.0561003 0.0743914 0.0864528 0.184775 
0.160363 0.202229 0 0.142948 0.199687 0.304931 0.218483 0.160749 0.157049 
0.163208 0.170299 0.201957 0.236385 0.223275 0.339807 0.293265 0.0861171 0.470715 
0.456716 0.366639 0.346248 0.333621 0.39518 0.416781 0.466566 0.513159 0.476672 
0.392735 0.306607 0.306607 0.32866 0.361531 0.361531 0.373543 0.344813 0.344813 
0.263829 0.223305 0.223305 0.170756 0.223962 0.199257 0.414519 0.494545 0.571802 
0.448306 0.529476 0.337832 0.346434 0.346434 0.507807 0.27642 0.332255 0.433438 
0.578067 0.491749 0.465701 0.285861 0.152345 0.10354 0.10354 0.129805 0.369624 
0.414554 0.205968 0.216209 0.317223 0.292928 0.419873 0.292629 0.173641 0.201615 
0.0972656 0.171652 0.210354 0.223043 0.223043 0.397264 0.476822 0.550245 0.647601 
0.676887 0.635828 0.511899 0.218802 0.142472 0.302112 0.322848 
WidthEq 1 511 double
1.85709 3.07192 1.08409 1.39125 1.50265 1.912 1.86989 1 1.55564 
3.13715 1.97551 1.73963 1.62328 3.96286 5.65028 1.85289 4.81617 6.57652 
3.23328 6.16105 4.21822 3.8869 2.45608 2.55454 2.57326 5.1254 7.82369 
2.4064 4.8772 3.07061 6.11288 6.14784 3.63031 3.76875 3.50267 3.42615 
2.88324 2.64289 2.4247 2.37275 2.31901 2.4602 2.56727 2.95577 2.95577 
3.00689 2.85049 2.95543 3.07811 3.18683 3.18683 2.96836 2.96093 3.08644 
3.56673 4.02582 3.88566 4.09539 5.13097 5.63968 5.63968 6.18623 6.2044 
5.65186 5.20776 5.38976 5.33341 5.48637 5.5364 5.7486 6.01861 3.93644 
3.49358 3.50673 3.44783 3.36016 3.51753 3.81444 4.02424 3.95461 3.68247 
3.59652 3.40654 3.35555 4.19854 3.17087 2.6773 3.00173 3.12841 3.73545 
3.72926 3.83336 3.87259 4.18519 3.6151 3.3131 3.40262 3.40262 3.8569 
3.43131 3.6815 3.56047 3.4867 3.33415 3.77082 3.8697 4.34193 4.94684 
4.79085 5.44316 4.97622 5.47302 5.11969 4.08094 3.80612 3.73449 3.29761 
3.24298 3.36704 3.2619 3.73559 7.38138 6.98993 6.93013 7.21769 7.59896 
7.76348 4.23377 4.95812 5.81425 5.58346 5.69225 5.21313 4.55827 4.02527 
3.65604 3.5617 3.57134 3.49331 2.86129 3.188 2.73909 2.73813 2.69904 
2.69904 2.91813 3.2328 3.2328 3.13426 3.2992 3.34193 3.23823 3.16385 
3.06937 2.85194 2.53025 2.62741 2.59658 2.59658 2.66526 2.66849 2.88262 
2.88262 3.10798 3.28599 3.28599 3.39175 3.68563 3.47831 3.47831 3.36057 
3.20747 2.90402 2.81643 3.18353 3.80963 3.70118 4.33636 5.0495 5.27176 
5.56867 5.57968 5.31669 5.08198 5.08191 5.07861 6.00643 6.24493 6.60673 
6.65056 4.67855 4.15009 3.6612 3.41789 3.30057 3.15793 2.8573 2.37261 
2.38039 1.92445 2.02657 2.22563 1.88826 2.28674 2.32238 2.50245 2.64798 
2.55509 2.83515 2.65776 2.71666 2.3594 2.3594 2.29857 2.34199 2.40357 
2.80583 2.80287 2.80287 3.02286 2.88441 2.79049 2.52908 2.46206 2.27414 
2.14595 2.05003 2.1926 2.37371 2.73709 2.73709 3.66698 3.96844 3.60739 
3.76779 3.86405 3.75465 2.90836 2.92646 3.06263 2.89522 2.89522 3.02128 
2.65975 2.65975 2.47527 2.54973 2.77618 3.04336 3.04336 3.34757 3.30787 
3.30787 3.09043 3.51629 3.08603 3.13928 3.42409 2.9707 2.9707 3.08114 
2.54732 2.73771 2.73771 3.12009 3.34475 2.97146 3.08203 2.74893 2.61069 
2.61069 2.69058 2.90492 2.90492 3.02128 3.44177 3.43475 3.24807 3.27374 
3.7124 3.55111 3.57175 3.61944 3.64517 3.38961 3.13887 3.77412 3.3989 
3.79999 4.52655 4.5165 4.89062 5.06519 5.17191 5.00622 4.35322 4.29563 
3.99954 4.20762 4.38129 4.61029 5.50254 5.50302 6.24617 6.29075 6.61705 
6.14391 4.72479 4.15753 2.46454 2.90396 3.03339 2.76049 2.76049 2.52303 
2.50011 2.57505 2.95508 2.93884 3.02306 3.05719 2.83625 2.58158 2.67427 
2.47954 2.00331 1.74514 1.987 2.08127 2.19907 2.40467 3.54657 3.99108 
4.52194 4.17686 7.34436 6.7793 5.74757 5.63872 5.81494 5.61567 5.42479 
5.02666 3.92447 3.23424 3.57732 2.94249 2.87643 2.66959 2.54333 3.10447 
6.65937 6.41296 5.82471 5.67835 5.91678 5.92111 5.44082 5.19861 4.6663 
5.20295 5.12836 5.88808 5.74482 5.09622 4.85298 4.4084 4.05624 3.69781 
3.30911 2.53851 4.3248 4.78692 4.78692 4.88539 4.82677 4.58187 4.58187 
3.9566 3.63093 3.63093 3.34 3.24381 3.4706 3.10997 3.34977 3.34434 
3.34434 2.83666 3.02671 3.20169 2.71163 2.98061 3.30099 2.93939 3.3464 
3.70724 3.93878 3.69822 3.8368 3.88724 4.17906 4.17734 4.15381 3.86976 
3.70985 3.78884 4.00738 4.00738 4.84053 4.58545 2.78251 2.97682 2.93788 
3.2213 3.18814 3.74185 3.91951 6.2869 6.21451 6.14151 6.3253 4.78837 
5.18691 4.99514 6.96873 4.8995 4.67139 3.73352 4.02314 4.0358 4.0795 
3.87967 3.75898 3.44562 3.24215 3.24938 2.81271 3.00669 5.21196 1.9859 
2.07473 2.61633 2.68191 2.52516 2.35107 2.26066 1.99581 1.83535 1.87904 
2.07143 2.21455 2.21455 2.22157 2.124 2.124 2.00303 1.99024 1.99024 
2.02471 2.13088 2.13088 2.08925 2.08017 2.0651 1.63256 1.55522 1.53995 
1.82881 1.68892 2.19419 2.20382 2.20382 1.9023 2.87457 2.68734 2.22336 
1.73998 1.64722 1.58619 1.8511 2.3916 2.74184 2.74184 2.74274 1.97661 
1.89459 3.06703 2.84533 2.12428 2.17919 1.93326 2.24201 2.50211 2.42979 
2.66594 2.43509 2.30779 2.18008 2.18008 1.72876 1.92067 1.78395 1.71858 
1.66663 1.67241 1.59961 2.7587 3.20919 1.75986 1.63656 
rRFP 1 511 double
2476.28 2652.83 2363.94 2408.58 2424.77 2484.26 2478.14 2351.72 2432.47 
2662.31 2493.49 2459.21 2442.3 2782.31 3027.54 2475.67 2906.32 3162.15 
2676.28 3101.77 2819.42 2771.27 2563.33 2577.64 2580.36 2951.26 3343.4 
2556.11 2915.19 2652.64 3094.77 3099.85 2733.98 2754.1 2715.43 2704.31 
2625.41 2590.48 2558.77 2551.22 2543.41 2563.93 2579.49 2635.95 2635.95 
2643.38 2620.65 2635.9 2653.73 2669.53 2669.53 2637.78 2636.7 2654.94 
2724.74 2791.46 2771.09 2801.57 2952.07 3026 3026 3105.43 3108.07 
3027.77 2963.23 2989.68 2981.49 3003.72 3010.99 3041.83 3081.07 2778.47 
2714.11 2716.02 2707.46 2694.72 2717.59 2760.74 2791.23 2781.11 2741.56 
2729.07 2701.46 2694.05 2816.56 2667.21 2595.48 2642.63 2661.04 2749.26 
2748.36 2763.49 2769.19 2814.62 2731.77 2687.88 2700.89 2700.89 2766.91 
2705.06 2741.42 2723.83 2713.11 2690.94 2754.4 2768.77 2837.4 2925.31 
2902.64 2997.44 2929.58 3001.78 2950.43 2799.47 2759.53 2749.12 2685.63 
2677.69 2695.72 2680.44 2749.28 3279.12 3222.23 3213.54 3255.33 3310.74 
3334.65 2821.68 2926.95 3051.37 3017.83 3033.64 2964.01 2868.84 2791.38 
2737.72 2724.01 2725.41 2714.07 2622.22 2669.7 2604.46 2604.32 2598.64 
2598.64 2630.48 2676.21 2676.21 2661.89 2685.86 2692.07 2677 2666.19 
2652.46 2620.86 2574.11 2588.23 2583.75 2583.75 2593.73 2594.2 2625.32 
2625.32 2658.07 2683.94 2683.94 2699.31 2742.02 2711.89 2711.89 2694.78 
2672.53 2628.43 2615.7 2669.05 2760.04 2744.28 2836.59 2940.23 2972.53 