# vtk DataFile Version 3.0
vtk output
ASCII
DATASET POLYDATA
POINTS 309 float
5.98433 -0.375179 0.412893 5.67905 -1.20747 -0.198966 6.0342 -0.763911 -0.494766 
6.49068 0.0872708 -0.21286 6.21395 -0.475039 -0.414059 5.21896 -1.58414 -0.778767 
5.33941 -1.45877 -0.783625 6.1345 -0.95137 -0.812966 6.17798 -0.810388 -0.818155 
6.29473 -0.289274 -0.881777 5.72464 -0.755911 -1.32219 5.53706 -0.974209 -1.85127 
1.50019 -1.17315 -2.0566 1.63975 -0.727869 -2.04967 3.759 0.0775403 -2.19375 
3.13376 -0.172394 -2.35263 2.96711 0.00491758 -2.53211 3.13943 0.0753224 -2.66917 
2.67591 1.27704 -2.45443 0.105274 -0.810797 -3.00915 -0.475657 -0.898465 -3.48636 
0.158207 -0.688834 -3.53076 -0.562984 -0.079799 -4.46589 0.521181 1.94277 -4.45544 
-0.782754 -0.213649 -4.6372 -0.569255 0.208569 -4.63743 0.141023 1.69786 -4.63468 
2.112 1.12382 -4.82406 -0.733835 0.263028 -4.82223 -0.651236 0.235644 -4.72614 
2.12319 1.06774 -4.82735 2.11218 0.99997 -4.82926 2.09072 0.926705 -4.83053 
2.06703 0.852902 -4.83907 2.04424 0.780204 -4.85508 2.02975 0.712511 -4.87902 
2.03098 0.652452 -4.89651 2.02926 0.590844 -4.91383 2.0405 0.536691 -4.93936 
2.05283 0.483741 -4.97237 2.06355 0.42868 -4.99045 2.10593 0.387105 -4.97343 
2.15672 0.347546 -4.92726 2.22522 0.317458 -4.85987 2.29934 0.300432 -4.77752 
2.36905 0.29843 -4.67185 2.44096 0.293324 -4.55906 2.50505 0.303224 -4.44499 
2.56476 0.320658 -4.33767 2.63036 0.328544 -4.21637 2.71019 0.311749 -4.07497 
2.79705 0.284738 -3.90483 2.87973 0.263339 -3.71922 2.94648 0.248943 -3.51431 
3.00015 0.206881 -3.27878 3.06008 0.145847 -2.99342 0.116824 1.62545 -4.63568 
0.0880711 1.56178 -4.63594 0.0523399 1.51151 -4.63504 0.0242022 1.44753 -4.62792 
0.00190877 1.3741 -4.6068 -0.0176897 1.29813 -4.5637 -0.0366189 1.22176 -4.51323 
-0.0561671 1.14569 -4.47013 -0.0775711 1.07055 -4.44916 -0.100264 0.996129 -4.44294 
-0.125082 0.924028 -4.45131 -0.15663 0.863087 -4.47354 -0.20251 0.827018 -4.51584 
-0.2545 0.8018 -4.56461 -0.306709 0.777882 -4.60587 -0.356225 0.751428 -4.62514 
-0.399011 0.713816 -4.63057 -0.428753 0.652045 -4.63066 -0.453843 0.581343 -4.63151 
-0.482548 0.517819 -4.63176 -0.516579 0.468451 -4.63098 -0.534789 0.410325 -4.63188 
-0.535019 0.350407 -4.63437 -0.547797 0.281834 -4.63617 -0.549717 0.148349 -4.54302 
-0.552397 0.0768901 -4.4751 -0.558151 -0.00163258 -4.45001 -0.731429 -0.189334 -4.60887 
-0.677296 -0.164733 -4.56402 -0.616909 -0.133385 -4.51011 0.577823 1.96433 -4.36257 
0.63266 1.98672 -4.29184 0.687148 2.00803 -4.236 0.748365 2.01817 -4.16632 
0.824534 2.00313 -4.06917 0.907431 1.97693 -3.95818 0.990598 1.94934 -3.85472 
1.07196 1.92257 -3.77338 1.15208 1.89642 -3.7068 1.23159 1.87058 -3.64759 
1.31048 1.84505 -3.59576 1.38875 1.81982 -3.55131 1.4664 1.79491 -3.51423 
1.54528 1.76938 -3.46239 1.62536 1.74333 -3.3958 1.70583 1.71827 -3.31433 
1.78041 1.70276 -3.24683 1.84532 1.70319 -3.20018 1.91065 1.69992 -3.17604 
1.97199 1.70038 -3.1514 2.03356 1.68056 -3.11276 2.08693 1.64441 -3.06667 
2.15218 1.61309 -3.02882 2.21464 1.58145 -3.00562 2.25641 1.53892 -2.98115 
2.2978 1.49493 -2.94182 2.35149 1.45677 -2.89584 2.39179 1.41156 -2.84903 
2.42497 1.36261 -2.80179 2.46887 1.31753 -2.73296 2.53758 1.28576 -2.64334 
2.61199 1.26969 -2.5461 0.142068 -0.759875 -3.27347 -0.444402 -0.838719 -3.47904 
-0.400282 -0.80191 -3.45889 -0.347352 -0.778495 -3.41027 -0.286185 -0.768255 -3.34057 
-0.210743 -0.782765 -3.25376 -0.127372 -0.805968 -3.16948 -0.0275005 -0.820002 -3.08619 
0.239506 -0.818261 -2.90764 0.335971 -0.828929 -2.80011 0.40948 -0.830397 -2.68284 
0.481783 -0.835583 -2.56711 0.544637 -0.825066 -2.46778 0.601252 -0.806088 -2.39734 
0.660617 -0.795027 -2.34978 0.73151 -0.806092 -2.30411 0.802403 -0.817158 -2.25843 
0.861099 -0.805691 -2.21824 0.913163 -0.783252 -2.19191 0.965177 -0.760715 -2.16557 
1.02298 -0.747533 -2.12524 1.08843 -0.748154 -2.07867 1.14713 -0.736688 -2.03847 
1.20397 -0.724295 -2.02041 1.26575 -0.723153 -2.0181 1.32074 -0.709833 -2.02215 
1.37577 -0.696612 -2.02622 1.43783 -0.696868 -2.03144 1.49836 -0.694187 -2.0364 
1.56675 -0.706611 -2.04266 3.26567 0.0933177 -2.5516 3.35684 0.0940927 -2.45784 
3.4203 0.10522 -2.39946 3.4792 0.115426 -2.36957 3.54834 0.105092 -2.34604 
3.61955 0.0925319 -2.3079 3.68587 0.0911245 -2.25401 3.13999 -0.0668705 -2.50591 
3.03541 0.0370614 -2.59695 3.09227 -0.200179 -2.25359 3.04432 -0.218203 -2.17593 
2.98664 -0.220197 -2.1191 2.93049 -0.225135 -2.06252 2.86737 -0.216677 -2.00478 
2.80447 -0.209527 -1.95457 2.75196 -0.224081 -1.92101 2.70428 -0.248778 -1.89573 
2.6581 -0.275492 -1.86321 2.61198 -0.302302 -1.83071 2.56647 -0.329421 -1.79082 
2.52035 -0.356232 -1.75831 2.47422 -0.383042 -1.72581 2.42686 -0.409235 -1.70806 
2.37821 -0.434713 -1.70504 2.32687 -0.457656 -1.72401 2.26907 -0.470838 -1.76435 
2.20361 -0.470217 -1.81092 2.14492 -0.481683 -1.85111 2.08808 -0.494076 -1.86918 
2.02634 -0.495307 -1.87149 1.97225 -0.510342 -1.86758 1.92276 -0.534211 -1.86443 
1.87349 -0.55938 -1.86879 1.82371 -0.584436 -1.88054 1.77352 -0.610483 -1.90718 
1.72732 -0.645056 -1.94195 1.68691 -0.692507 -1.99263 3.20765 -0.195358 -2.35979 
3.28065 -0.216617 -2.36681 3.3482 -0.227422 -2.37293 3.40418 -0.216005 -2.37715 
3.45953 -0.204278 -2.38874 3.52518 -0.21406 -2.41698 3.59357 -0.23176 -2.46809 
3.65759 -0.241925 -2.52597 3.7144 -0.237392 -2.57518 3.77399 -0.236422 -2.6099 
3.82716 -0.222265 -2.63609 3.88024 -0.207923 -2.66226 3.93985 -0.204359 -2.67455 
3.98912 -0.17919 -2.67019 4.02893 -0.134121 -2.64932 4.07971 -0.110967 -2.63774 
4.146 -0.118473 -2.63617 4.21256 -0.127377 -2.64213 4.26844 -0.115765 -2.64633 
4.32347 -0.102544 -2.65039 4.38464 -0.101093 -2.65547 4.44029 -0.0881798 -2.65215 
4.49735 -0.0773335 -2.64161 4.56496 -0.0900137 -2.62549 4.62624 -0.118072 -2.62437 
4.66334 -0.159761 -2.63667 4.69033 -0.205627 -2.66317 4.72578 -0.24831 -2.67537 
4.77789 -0.284127 -2.66636 4.8263 -0.324429 -2.62747 4.87107 -0.367285 -2.58093 
4.88683 -0.424769 -2.54003 4.90529 -0.478927 -2.52153 4.93135 -0.527823 -2.51832 
4.96712 -0.570969 -2.52312 5.01639 -0.607014 -2.52876 5.05226 -0.650109 -2.53358 
5.0794 -0.697798 -2.53785 5.10716 -0.745796 -2.53475 5.14498 -0.789766 -2.51744 
5.20038 -0.827028 -2.47157 5.25586 -0.867245 -2.39111 5.33163 -0.901949 -2.26004 
5.42615 -0.935869 -2.07595 1.62882 -0.795591 -2.05159 1.63129 -0.856263 -2.05434 
1.6291 -0.919391 -2.0568 1.63142 -0.980017 -2.05953 1.61785 -1.04683 -2.06119 
1.58987 -1.1078 -2.06139 1.5478 -1.14567 -2.05945 5.59948 -0.894782 -1.67462 
5.66223 -0.835338 -1.49884 5.50773 -1.03818 -1.62581 5.47539 -1.0821 -1.43149 
5.43883 -1.11526 -1.28598 5.39942 -1.14684 -1.1848 5.36353 -1.1878 -1.1091 
5.34112 -1.25155 -1.04293 5.33364 -1.3215 -0.970828 5.34177 -1.38668 -0.884959 
5.73762 -0.649117 -1.44777 5.75877 -0.57143 -1.53557 5.79123 -0.518079 -1.57574 
5.8201 -0.455727 -1.58547 5.85131 -0.395883 -1.57814 5.89532 -0.35888 -1.55797 
5.94642 -0.331954 -1.50905 5.99571 -0.298916 -1.4374 6.04129 -0.255441 -1.33773 
6.10206 -0.237101 -1.21806 6.18849 -0.254831 -1.06238 5.85971 -0.758005 -0.91016 
6.16512 -0.893453 -0.861472 6.33828 -0.19312 -0.841722 6.37186 -0.112834 -0.789101 
6.40221 -0.0434986 -0.704427 6.4312 0.00934729 -0.575683 6.45719 0.0397855 -0.405473 
6.27594 -0.384022 -0.747761 6.2469 -0.438656 -0.591379 6.12819 -0.762032 -0.68733 
6.0833 -0.907542 -0.682222 5.30878 -1.51883 -0.783568 5.26656 -1.55666 -0.781611 
5.41649 -1.47292 -0.664201 5.48071 -1.46414 -0.557623 5.53673 -1.44227 -0.472128 
5.58514 -1.40753 -0.40034 5.6204 -1.34844 -0.333862 5.65017 -1.27881 -0.266492 
6.15084 -0.589179 -0.453839 6.20284 -0.433501 -0.240272 6.18978 -0.391089 -0.0886008 
6.17321 -0.348745 0.041034 6.14509 -0.312784 0.149063 6.09708 -0.300831 0.250304 
6.04462 -0.324883 0.335546 5.96251 -0.97214 -0.457173 5.91204 -1.07319 -0.429267 
5.87697 -1.13452 -0.409056 5.84046 -1.18093 -0.382514 5.80249 -1.22165 -0.336399 
5.74548 -1.22405 -0.272197 6.04938 -0.621358 -0.181937 6.06916 -0.534535 0.0636908 
6.06607 -0.481228 0.227375 6.03833 -0.431683 0.331602 5.66922 -1.16463 -0.0326741 
5.66664 -1.11479 0.0961104 5.68266 -1.05137 0.179259 5.69844 -0.986167 0.240184 
5.70215 -0.928582 0.316678 5.7123 -0.869519 0.415022 5.71688 -0.814014 0.521115 
5.72569 -0.754385 0.60472 5.72594 -0.69672 0.65919 5.72927 -0.634261 0.6764 
5.72633 -0.573326 0.671755 5.73743 -0.505276 0.643912 5.76232 -0.442762 0.607248 
5.80016 -0.402837 0.553668 5.84534 -0.375385 0.498939 5.90277 -0.362054 0.450044 

LINES 28 367
3 28 29 25 
28 27 30 31 32 33 34 35 36 37 38 39 40 41 42 43 44 45 46 47 48 49 50 51 52 53 54 55 17 
26 26 56 57 58 59 60 61 62 63 64 65 66 67 68 69 70 71 72 73 74 75 76 77 78 79 25 
34 23 86 87 88 89 90 91 92 93 94 95 96 97 98 99 100 101 102 103 104 105 106 107 108 109 110 111 112 113 114 115 116 117 18 
3 21 118 19 
9 20 119 120 121 122 123 124 125 19 
24 19 126 127 128 129 130 131 132 133 134 135 136 137 138 139 140 141 142 143 144 145 146 147 13 
9 17 148 149 150 151 152 153 154 14 
3 17 155 15 
3 17 156 16 
30 15 157 158 159 160 161 162 163 164 165 166 167 168 169 170 171 172 173 174 175 176 177 178 179 180 181 182 183 184 13 
46 15 185 186 187 188 189 190 191 192 193 194 195 196 197 198 199 200 201 202 203 204 205 206 207 208 209 210 211 212 213 214 215 216 217 218 219 220 221 222 223 224 225 226 227 228 11 
9 13 229 230 231 232 233 234 235 12 
4 11 236 237 10 
10 11 238 239 240 241 242 243 244 245 6 
13 10 246 247 248 249 250 251 252 253 254 255 256 9 
3 10 257 2 
7 9 259 260 261 262 263 3 
4 9 264 265 4 
4 6 268 269 5 
8 6 270 271 272 273 274 275 1 
3 4 276 2 
8 4 277 278 279 280 281 282 0 
8 2 283 284 285 286 287 288 1 
6 2 289 290 291 292 0 
18 1 293 294 295 296 297 298 299 300 301 302 303 304 305 306 307 308 0 
9 25 80 81 82 22 85 84 83 24 
7 2 267 7 258 8 266 2 

POINT_DATA 309
SCALARS DY_raw double
LOOKUP_TABLE default
155.096 154.654 159.529 227.413 158.618 156.665 142.639 137.72 150.229 
132.247 144.611 77.9319 287.675 131.984 194.688 135.841 291.667 162.189 
122.69 110.68 128.1 82.9689 144.257 101.131 199.647 128.449 174.919 
191.993 230.602 193.712 145.307 182.896 194.812 164.373 181.959 148.072 
175.091 175.091 165.707 198.403 174.258 200.638 186.768 182.701 201.784 
206.259 225.854 198.177 127.005 144.763 109.859 149.542 143.082 137.613 
153.164 168.364 174.919 191.098 157.075 144.974 141.754 118.167 134.395 
116.411 117.749 149.954 156.762 124.703 130.064 132.003 119.662 143.666 
143.666 145.684 180.659 153.587 136.819 125.041 123.063 141.958 140.049 
156.929 153.307 178.647 154.997 164.651 118.253 86.3117 89.8203 77.7357 
69.9838 74.6017 79.3129 80.8851 90.2167 87.1191 98.2419 94.2729 81.7539 
81.7546 113.795 88.0035 110.363 104.786 92.8199 82.2059 65.5857 63.2334 
76.0366 80.3003 81.2662 88.9486 99.1439 100.88 87.8678 97.6904 110.274 
119.912 100.595 143.93 107.863 102.946 109.028 102.962 115.859 105.537 
103.102 79.6682 75.5045 77.3179 95.0759 103.031 111.025 121.771 111.989 
114.517 114.517 114.671 134.727 153.403 145.572 154.205 154.205 173.63 
163.694 163.694 148.004 143.597 143.883 173.101 185.084 185.805 186.34 
189.329 175.175 161.665 216.243 165.117 180.651 193.62 203.323 191.222 
195.54 146.597 146.597 145.923 147.546 162.41 163.784 178.239 178.239 
229.658 237.969 213.29 183.71 177.702 177.702 174.571 174.571 176.066 
160.978 160.978 155.52 138.135 129.026 135.841 131.451 126.491 125.419 
128.185 129.198 124.117 120.32 116.71 116.602 119.348 118.718 122.54 
125.798 125.798 145.377 145.928 145.928 163.782 155.597 166.031 151.862 
151.862 128.509 118.925 103.194 109.45 109.45 124.763 102.778 102.411 
113.77 125.452 125.452 133.96 139.03 139.03 136.264 119.09 105.738 
95.0375 83.294 86.5918 84.5511 113.645 120.622 120.622 127.303 142.555 
167.693 167.693 99.6036 113.035 127.943 154.139 125.636 138.451 147.502 
137.928 136.118 152.521 154.027 150.87 158.984 140.452 162.406 147.187 
157.42 164.021 148.875 150.46 142.699 148.538 150.351 137.337 138.007 
162.306 193.884 219.205 152.195 166.782 148.973 141.094 135.669 149.455 
145.741 152.127 151.149 135.906 144.539 151.908 161.566 161.634 160.949 
159.289 153.416 156.255 167.678 178.864 155.976 152.268 140.146 132.987 
147.859 174.344 154.867 164.637 158.697 171.133 204.043 201.14 196.795 
183.009 173.11 167.251 172.831 181.484 181.484 182.794 192.274 184.702 
164.692 151.616 139.529 
FIELD FieldData 7
DY_minmax 1 309 double
0.40214 0.400207 0.421548 0.71872 0.417558 0.409012 0.347609 0.326075 0.380834 
0.302117 0.356243 0.0643448 0.982524 0.300967 0.575461 0.317849 1 0.433194 
0.260281 0.207706 0.283962 0.0863951 0.354694 0.165904 0.597172 0.285491 0.488918 
0.563662 0.732679 0.571189 0.35929 0.523838 0.576004 0.442752 0.519739 0.371391 
0.489671 0.489671 0.448595 0.591723 0.486026 0.601509 0.54079 0.522986 0.606523 
0.626117 0.711895 0.590737 0.279168 0.356908 0.204109 0.377829 0.349548 0.325605 
0.393686 0.460226 0.488918 0.559746 0.410807 0.35783 0.343734 0.240482 0.311521 
0.232791 0.23865 0.379634 0.409436 0.269093 0.292559 0.301049 0.247024 0.352106 
0.352106 0.360938 0.514048 0.395535 0.322133 0.27057 0.261912 0.344626 0.336271 
0.410164 0.394309 0.505239 0.401707 0.44397 0.240854 0.101029 0.116388 0.0634862 
0.0295508 0.0497665 0.0703906 0.0772731 0.118123 0.104563 0.153255 0.13588 0.0810763 
0.0810792 0.221342 0.108435 0.206318 0.181903 0.129519 0.0830547 0.0102976 0 
0.056048 0.0747129 0.078941 0.112572 0.157203 0.164801 0.107841 0.15084 0.205927 
0.24812 0.163555 0.353261 0.195374 0.173848 0.200474 0.173917 0.230376 0.185192 
0.174531 0.0719459 0.0537185 0.0616568 0.139395 0.17422 0.209214 0.256255 0.213437 
0.224501 0.224501 0.225177 0.312972 0.394729 0.360449 0.398242 0.398242 0.483279 
0.439779 0.439779 0.371095 0.351803 0.353055 0.480962 0.53342 0.536573 0.538917 
0.552002 0.490041 0.430898 0.669819 0.44601 0.514013 0.570786 0.613263 0.560287 
0.579193 0.364938 0.364938 0.361984 0.369092 0.43416 0.440173 0.503456 0.503456 
0.728548 0.764929 0.656892 0.527405 0.501104 0.501104 0.487397 0.487397 0.493941 
0.427891 0.427891 0.403998 0.32789 0.288017 0.317849 0.298632 0.276918 0.272224 
0.284336 0.28877 0.266525 0.249903 0.234102 0.23363 0.245648 0.242891 0.259625 
0.273886 0.273886 0.359595 0.362007 0.362007 0.440167 0.404333 0.450011 0.387984 
0.387984 0.285754 0.243796 0.174934 0.202318 0.202318 0.269355 0.173112 0.171506 
0.22123 0.272373 0.272373 0.309617 0.33181 0.33181 0.319701 0.24452 0.18607 
0.139227 0.0878181 0.102255 0.0933213 0.220685 0.251227 0.251227 0.280474 0.347243 
0.457285 0.457285 0.159216 0.218013 0.283276 0.397951 0.273178 0.329276 0.3689 
0.326986 0.319062 0.39087 0.397461 0.383642 0.419163 0.338035 0.434144 0.367517 
0.412315 0.441211 0.374908 0.381846 0.347872 0.373431 0.381372 0.324401 0.327334 
0.433703 0.571941 0.682787 0.389442 0.453299 0.375336 0.340845 0.317099 0.377448 
0.361191 0.389145 0.384862 0.318134 0.355928 0.388187 0.430466 0.430762 0.427765 
0.420497 0.394787 0.407215 0.457221 0.506188 0.405996 0.389762 0.336695 0.305354 
0.37046 0.486401 0.40114 0.443911 0.417905 0.472346 0.616413 0.603706 0.584684 
0.524335 0.481 0.455354 0.47978 0.517658 0.517658 0.523393 0.564895 0.531746 
0.444151 0.386909 0.333994 
WidthEq 1 309 double
2.52562 3.25548 3.83104 1 3.96389 1.73754 3.59672 3.9529 4.19536 
4.22893 4.9773 6.4132 1.95486 4.55716 2.7158 3.41424 2.07069 4.35783 
2.86154 7.98627 4.91354 4.98889 6.22889 5.438 3.71041 7.10611 3.81619 
2.16692 3.48984 4.70664 3.53439 3.21333 3.11327 3.18163 2.87423 3.01066 
2.80588 2.80588 3.19607 2.94902 3.22346 3.06827 3.35895 3.76021 3.94241 
3.99847 3.4688 3.97882 5.84516 5.41611 6.0661 5.45627 5.22276 5.22854 
4.47521 3.69189 3.81619 3.48671 4.04457 4.08697 3.93988 4.23816 4.0143 
4.27515 4.07607 3.53016 3.59917 4.34033 4.90101 5.25422 5.60657 5.84378 
5.84378 5.88784 5.28953 5.97768 6.72166 7.41754 7.59152 7.02571 5.92381 
5.52202 5.65104 4.64398 5.69918 5.69193 5.09818 7.16059 7.16055 7.94143 
7.92845 7.65121 7.45595 6.53807 6.41581 5.65218 4.77101 5.20991 5.4476 
5.15632 4.91675 5.65788 5.21471 5.76529 6.50101 6.56782 6.68931 6.18381 
5.46648 5.23912 5.09785 4.68679 4.4934 4.83005 5.1241 4.91443 4.11659 
3.4769 7.74804 4.8305 7.85932 8.27047 7.83275 7.58741 7.27464 7.84313 
8.48599 9.15412 9.01103 7.504 6.15659 6.41121 5.32884 5.09395 5.32615 
5.208 5.208 5.5123 5.17606 4.6369 4.98141 4.58735 4.58735 3.67293 
4.01056 4.01056 4.26355 4.51586 4.87155 4.31657 4.1183 3.62716 3.81884 
3.48886 2.90825 4.06268 3.32827 2.94084 2.46488 2.44103 2.13164 2.19642 
2.08884 2.76153 2.76153 3.04992 3.14351 3.08813 3.06937 2.92086 2.92086 
2.5788 2.56615 2.77146 3.15335 3.06998 3.06998 3.38173 3.38173 3.50001 
3.62927 3.62927 3.66951 4.04246 4.0547 3.41424 3.9955 4.05629 3.90965 
3.81021 3.54961 3.51075 3.14448 3.06351 3.29576 3.31488 3.41745 3.39825 
3.35866 3.35866 2.86292 2.62063 2.62063 2.07448 2.14422 2.0556 2.27564 
2.27564 2.62303 2.67592 2.83013 2.63393 2.63393 2.50878 2.81678 2.79953 
2.86028 2.78969 2.78969 2.69269 2.64988 2.64988 2.63829 2.72796 2.85397 
3.18078 3.85542 4.91297 5.71622 4.28186 4.28133 4.28133 4.46048 4.46496 
3.90705 3.90705 5.88666 5.57565 4.50194 3.6357 3.78356 3.21682 3.15624 
3.27021 3.61182 3.50497 4.31433 3.79898 3.45269 4.11773 3.57223 3.82897 
3.45676 3.5339 3.70105 3.55612 3.99998 4.20859 3.92935 3.8876 3.8238 
3.63717 2.96952 2.02753 3.92341 3.5525 4.23019 4.32764 4.06048 3.27712 
3.95929 3.34617 3.35956 3.63989 3.62997 3.28542 3.89724 3.54241 2.90174 
3.01322 2.82541 2.59072 2.46069 3.89309 4.01133 3.6914 3.54383 3.43503 
3.29478 2.96175 3.0496 2.86097 2.62698 2.86691 2.12575 1.9754 1.90632 
2.25062 2.20122 2.56944 2.40873 2.13282 2.13282 1.99587 1.89496 1.84585 
2.04966 2.22966 2.55813 
rRFP 1 309 double
2865 3044.38 3185.84 2490.04 3218.49 2671.31 3128.25 3215.79 3275.38 
3283.63 3467.56 3820.47 2724.72 3364.3 2911.74 3083.4 2753.19 3315.31 
2947.56 4207.09 3451.89 3470.41 3775.17 3580.79 3156.19 3990.77 3182.19 
2776.84 3101.98 3401.04 3112.93 3034.02 3009.43 3026.23 2950.68 2984.21 
2933.88 2933.88 3029.78 2969.06 3036.51 2998.37 3069.81 3168.43 3213.21 
3226.99 3096.81 3222.16 3680.86 3575.41 3735.16 3585.28 3527.89 3529.31 
3344.16 3151.64 3182.19 3101.21 3238.32 3248.74 3212.59 3285.9 3230.88 
3294.99 3246.06 3111.89 3128.85 3311.01 3448.81 3535.62 3622.22 3680.52 
3680.52 3691.35 3544.3 3713.43 3896.28 4067.31 4110.07 3971.01 3700.19 
3601.44 3633.15 3385.64 3644.98 3643.2 3497.27 4004.16 4004.15 4196.07 
4192.88 4124.74 4076.75 3851.16 3821.11 3633.43 3416.86 3524.73 3583.15 
3511.56 3452.68 3634.83 3525.91 3661.23 3842.05 3858.47 3888.33 3764.09 
3587.79 3531.91 3497.19 3396.16 3348.63 3431.37 3503.64 3452.11 3256.02 
3098.8 4148.54 3431.48 4175.89 4276.94 4169.36 4109.06 4032.19 4171.91 
4329.91 4494.12 4458.95 4088.56 3757.4 3819.98 3553.96 3496.23 3553.3 
3524.26 3524.26 3599.05 3516.41 3383.9 3468.57 3371.72 3371.72 3146.98 
3229.96 3229.96 3292.14 3354.15 3441.57 3305.17 3256.44 3135.73 3182.84 
3101.74 2959.04 3242.77 3062.27 2967.05 2850.07 2844.21 2768.17 2784.09 
2757.65 2922.98 2922.98 2993.86 3016.86 3003.25 2998.64 2962.14 2962.14 
2878.07 2874.96 2925.42 3019.28 2998.79 2998.79 3075.41 3075.41 3104.48 
3136.25 3136.25 3146.14 3237.8 3240.81 3083.4 3226.26 3241.2 3205.16 
3180.72 3116.67 3107.12 3017.1 2997.2 3054.28 3058.98 3084.19 3079.47 
3069.74 3069.74 2947.9 2888.35 2888.35 2754.12 2771.26 2749.48 2803.56 
2803.56 2888.94 2901.94 2939.84 2891.62 2891.62 2860.86 2936.56 2932.32 
2947.25 2929.9 2929.9 2906.06 2895.54 2895.54 2892.69 2914.73 2945.7 
3026.02 3191.83 3451.75 3649.17 3296.64 3296.51 3296.51 3340.54 3341.64 
3204.52 3204.52 3691.06 3614.62 3350.73 3137.83 3174.17 3034.88 3019.99 
3048 3131.96 3105.7 3304.62 3177.96 3092.85 3256.3 3122.23 3185.33 
3093.85 3112.81 3153.89 3118.27 3227.36 3278.63 3210 3199.74 3184.06 
3138.19 2974.1 2742.58 3208.54 3117.38 3283.94 3307.89 3242.23 3049.7 
3217.36 3066.67 3069.96 3138.86 3136.42 3051.74 3202.11 3114.9 2957.44 
2984.84 2938.68 2881 2849.04 3201.09 3230.15 3151.52 3115.25 3088.51 
3054.04 2972.19 2993.78 2947.42 2889.91 2948.88 2766.72 2729.77 2712.79 
2797.41 2785.27 2875.77 2836.27 2768.46 2768.46 2734.8 2710 2697.93 
2748.02 2792.26 2872.99 
rGFP 1 309 double
2750.57 2862.33 2970.02 2586.27 2987.6 2631.07 2871.89 2903.25 2989.12 
2918.12 3078.63 2858.65 2921.22 2960.33 2887.59 2822.65 2962.81 3065.65 
2709.94 3242.78 2988.28 2772.78 3257.42 2908.81 3099.63 3271.63 3026.38 
2774.89 3163.62 3270.59 2872.43 2946.56 2965.36 2881.83 2881.85 2804.65 
2850.14 2850.14 2888.47 2943.95 2920.57 2974.47 2986.2 3045.85 3154.37 
3183.58 3142.3 3147.37 3101.22 3142.91 3025.27 3174.8 3106.14 3078.37 
3044.3 2980.44 3026.38 3025.16 2994.16 2951.36 2917.35 2859.67 2898.36 
2856.53 2838.81 2888.22 2923.07 2900.11 2996.3 3052.43 3029.75 3198.41 
3198.41 3216.62 3314.46 3276.95 3278.51 3286.35 3293.09 3356.21 3188.48 
3225.42 3225.2 3188.49 3242.21 3296.04 2961.73 2976.9 3002.02 2976.19 
2913.72 2929.65 2950.21 2887.69 2937.67 2851.27 2827.57 2850.01 2804.22 
2780.41 2918.36 2856.77 2934.37 2962.98 2962.28 2898.77 2797.58 2749.88 
2774.51 2779.56 2773.14 2775.74 2804.35 2846.11 2809.1 2838.95 2812.81 
2775.78 3138.27 3054.11 3206.59 3210.27 3212.85 3140.07 3201.69 3186.6 
3233.78 3088.15 3039.23 2939.05 2944.2 3019.41 2950.49 2979.15 2955.33 
2955.26 2955.26 2990.96 3056.21 3070.17 3084.01 3066.25 3066.25 2996.59 
3015.36 3015.36 2989.88 3007.32 3059.79 3106.06 3121.09 3032.8 3070.46 
3019.4 2868.31 3015.65 3078.57 2844.44 2804.14 2831.49 2792.27 2778.86 
2767.31 2763.69 2763.69 2803.91 2822.67 2860.4 2861.57 2879.47 2879.47 
2951.1 2969.52 2949.98 2938.16 2904.4 2904.4 2949.21 2949.21 2975.09 
2943.09 2943.09 2929.54 2917.26 2882.02 2822.65 2884.07 2871.94 2849.2 
2847.27 2817.46 2794.6 2737.2 2716.4 2743.15 2754.48 2764.57 2775.28 
2781.37 2781.37 2775.06 2741.28 2741.28 2698.62 2692.49 2700.15 2704.44 
2704.44 2695.94 2677.09 2650.91 2647.14 2647.14 2671.86 2648.36 2645.56 
2684.27 2708.83 2708.83 2719.57 2727.27 2727.27 2718.36 2683.73 2660.63 
2661.15 2679.99 2784.28 2842.17 2845.47 2875.28 2875.28 2926.69 2995.36 
3014.04 3014.04 2945.19 2989.1 2934.85 2919.26 2834.21 2804.23 2824.41 
2809.91 2850.49 2893.44 3023.38 2932.01 2907.78 2937.2 2939.01 2922.43 
2903.02 2938.49 2909.85 2893.91 2929.65 2983.99 2949.64 2892.77 2886.57 
2949.19 2934.6 2803.3 2955.98 2951.35 2989.04 2969.46 2909.74 2848.64 
2935.89 2867.9 2866.65 2853.54 2883.53 2857.94 2988.52 2931.43 2825.89 
2838.83 2792.32 2763.67 2771.46 3055.19 2984.53 2920.94 2855.51 2815.67 
2846.02 2875.22 2831.14 2829.88 2775.75 2849.48 2792.6 2756.19 2734.01 
2770.74 2739.91 2788.6 2775.16 2745.93 2745.93 2723.69 2723.21 2699.79 
2696.42 2696.91 2715.79 
bkstRFP 1 309 double
620.735 800.115 941.575 245.775 974.225 427.045 883.985 971.525 1031.12 
1039.37 1223.3 1576.2 480.455 1120.04 667.475 839.135 508.925 1071.05 
703.295 1962.83 1207.63 1226.15 1530.91 1336.53 911.925 1746.51 937.925 
532.575 857.715 1156.78 868.665 789.755 765.165 781.965 706.415 739.945 
689.615 689.615 785.515 724.795 792.245 754.105 825.545 924.165 968.945 
982.725 852.545 977.895 1436.6 1331.15 1490.9 1341.02 1283.63 1285.05 
1099.9 907.375 937.925 856.945 994.055 1004.47 968.325 1041.64 986.615 
1050.72 1001.8 867.625 884.585 1066.75 1204.55 1291.36 1377.95 1436.26 
1436.26 1447.09 1300.04 1469.17 1652.02 1823.05 1865.8 1726.75 1455.93 
1357.18 1388.89 1141.38 1400.72 1398.93 1253.01 1759.9 1759.89 1951.8 
1948.62 1880.47 1832.49 1606.9 1576.85 1389.17 1172.6 1280.47 1338.89 
1267.3 1208.42 1390.57 1281.65 1416.97 1597.79 1614.2 1644.07 1519.83 
1343.53 1287.65 1252.93 1151.9 1104.37 1187.11 1259.38 1207.85 1011.76 
854.535 1904.28 1187.22 1931.63 2032.67 1925.09 1864.8 1787.93 1927.65 
2085.65 2249.86 2214.68 1844.3 1513.14 1575.72 1309.7 1251.97 1309.04 
1280 1280 1354.79 1272.15 1139.64 1224.31 1127.45 1127.45 902.715 
985.695 985.695 1047.88 1109.89 1197.31 1060.91 1012.18 891.465 938.575 
857.475 714.775 998.505 818.005 722.785 605.805 599.945 523.905 539.825 
513.385 678.715 678.715 749.595 772.595 758.985 754.375 717.875 717.875 
633.805 630.695 681.155 775.015 754.525 754.525 831.145 831.145 860.215 
891.985 891.985 901.875 993.535 996.545 839.135 981.995 996.935 960.895 
936.455 872.405 862.855 772.835 752.935 810.015 814.715 839.925 835.205 
825.475 825.475 703.635 644.085 644.085 509.855 526.995 505.215 559.295 
559.295 644.675 657.675 695.575 647.355 647.355 616.595 692.295 688.055 
702.985 685.635 685.635 661.795 651.275 651.275 648.425 670.465 701.435 
781.755 947.565 1207.49 1404.91 1052.38 1052.25 1052.25 1096.28 1097.38 
960.255 960.255 1446.8 1370.36 1106.47 893.565 929.905 790.615 775.725 
803.735 887.695 861.435 1060.36 933.695 848.585 1012.04 877.965 941.065 
849.585 868.545 909.625 874.005 983.095 1034.37 965.735 955.475 939.795 
893.925 729.835 498.315 964.275 873.115 1039.68 1063.63 997.965 805.435 
973.095 822.405 825.695 894.595 892.155 807.475 957.845 870.635 713.175 
740.575 694.415 636.735 604.775 956.825 985.885 907.255 870.985 844.245 
809.775 727.925 749.515 703.155 645.645 704.615 522.455 485.505 468.525 
553.145 541.005 631.505 592.005 524.195 524.195 490.535 465.735 453.665 
503.755 547.995 628.725 
bkstGFP 1 309 double
391.713 503.473 611.163 227.413 628.743 272.213 513.033 544.393 630.263 
559.263 719.773 499.793 562.363 601.473 528.733 463.793 603.953 706.793 
351.083 883.923 629.423 413.923 898.563 549.953 740.773 912.773 667.523 
416.033 804.763 911.733 513.573 587.703 606.503 522.973 522.993 445.793 
491.283 491.283 529.613 585.093 561.713 615.613 627.343 686.993 795.513 
824.723 783.443 788.513 742.363 784.053 666.413 815.943 747.283 719.513 
685.443 621.583 667.523 666.303 635.303 592.503 558.493 500.813 539.503 
497.673 479.953 529.363 564.213 541.253 637.443 693.573 670.893 839.553 
839.553 857.763 955.603 918.093 919.653 927.493 934.233 997.353 829.623 
866.563 866.343 829.633 883.353 937.183 602.873 618.043 643.163 617.333 
554.863 570.793 591.353 528.833 578.813 492.413 468.713 491.153 445.363 
421.553 559.503 497.913 575.513 604.123 603.423 539.913 438.723 391.023 
415.653 420.703 414.283 416.883 445.493 487.253 450.243 480.093 453.953 
416.923 779.413 695.253 847.733 851.413 853.993 781.213 842.833 827.743 
874.923 729.293 680.373 580.193 585.343 660.553 591.633 620.293 596.473 
596.403 596.403 632.103 697.353 711.313 725.153 707.393 707.393 637.733 
656.503 656.503 631.023 648.463 700.933 747.203 762.233 673.943 711.603 
660.543 509.453 656.793 719.713 485.583 445.283 472.633 433.413 420.003 
408.453 404.833 404.833 445.053 463.813 501.543 502.713 520.613 520.613 
592.243 610.663 591.123 579.303 545.543 545.543 590.353 590.353 616.233 
584.233 584.233 570.683 558.403 523.163 463.793 525.213 513.083 490.343 
488.413 458.603 435.743 378.343 357.543 384.293 395.623 405.713 416.423 
422.513 422.513 416.203 382.423 382.423 339.763 333.633 341.293 345.583 
345.583 337.083 318.233 292.053 288.283 288.283 313.003 289.503 286.703 
325.413 349.973 349.973 360.713 368.413 368.413 359.503 324.873 301.773 
302.293 321.133 425.423 483.313 486.613 516.423 516.423 567.833 636.503 
655.183 655.183 586.333 630.243 575.993 560.403 475.353 445.373 465.553 
451.053 491.633 534.583 664.523 573.153 548.923 578.343 580.153 563.573 
544.163 579.633 550.993 535.053 570.793 625.133 590.783 533.913 527.713 
590.333 575.743 444.443 597.123 592.493 630.183 610.603 550.883 489.783 
577.033 509.043 507.793 494.683 524.673 499.083 629.663 572.573 467.033 
479.973 433.463 404.813 412.603 696.333 625.673 562.083 496.653 456.813 
487.163 516.363 472.283 471.023 416.893 490.623 433.743 397.333 375.153 
411.883 381.053 429.743 416.303 387.073 387.073 364.833 364.353 340.933 
337.563 338.053 356.933 
tubeWidth 1 309 double
0.201017 0.0944256 0.189647 0.00628742 0.123407 0.133779 0.197579 0.163974 0.0979019 
0.213994 0.195214 0.262851 0.127123 0.223324 0.139877 0.0988633 0.0215351 0.248121 
0.218055 0.131422 0.125495 0.113033 0.242208 0.230185 0.135591 0.194302 0.188162 
0.218568 0.0858285 0.198995 0.240366 0.233974 0.209729 0.171224 0.137468 0.137471 
0.125219 0.132752 0.133803 0.148591 0.172163 0.195853 0.222283 0.219383 0.236431 
0.228133 0.204322 0.23824 0.237909 0.287318 0.224339 0.21624 0.228418 0.243045 
0.220862 0.141105 0.147168 0.151205 0.149374 0.163318 0.20882 0.250328 0.252144 
0.222862 0.21641 0.201835 0.163398 0.188045 0.246306 0.238349 0.226456 0.204328 
0.114179 0.102933 0.110486 0.12836 0.19362 0.210051 0.228154 0.225545 0.238053 
0.199439 0.217401 0.225354 0.268025 0.25396 0.266686 0.285034 0.298386 0.270591 
0.225464 0.266142 0.235567 0.266349 0.231033 0.253544 0.258268 0.227763 0.228391 
0.265293 0.251689 0.27303 0.261578 0.255262 0.262565 0.260587 0.286271 0.275125 
0.228504 0.231467 0.229446 0.214546 0.223117 0.213709 0.215361 0.247664 0.153677 
0.233983 0.240031 0.22522 0.301899 0.342547 0.23361 0.149069 0.177833 0.0772306 
0.206525 0.229348 0.204082 0.229368 0.256775 0.21861 0.187395 0.252051 0.20626 
0.225272 0.228313 0.255547 0.267103 0.237478 0.218575 0.219679 0.212593 0.172457 
0.149304 0.189925 0.203637 0.193194 0.192534 0.222469 0.196691 0.219066 0.23266 
0.258514 0.239468 0.11484 0.183276 0.166553 0.170921 0.140803 0.177784 0.189141 
0.127564 0.134553 0.192171 0.242725 0.248699 0.244883 0.234175 0.185589 0.149215 
0.151617 0.161919 0.207733 0.255291 0.220609 0.211635 0.222483 0.231004 0.217783 
0.212911 0.209414 0.224577 0.270776 0.248222 0.205519 0.206387 0.201307 0.190999 
0.167652 0.157702 0.188106 0.209189 0.186938 0.18981 0.21959 0.24781 0.255188 
0.25716 0.232869 0.172694 0.155433 0.13468 0.10736 0.107443 0.13263 0.18674 
0.164151 0.173832 0.176478 0.166433 0.114827 0.138995 0.153892 0.219185 0.22461 
0.195503 0.179758 0.164872 0.174468 0.219351 0.203887 0.196514 0.198349 0.189645 
0.214448 0.19112 0.25477 0.253084 0.182697 0.159042 0.186388 0.220645 0.26309 
0.249991 0.21015 0.266022 0.246269 0.142567 0.14899 0.198053 0.189293 0.204968 
0.192308 0.195035 0.213449 0.173527 0.19653 0.202769 0.213071 0.197867 0.252706 
0.245456 0.20511 0.23285 0.165038 0.0828868 0.123026 0.162266 0.151138 0.193347 