# vtk DataFile Version 3.0
vtk output
ASCII
DATASET POLYDATA
POINTS 423 float
6.83268 -1.63681 2.98779 7.32858 -1.78612 2.54701 7.34777 -0.356695 2.72643 
6.34255 0.650484 2.97004 7.12839 -1.45627 2.0087 7.58736 -0.136406 2.17098 
6.26421 -0.829014 1.94643 5.24578 -0.296483 2.06144 6.09901 -0.639742 1.49395 
7.17945 -1.08241 1.28216 7.38983 -1.02743 0.681226 6.26273 -0.2679 0.439993 
6.12385 0.0454996 0.520719 6.06152 0.313667 0.384148 5.17589 1.19812 0.597987 
1.68812 -1.25196 -0.162599 5.93471 0.916527 0.33616 4.96028 1.35649 0.0543741 
3.37229 -0.298773 -0.341009 3.04531 0.37556 -0.0990259 1.51641 -0.734612 -0.580363 
2.22892 0.99963 -0.0917227 5.74778 0.91098 -0.188746 5.24865 1.22127 -0.153598 
3.10205 -0.381643 -0.509207 1.33409 1.50592 -0.0493817 1.31052 -0.0714465 -0.687219 
0.924639 -0.0910129 -0.699596 0.181194 0.5987 -0.534335 6.38313 0.540861 -0.581604 
3.52686 -0.433588 -0.925702 0.283652 0.60012 -0.738297 -0.216286 0.911328 -1.08288 
0.491851 -1.33538 -2.08422 0.326301 -1.19209 -2.18836 0.0178333 1.07948 -1.44532 
-0.688163 1.20266 -1.63928 2.12299 -1.35597 -2.45809 3.63395 1.52063 -1.8455 
3.42169 1.56102 -2.25509 0.182999 -0.778523 -2.97877 2.99614 1.89352 -2.59182 
-0.218902 1.28725 -2.84662 2.87871 1.94972 -2.7872 -0.673028 0.736986 -3.21536 
-0.579956 1.28506 -3.27192 2.69017 0.0462948 -3.92845 2.76611 0.718519 -4.1592 
0.913725 1.7919 -4.54344 0.846006 1.77637 -4.51885 0.788807 1.77666 -4.47434 
0.731406 1.77502 -4.42268 0.663231 1.75553 -4.38382 0.594806 1.74029 -4.36684 
0.532803 1.73819 -4.35381 0.463464 1.72131 -4.33731 0.389469 1.68978 -4.29419 
0.318765 1.65947 -4.22762 0.255398 1.63768 -4.13552 0.189595 1.60971 -4.03747 
0.12899 1.58268 -3.91601 0.0788607 1.54934 -3.77292 0.055506 1.52689 -3.59542 
0.0103831 1.49317 -3.40624 -0.0603409 1.43225 -3.21745 -0.139093 1.36059 -3.03179 
2.77206 0.628736 -4.0835 2.75826 0.557427 -4.03408 2.74366 0.494679 -4.01306 
2.74101 0.427725 -4.00052 2.72612 0.363098 -3.97235 2.71102 0.296537 -3.93702 
2.70796 0.225723 -3.91018 2.69377 0.166838 -3.90346 2.68159 0.110974 -3.91122 
-0.60396 1.23742 -3.28547 -0.617735 1.18443 -3.30018 -0.61116 1.11876 -3.31005 
-0.613797 1.05383 -3.30464 -0.652471 1.00164 -3.27378 -0.686701 0.945085 -3.23629 
-0.70311 0.881252 -3.20795 -0.693527 0.809936 -3.20392 2.93207 1.91275 -2.69589 
3.02325 1.86408 -2.76786 3.05004 1.8247 -2.90056 3.08083 1.77998 -2.97317 
3.12275 1.74278 -2.98204 3.16948 1.70797 -2.95941 3.21636 1.66716 -2.9077 
3.26349 1.62234 -2.83404 3.31373 1.5808 -2.72871 3.3656 1.56193 -2.59417 
3.3986 1.55987 -2.4326 3.06037 1.87613 -2.49491 3.11261 1.83559 -2.39692 
3.1603 1.78841 -2.30853 3.21178 1.75432 -2.2472 3.26746 1.73564 -2.21997 
3.31327 1.70388 -2.21957 3.36324 1.68117 -2.22429 3.39717 1.62957 -2.23727 
0.219377 -0.84346 -2.88782 0.235285 -0.931871 -2.77052 0.237542 -1.02455 -2.60873 
0.269381 -1.11038 -2.40841 3.48118 1.56351 -2.15295 3.52781 1.56857 -2.0428 
3.58234 1.55657 -1.93704 2.13275 -1.32124 -2.37168 2.11995 -1.2788 -2.26846 
2.09591 -1.23862 -2.13548 2.06956 -1.20335 -1.98086 2.04287 -1.17005 -1.8191 
2.01592 -1.13251 -1.67923 1.98503 -1.0958 -1.57041 1.94674 -1.06771 -1.48714 
1.9113 -1.03137 -1.41692 1.87378 -0.995646 -1.36228 1.8438 -0.943201 -1.31826 
1.81381 -0.890764 -1.27424 1.77629 -0.85503 -1.2196 1.741 -0.816853 -1.15655 
1.70242 -0.784603 -1.0952 1.66695 -0.747177 -1.02981 1.62632 -0.725574 -0.930454 
1.58124 -0.71593 -0.775619 -0.640476 1.16958 -1.61616 -0.593344 1.1308 -1.57157 
-0.545962 1.08776 -1.50509 -0.494229 1.04944 -1.42188 -0.434048 1.02946 -1.34881 
-0.375078 1.01044 -1.29087 -0.309689 1.00454 -1.23689 -0.251274 0.981384 -1.16473 
0.389852 -1.25719 -2.13763 0.443107 -1.30231 -2.10225 -0.0602064 1.02343 -1.32451 
-0.138246 0.967377 -1.20369 0.299275 -1.15992 -1.91434 0.281491 -1.14142 -1.67957 
0.280015 -1.12513 -1.50123 0.276871 -1.09716 -1.36584 0.289937 -1.06621 -1.27267 
0.312622 -1.03213 -1.2091 0.336115 -0.99033 -1.17411 0.351188 -0.942091 -1.1453 
0.354225 -0.889595 -1.10801 0.377297 -0.853684 -1.0516 0.415243 -0.825554 -0.996871 
0.435898 -0.78227 -0.961569 0.466946 -0.7322 -0.97019 0.478991 -0.66812 -0.990921 
0.498294 -0.611908 -0.998215 0.532695 -0.573774 -0.971593 0.581769 -0.545353 -0.939491 
0.618179 -0.504197 -0.927343 0.64659 -0.450711 -0.942794 0.673396 -0.396386 -0.958064 
0.699393 -0.349785 -0.944739 0.726088 -0.311697 -0.902991 0.760084 -0.277426 -0.862068 
0.801044 -0.238649 -0.850434 0.824712 -0.184718 -0.85823 0.865875 -0.144012 -0.853737 
0.899466 -0.113602 -0.798522 -0.191412 0.802692 -0.911952 -0.154248 0.719326 -0.749198 
-0.109649 0.657186 -0.618882 -0.0581697 0.616834 -0.528536 0.00297646 0.606429 -0.491244 
0.0626997 0.601292 -0.490941 0.125516 0.606426 -0.5108 0.348688 0.590453 -0.669981 
0.402902 0.569127 -0.643504 0.452313 0.545414 -0.64851 0.499745 0.516574 -0.64729 
0.541768 0.473287 -0.627089 0.575592 0.413666 -0.603855 0.612255 0.362294 -0.593669 
0.646888 0.310397 -0.599029 0.689668 0.274741 -0.607449 0.736145 0.244176 -0.606711 
0.778318 0.202728 -0.593688 0.811893 0.141094 -0.563337 0.846983 0.0821872 -0.532195 
0.874841 0.0165206 -0.533798 0.899561 -0.042268 -0.595029 3.50059 -0.395717 -0.780615 
3.47258 -0.358349 -0.635703 3.43384 -0.324673 -0.489543 6.33362 0.556564 -0.540382 
6.28498 0.580086 -0.527738 6.2382 0.614806 -0.550387 6.19713 0.667653 -0.606349 
6.16326 0.733445 -0.658621 6.1227 0.784077 -0.699821 6.08134 0.826984 -0.712427 
6.04564 0.875397 -0.70036 6.0019 0.903049 -0.663425 5.95143 0.910207 -0.590001 
5.8935 0.899246 -0.479467 5.82276 0.883973 -0.34359 0.991345 -0.085138 -0.688442 
1.04692 -0.100871 -0.675772 1.10248 -0.117435 -0.659482 1.17068 -0.107304 -0.654815 
1.24505 -0.0821422 -0.665103 1.343 -0.123299 -0.711819 1.36507 -0.197046 -0.727281 
1.38713 -0.271582 -0.739112 1.4094 -0.346531 -0.747215 1.43137 -0.425043 -0.742217 
1.45336 -0.512417 -0.708908 1.4797 -0.613848 -0.651129 4.97146 1.41869 -0.217117 
5.00941 1.4504 -0.413188 5.05789 1.44852 -0.502892 5.10499 1.41749 -0.493568 
5.14682 1.36097 -0.420658 5.18729 1.28352 -0.302275 5.32318 1.21666 -0.285784 
5.37183 1.19301 -0.390574 5.41772 1.17165 -0.451342 5.46601 1.15099 -0.48114 
5.51319 1.12013 -0.472783 5.55556 1.07177 -0.427085 5.59629 1.00945 -0.350656 
5.66166 0.966497 -0.264463 5.80197 0.961974 -0.0851596 5.85626 0.977173 0.0317744 
5.89549 0.965233 0.175498 1.40216 1.51739 -0.0520344 1.46412 1.5194 -0.0650826 
1.53275 1.53657 -0.0892057 1.60052 1.55219 -0.11377 1.65746 1.54988 -0.151163 
1.71335 1.5441 -0.181847 1.7752 1.54749 -0.202204 1.8282 1.52868 -0.198108 
1.87098 1.48519 -0.170272 1.90536 1.42344 -0.132241 1.94697 1.37629 -0.097748 
1.99305 1.34187 -0.0827176 2.03562 1.30428 -0.0839874 2.07041 1.25423 -0.0965224 
2.10675 1.20629 -0.105883 2.13658 1.14244 -0.112049 2.17197 1.06985 -0.10763 
2.23944 0.914424 -0.147704 2.23931 0.852407 -0.187486 2.25729 0.797206 -0.212126 
2.2917 0.749331 -0.218965 2.32493 0.691987 -0.210489 2.36189 0.636451 -0.178395 
2.40179 0.584638 -0.137522 2.46086 0.568925 -0.0940443 2.52058 0.559098 -0.0719826 
2.56255 0.520416 -0.0735648 2.60554 0.485125 -0.0818809 2.64852 0.449834 -0.090197 
2.69074 0.413177 -0.0989035 2.75194 0.410686 -0.0978438 2.81703 0.415219 -0.0947764 
2.86735 0.393143 -0.099315 2.91063 0.358394 -0.107476 2.97289 0.357821 -0.105868 
3.16172 -0.378405 -0.409413 3.21152 -0.359121 -0.343947 3.28145 -0.332481 -0.327103 
3.3644 -0.188466 -0.377952 3.3663 -0.109163 -0.402536 3.34827 -0.0477895 -0.406933 
3.30915 -0.00837974 -0.402514 3.26824 0.0304145 -0.393193 3.23821 0.0890317 -0.378209 
3.20899 0.149108 -0.362809 3.17268 0.196418 -0.351057 3.13865 0.246275 -0.330874 
3.10158 0.285955 -0.290501 3.0715 0.330384 -0.210277 4.86996 1.42684 -0.0489268 
4.80652 1.47471 -0.113012 4.74926 1.49055 -0.116489 4.67953 1.46415 -0.0580527 
4.60286 1.41369 0.0489597 4.52456 1.35382 0.184087 4.44791 1.29297 0.318996 
4.38198 1.22855 0.445567 4.34043 1.15546 0.555129 4.3114 1.07989 0.64903 
4.29328 1.00269 0.727452 4.28871 0.918403 0.804343 4.2721 0.836346 0.896842 
4.25708 0.751645 0.996351 4.26604 0.658414 1.09422 4.29508 0.5787 1.18866 
4.34085 0.523593 1.29787 4.37872 0.452463 1.41022 4.42459 0.395736 1.52669 
4.48103 0.361184 1.63409 4.52724 0.314492 1.70722 4.56254 0.254395 1.74571 
4.60577 0.214855 1.75928 4.65857 0.194107 1.77053 4.71911 0.185739 1.79301 
4.7711 0.157269 1.83284 4.81322 0.107895 1.8821 4.84628 0.0406434 1.93395 
4.88173 -0.0223164 1.98704 4.91515 -0.0857978 2.02456 4.95738 -0.127153 2.03761 
5.00537 -0.150288 2.01738 5.05442 -0.169945 1.99042 5.10292 -0.195303 1.98494 
5.1506 -0.228386 2.00806 5.19809 -0.2634 2.03833 5.22952 1.19036 0.111274 
5.20404 1.18655 0.362829 5.7872 0.744729 -0.01378 5.8249 0.63784 0.123443 
5.8581 0.561947 0.195993 5.89981 0.515527 0.226851 5.94568 0.47917 0.249032 
5.9873 0.432023 0.283524 6.02137 0.368162 0.328646 2.31813 1.0074 -0.0205827 
2.39092 1.00695 0.0274185 2.44552 0.987009 0.0440419 2.49024 0.953728 0.0414371 
2.53256 0.917249 0.0327815 2.59381 0.914851 0.0338679 2.65976 0.920928 0.0373766 
2.71473 0.907232 0.0352335 2.76419 0.883604 0.0302512 2.81273 0.858338 0.0248009 
2.86118 0.832886 0.0192973 2.90872 0.805798 0.0133258 2.95064 0.768598 0.00446401 
2.97981 0.708429 -0.0109634 3.00337 0.638149 -0.0292809 3.02592 0.566282 -0.0480555 
3.04672 0.495213 -0.0666644 3.05709 0.429593 -0.0840964 1.53354 -0.878387 -0.444734 
1.55051 -0.994227 -0.337384 1.56009 -1.08648 -0.264804 1.55893 -1.15945 -0.218022 
1.582 -1.21559 -0.186484 1.6344 -1.23465 -0.167123 5.03359 1.26115 0.279391 
5.10484 1.21456 0.462256 5.23343 1.19971 0.707502 5.26982 1.20625 0.840793 
5.30399 1.20784 0.995707 5.35009 1.20523 1.14215 5.38477 1.21266 1.27562 
5.42015 1.22584 1.38765 5.46889 1.23204 1.49816 5.51318 1.24259 1.60205 
5.56183 1.24884 1.71257 5.5958 1.26479 1.81763 5.62252 1.28441 1.92347 
5.65764 1.3016 2.01355 5.71117 1.29827 2.09092 5.76329 1.26794 2.16095 
5.81493 1.22967 2.24419 5.86752 1.18819 2.34961 5.90453 1.11551 2.46151 
5.93927 1.03874 2.57225 5.97112 0.959904 2.66699 6.01172 0.903101 2.73723 
6.0579 0.862589 2.78132 6.10553 0.829413 2.80441 6.15322 0.796331 2.82753 
6.2005 0.759387 2.86494 6.24758 0.72051 2.90951 6.29486 0.683566 2.94692 
6.14726 -0.0187863 0.473312 6.17092 -0.0810476 0.418782 6.19508 -0.145535 0.379021 
6.2236 -0.211582 0.385013 6.31386 -0.268155 0.341583 6.36418 -0.276136 0.271777 
6.41344 -0.293864 0.237679 6.46123 -0.318928 0.224583 6.50391 -0.356329 0.223367 
6.5391 -0.410356 0.232794 6.58168 -0.455773 0.267781 6.63346 -0.486177 0.314773 
6.69324 -0.502176 0.365873 6.74614 -0.529009 0.406172 6.79418 -0.566153 0.451227 
6.84201 -0.605229 0.503433 6.89426 -0.637942 0.565161 6.95256 -0.661294 0.637257 
6.99888 -0.707802 0.710448 7.03377 -0.778034 0.792243 7.07853 -0.832065 0.886382 
7.12884 -0.880775 1.00513 7.15953 -0.969538 1.13554 6.21531 -0.315495 0.633039 
6.17725 -0.395542 0.825263 6.13983 -0.481755 1.03119 6.10146 -0.555005 1.26361 
7.3385 -1.02911 0.786778 7.28636 -1.03851 0.920933 7.23321 -1.05756 1.09082 
7.13254 -1.1579 1.46768 7.12751 -1.24072 1.65241 7.1227 -1.34034 1.83261 
6.15856 -0.713492 1.69831 6.21614 -0.775438 1.8444 7.5075 -0.209835 2.35613 
7.42763 -0.283265 2.54128 7.174 -1.50875 2.10327 7.21815 -1.56858 2.21886 
7.25718 -1.64073 2.34631 7.28944 -1.72197 2.45577 7.05606 -1.51612 2.19774 
6.99558 -1.55465 2.39286 6.94065 -1.58316 2.59085 6.88664 -1.61003 2.78931 

LINES 40 496
19 48 49 50 51 52 53 54 55 56 57 58 59 60 61 62 63 64 65 42 
11 47 66 67 68 69 70 71 72 73 74 46 
10 45 75 76 77 78 79 80 81 82 44 
3 43 83 41 
12 41 84 85 86 87 88 89 90 91 92 93 39 
10 41 94 95 96 97 98 99 100 101 39 
6 40 102 103 104 105 34 
5 39 106 107 108 38 
20 37 109 110 111 112 113 114 115 116 117 118 119 120 121 122 123 124 125 126 20 
10 36 127 128 129 130 131 132 133 134 32 
4 34 135 136 33 
4 35 137 138 32 
29 34 139 140 141 142 143 144 145 146 147 148 149 150 151 152 153 154 155 156 157 158 159 160 161 162 163 164 165 27 
9 32 166 167 168 169 170 171 172 28 
17 31 173 174 175 176 177 178 179 180 181 182 183 184 185 186 187 27 
5 30 188 189 190 18 
14 29 191 192 193 194 195 196 197 198 199 200 201 202 22 
8 17 215 216 217 218 219 220 23 
10 23 221 222 223 224 225 226 227 228 22 
5 22 229 230 231 16 
19 25 232 233 234 235 236 237 238 239 240 241 242 243 244 245 246 247 248 21 
20 21 249 250 251 252 253 254 255 256 257 258 259 260 261 262 263 264 265 266 19 
5 24 267 268 269 18 
13 18 270 271 272 273 274 275 276 277 278 279 280 19 
38 17 281 282 283 284 285 286 287 288 289 290 291 292 293 294 295 296 297 298 299 300 301 302 303 304 305 306 307 308 309 310 311 312 313 314 315 316 7 
4 23 317 318 14 
9 22 319 320 321 322 323 324 325 13 
20 21 326 327 328 329 330 331 332 333 334 335 336 337 338 339 340 341 342 343 19 
8 20 344 345 346 347 348 349 15 
4 17 350 351 14 
28 14 352 353 354 355 356 357 358 359 360 361 362 363 364 365 366 367 368 369 370 371 372 373 374 375 376 377 3 
6 12 378 379 380 381 11 
21 11 382 383 384 385 386 387 388 389 390 391 392 393 394 395 396 397 398 399 400 9 
5 10 405 406 407 9 
5 9 408 409 410 4 
4 5 413 414 2 
6 4 415 416 417 418 1 
6 4 419 420 421 422 0 
15 27 203 204 205 206 207 26 208 209 210 211 212 213 214 20 
9 11 401 402 403 404 8 411 412 6 

POINT_DATA 423
SCALARS DY_raw double
LOOKUP_TABLE default
357.932 624.712 540.735 573.666 462.121 418.395 571.503 362.693 449.515 
453.905 640.404 474.571 391.019 468.244 479.088 469.211 370.826 503.39 
253.301 232.789 179.652 200.366 410.45 427.777 180.414 199.028 200.387 
169.909 259.121 342.584 226.271 217.678 171.757 262.67 155.03 155.273 
148.9 166.133 179.548 150.17 113.651 136.031 195 118.853 243.619 
134.042 170.312 105.105 189.86 234.984 189.715 190.642 253.167 257.959 
213.892 179.708 200.22 205.588 148.647 168.343 167.34 166.466 148.649 
134.847 143.775 175.621 121.164 116.532 127.014 121.959 112.114 126.534 
119.83 135.855 135.855 146.073 145.875 147.313 164.281 184.997 199.785 
222.038 215.961 131.206 141.765 124.55 115.411 118.298 126.325 135.47 
165.716 194.941 180.926 159.993 165.552 175.053 180.356 170.633 169.173 
169.173 130.901 152.524 115.262 117.186 114.589 123.227 179.364 191.453 
202.017 131.301 145.578 171.492 185.937 157.415 185.096 202.666 219.469 
218.904 206.567 201.141 200.421 188.262 188.956 194.678 202.223 214.853 
200.68 156.619 170.998 181.061 174.372 159.535 140.084 144.053 155.06 
180.369 222.473 232.329 191.832 137.948 136.038 155.092 169.112 175.691 
172.614 189.563 186.771 196.337 216.514 239.506 243.215 241.868 225.541 
239.129 234.627 252.569 262.14 241.318 229.351 262.536 292.485 308.515 
223.283 197.548 133.558 127.611 215.882 232.457 224.16 214.325 216.472 
216.378 216.378 175.584 171.974 173.76 173.76 177.587 204.949 224.572 
212.451 176.838 164.69 164.69 161.961 157.006 150.622 146.822 198.536 
242.418 256.006 324.88 336.581 347.714 341.98 334.544 349.869 339.906 
367.132 434.145 440.164 447.088 488.97 184.669 167.13 186.626 188.401 
202.941 210.379 193.681 164.48 154.927 138.566 144.534 162.36 456.61 
391.237 403.03 417.908 444.206 440.099 397.122 355.716 320.969 319.869 
313.077 307.062 330.17 365.261 405.103 362.1 378.437 225.95 211.213 
202.873 193.028 167.662 132.503 131.001 135.35 140.672 143.753 163.755 
195.448 206.506 206.506 183.552 171.624 180.783 217.614 219.401 219.851 
220.664 241.378 223.774 249.92 231.83 258.165 258.165 316.283 366.516 
366.516 314.548 285.492 285.492 253.327 239.889 193.563 221.352 232.811 
225.902 218.93 239.166 251.313 251.313 249.036 259.821 227.384 224.201 
188.027 190.594 433.959 402.124 375.587 346.837 312.233 334.985 308.684 
288.202 300.826 298.604 298.775 289.234 285.301 284.238 279.527 330.464 
420.374 455.841 426.431 375.954 349.74 357.566 317.94 338.03 324.395 
302.253 321.967 307.869 302.753 316.742 323.306 299.671 299.671 286.346 
286.346 309.03 428.916 435.507 479.31 501.412 484.062 489.31 432.694 
451.478 464.595 204.375 223.461 237.132 228.014 213.737 229.337 236.699 
256.095 256.095 264.476 288.739 288.739 311.368 295.361 272.978 258.785 
257.34 262.755 212.267 243.075 236.351 249.14 282.353 356.346 506.679 
488.907 416.542 416.088 483.369 430.198 372.681 426.288 441.406 394.434 
361.732 398.142 384.328 336.781 300.271 346.968 320.496 397.807 411.222 
446.15 462.763 488.15 480.732 408.524 408.524 391.506 434.551 466.446 
351.616 316.076 377.983 393.634 454.008 383.668 384.143 366.121 316.767 
316.767 331.765 379.583 401.186 423.423 335.889 354.451 343.957 314.172 
324.63 330.859 314.116 326.051 362.366 480.575 458.893 421.581 430.849 
589.97 430.31 488.623 432.095 388.053 400.242 515.305 566.59 356.581 
381.354 426.454 447.774 490.583 525.249 370.571 382.696 433.257 444.681 

FIELD FieldData 7
DY_minmax 1 423 double
0.47231 0.970687 0.813807 0.875326 0.666948 0.585262 0.871286 0.481205 0.643398 
0.651599 1 0.690205 0.53412 0.678386 0.698644 0.680192 0.496398 0.744043 
0.276847 0.238528 0.139263 0.17796 0.570421 0.602789 0.140687 0.17546 0.177998 
0.121062 0.287721 0.443638 0.226352 0.2103 0.124514 0.294351 0.0932669 0.0937204 
0.0818141 0.114007 0.139069 0.0841872 0.0159658 0.0577735 0.167935 0.0256827 0.25876 
0.0540579 0.121815 0 0.158332 0.242629 0.158062 0.159793 0.276597 0.28555 
0.203228 0.139368 0.177686 0.187715 0.0813418 0.118136 0.116263 0.11463 0.081346 
0.0555612 0.0722409 0.131733 0.0299999 0.0213479 0.0409286 0.031485 0.0130935 0.0400315 
0.0275084 0.0574448 0.0574448 0.0765335 0.0761641 0.0788492 0.110549 0.149249 0.176874 
0.218445 0.207092 0.0487596 0.0684861 0.0363255 0.0192538 0.0246464 0.0396427 0.0567256 
0.113229 0.167825 0.141642 0.102538 0.112923 0.130671 0.140578 0.122414 0.119688 
0.119688 0.0481899 0.0885856 0.0189754 0.0225696 0.0177181 0.033854 0.138724 0.161308 
0.181043 0.048937 0.0756094 0.124019 0.151004 0.0977218 0.149433 0.182255 0.213646 
0.21259 0.189544 0.179406 0.178061 0.155348 0.156644 0.167334 0.181428 0.205023 
0.178545 0.0962349 0.123096 0.141895 0.129399 0.101682 0.0653449 0.0727596 0.0933227 
0.140603 0.219257 0.23767 0.162016 0.061355 0.0577866 0.0933826 0.119574 0.131863 
0.126114 0.157777 0.152561 0.170432 0.208126 0.251077 0.258007 0.25549 0.224989 
0.250373 0.241962 0.275481 0.29336 0.254463 0.232106 0.2941 0.350048 0.379993 
0.22077 0.172695 0.0531538 0.0420449 0.206945 0.237909 0.22241 0.204037 0.208048 
0.207871 0.207871 0.131663 0.124919 0.128256 0.128256 0.135405 0.186521 0.223178 
0.200535 0.134006 0.111313 0.111313 0.106215 0.0969574 0.0850323 0.0779319 0.17454 
0.256518 0.281901 0.410566 0.432424 0.453222 0.44251 0.428619 0.457247 0.438637 
0.489496 0.614685 0.625929 0.638864 0.717104 0.148636 0.11587 0.152291 0.155608 
0.18277 0.196665 0.165471 0.11092 0.0930738 0.0625101 0.0736586 0.106959 0.656653 
0.534528 0.556558 0.584353 0.633481 0.625809 0.545522 0.46817 0.40326 0.401204 
0.388515 0.377279 0.420447 0.486002 0.560431 0.480097 0.510617 0.225752 0.198223 
0.182642 0.164251 0.116865 0.0511835 0.0483764 0.0565015 0.0664439 0.0721987 0.109566 
0.168772 0.189429 0.189429 0.146549 0.124265 0.141376 0.21018 0.213518 0.214359 
0.215879 0.254574 0.221687 0.270532 0.236737 0.285935 0.285935 0.394505 0.488347 
0.488347 0.391264 0.336985 0.336985 0.276897 0.251793 0.165249 0.217163 0.238571 
0.225664 0.212639 0.250443 0.273133 0.273133 0.268881 0.289028 0.228431 0.222485 
0.154909 0.159704 0.614337 0.554866 0.505292 0.451585 0.386939 0.429443 0.38031 
0.342047 0.365629 0.361479 0.361798 0.343975 0.336628 0.334642 0.325841 0.420997 
0.58896 0.655216 0.600274 0.505978 0.457007 0.471627 0.3976 0.435131 0.40966 
0.368296 0.405124 0.378786 0.36923 0.395362 0.407624 0.363471 0.363471 0.33858 
0.33858 0.380956 0.604917 0.617229 0.699059 0.740347 0.707936 0.717741 0.611974 
0.647066 0.671569 0.185448 0.221104 0.246642 0.229608 0.202939 0.23208 0.245834 
0.282068 0.282068 0.297724 0.343051 0.343051 0.385323 0.35542 0.313606 0.287092 
0.284393 0.294508 0.200191 0.257745 0.245183 0.269075 0.33112 0.469348 0.750188 
0.716986 0.5818 0.580952 0.706641 0.607312 0.499864 0.600007 0.62825 0.5405 
0.479409 0.547428 0.521621 0.432798 0.364593 0.451828 0.402375 0.546801 0.571862 
0.637112 0.668147 0.715572 0.701716 0.566822 0.566822 0.535031 0.615444 0.675026 
0.460511 0.394119 0.509768 0.539006 0.651792 0.520389 0.521275 0.487609 0.395409 
0.395409 0.423427 0.512758 0.553114 0.594656 0.431132 0.465808 0.446203 0.390563 
0.410098 0.421734 0.390457 0.412754 0.480595 0.701422 0.660916 0.591215 0.608528 
0.905784 0.607521 0.716457 0.610855 0.528579 0.55135 0.766302 0.862107 0.469786 
0.516066 0.600318 0.640145 0.720117 0.784877 0.495921 0.518573 0.613026 0.634367 

WidthEq 1 423 double
2.33606 1.69203 1.46641 1.59095 2.82788 1.3835 1.36426 1.49785 2.97256 
3.20678 1.46163 3.33649 2.11182 1.90429 2.3059 1 3.12106 2.83937 
3.4176 2.58888 3.80836 2.3746 3.55476 2.78351 2.43141 1.63766 3.59141 
3.09408 1.52392 3.12625 2.12463 1.28346 4.62422 2.44809 6.3258 3.34643 
2.5618 5.047 3.84828 4.40934 6.52497 5.30454 3.05303 4.3411 2.54295 
3.94915 4.42998 6.00688 2.83989 2.81543 3.42925 3.44154 2.91322 2.97113 
3.33631 3.42272 3.34793 3.43736 4.85258 4.71527 5.28189 5.54684 6.12342 
6.28463 5.69369 4.46109 6.47192 6.28908 6.40987 6.41325 6.09918 6.24673 
6.23743 5.92979 5.92979 4.04846 4.41282 4.37906 4.22343 3.91984 3.67029 
3.44315 2.85886 5.50198 4.7851 4.86746 4.74625 4.95141 4.87219 4.77952 
4.47121 4.17967 4.25142 4.43395 4.52951 4.04599 3.73905 3.63032 3.70679 
3.70679 4.53467 4.23611 8.00688 8.30909 7.57682 7.03777 3.81705 3.75305 
3.70341 6.15733 5.57336 4.63749 4.14506 4.10228 3.96897 3.87328 3.48514 
3.37436 3.27395 3.04663 3.14509 3.23459 3.32189 3.36689 3.15875 3.26642 
3.48307 3.6903 3.59824 3.88273 3.89204 3.97324 4.58476 4.5382 4.7815 
5.14202 3.67502 3.07078 3.58726 6.47027 5.99099 4.98736 4.64999 4.12384 
3.61281 3.46023 3.52304 3.42178 3.18266 3.04193 2.86401 2.72289 2.71871 
2.41464 2.37143 2.40699 2.22019 2.20116 2.12182 1.89944 1.90724 1.9732 
2.43333 2.53655 3.0902 3.24596 3.69688 3.47368 3.50923 3.29472 2.65175 
2.35131 2.35131 1.60448 2.01095 2.21571 2.21571 2.31493 2.13649 1.97585 
2.09413 2.17878 2.23675 2.23675 2.31155 2.72487 2.73692 3.0373 2.84946 
2.9049 3.19973 3.35906 3.41437 3.17894 3.05489 2.96613 2.6484 2.63702 
2.56982 2.50633 2.63193 2.88548 3.02559 3.15543 3.26346 3.29499 3.78687 
3.57528 3.39473 3.64791 4.09539 4.34857 4.78717 4.74802 4.35842 3.07755 
3.46831 3.12893 3.11899 3.01092 2.94954 3.02056 3.165 3.35524 3.05172 
3.19638 3.53222 3.7654 3.73128 3.5887 3.78998 3.65416 2.02656 2.15262 
2.15914 2.36293 2.15207 2.53655 2.43839 2.23806 2.25056 2.2559 2.13856 
2.06971 2.10789 2.10789 2.28328 2.27953 2.4176 2.41327 2.48846 2.44776 
2.35186 2.33124 2.15039 2.12444 2.50063 2.26998 2.26998 1.91645 1.46632 
1.46632 1.87282 2.03803 2.03803 2.26648 2.56131 3.18208 3.47474 3.60223 
3.55198 3.26804 2.77226 2.42845 2.42845 2.25132 1.94807 2.13332 2.11057 
2.59808 2.68682 3.21794 3.13356 3.2126 2.99824 2.98019 2.92091 3.24782 
3.28953 3.22077 2.89209 3.02553 2.97994 2.64205 2.76976 2.73591 2.40223 
2.08657 1.88535 1.9217 1.89587 1.93115 1.86925 1.86803 1.7957 1.7778 
1.85196 1.8269 1.83751 1.76408 1.72816 1.7052 1.80095 1.80095 1.80848 
1.80848 1.73045 2.6068 2.5711 2.95817 2.49703 2.53292 2.44062 2.21321 
2.12566 2.1471 2.4348 2.30456 2.23964 2.38512 2.50621 2.45556 2.45565 
2.42851 2.42851 2.46038 2.204 2.204 2.01482 2.0068 2.0483 2.24724 
2.43946 2.44312 3.16027 2.85834 2.80985 2.49081 1.91898 1.47803 2.59336 
2.43208 2.22199 2.10194 1.9618 2.22635 2.45666 2.26443 2.24818 2.45321 
2.52917 2.36649 2.43535 2.6995 2.70713 2.41979 2.61742 2.12005 2.15811 
1.95414 1.97347 1.91923 1.99375 2.14524 2.14524 2.25925 2.13966 2.087 
2.4584 3.17595 3.52783 3.59614 2.89493 2.9972 2.86495 2.82434 2.72551 
2.72551 2.52164 2.18811 2.18088 2.16594 2.81876 2.78891 3.0337 3.50292 
3.40998 3.54762 4.13421 4.18815 3.87164 3.24605 3.07401 3.27005 3.20196 
2.04156 3.26102 3.01287 3.27447 3.38269 3.22608 2.35259 1.82723 2.03906 
1.95884 3.11326 2.77607 2.39988 2.34771 3.27865 2.49349 2.26632 2.24525 

rRFP 1 423 double
2997.14 2785.93 2711.94 2752.78 3158.43 2684.75 2678.44 2722.25 3205.88 
3282.69 2710.37 3325.23 2923.6 2855.54 2987.25 2558.98 3254.58 3162.2 
3351.83 3080.05 3479.98 3009.78 3396.81 3143.88 3028.41 2768.1 3408.83 
3245.73 2730.8 3256.28 2927.8 2651.94 3747.54 3033.88 4305.57 3328.49 
3071.17 3886.19 3493.07 3677.07 4370.89 3970.65 3232.27 3654.69 3064.99 
3526.15 3683.84 4200.98 3162.37 3154.35 3355.65 3359.68 3186.42 3205.41 
3325.17 3353.51 3328.98 3358.31 3822.43 3777.4 3963.22 4050.11 4239.2 
4292.07 4098.27 3694.04 4353.49 4293.53 4333.14 4334.25 4231.25 4279.64 
4276.59 4175.7 4175.7 3558.72 3678.21 3667.14 3616.1 3516.54 3434.7 
3360.21 3168.59 4035.4 3800.3 3827.31 3787.56 3854.84 3828.86 3798.47 
3697.36 3601.75 3625.28 3685.14 3716.48 3557.91 3457.25 3421.59 3446.67 
3446.67 3718.17 3620.26 4856.88 4955.99 4715.84 4539.06 3482.83 3461.84 
3445.56 4250.32 4058.81 3751.89 3590.4 3576.37 3532.65 3501.27 3373.98 
3337.65 3304.72 3230.17 3262.46 3291.81 3320.44 3335.2 3266.94 3302.25 
3373.3 3441.26 3411.07 3504.37 3507.42 3534.05 3734.6 3719.33 3799.12 
3917.35 3436.25 3238.09 3407.47 4352.95 4195.77 3866.63 3755.99 3583.44 
3415.85 3365.81 3386.41 3353.2 3274.78 3228.63 3170.28 3124 3122.63 
3022.91 3008.74 3020.4 2959.14 2952.9 2926.88 2853.95 2856.51 2878.14 
3029.04 3062.89 3244.46 3295.54 3443.42 3370.22 3381.88 3311.53 3100.67 
3002.14 3002.14 2757.22 2890.52 2957.67 2957.67 2990.21 2931.69 2879.01 
2917.8 2945.56 2964.57 2964.57 2989.1 3124.65 3128.6 3227.11 3165.51 
3183.69 3280.38 3332.63 3350.77 3273.56 3232.88 3203.77 3099.57 3095.84 
3073.8 3052.98 3094.17 3177.32 3223.27 3265.85 3301.28 3311.62 3472.93 
3403.54 3344.33 3427.36 3574.11 3657.14 3800.98 3788.14 3660.37 3240.31 
3368.46 3257.16 3253.9 3218.46 3198.33 3221.62 3268.99 3331.38 3231.84 
3279.28 3389.42 3465.89 3454.7 3407.94 3473.95 3429.41 2895.64 2936.98 
2939.12 3005.95 2936.8 3062.89 3030.7 2965 2969.1 2970.85 2932.37 
2909.79 2922.31 2922.31 2979.83 2978.6 3023.88 3022.46 3047.12 3033.77 
3002.32 2995.56 2936.25 2927.74 3051.11 2975.47 2975.47 2859.53 2711.91 
2711.91 2845.22 2899.4 2899.4 2974.32 3071.01 3274.59 3370.57 3412.38 
3395.9 3302.78 3140.19 3027.44 3027.44 2969.35 2869.9 2930.65 2923.19 
3083.07 3112.17 3286.35 3258.68 3284.6 3214.3 3208.38 3188.94 3296.15 
3309.83 3287.28 3179.49 3223.25 3208.3 3097.49 3139.37 3128.27 3018.84 
2915.32 2849.33 2861.25 2852.78 2864.35 2844.05 2843.65 2819.93 2814.06 
2838.38 2830.16 2833.64 2809.56 2797.78 2790.25 2821.65 2821.65 2824.12 
2824.12 2798.53 3085.93 3074.22 3201.16 3049.93 3061.7 3031.43 2956.85 
2928.14 2935.17 3029.52 2986.81 2965.52 3013.23 3052.94 3036.33 3036.36 
3027.46 3027.46 3037.91 2953.83 2953.83 2891.79 2889.16 2902.77 2968.01 
3031.05 3032.25 3267.44 3168.42 3152.52 3047.89 2860.36 2715.75 3081.52 
3028.63 2959.73 2920.36 2874.4 2961.16 3036.69 2973.65 2968.32 3035.56 
3060.47 3007.12 3029.7 3116.33 3118.83 3024.6 3089.41 2926.3 2938.78 
2871.89 2878.23 2860.44 2884.88 2934.56 2934.56 2971.95 2932.73 2915.46 
3037.26 3272.58 3387.98 3410.38 3180.42 3213.96 3170.59 3157.27 3124.86 
3124.86 3058 2948.62 2946.25 2941.35 3155.44 3145.65 3225.93 3379.81 
3349.33 3394.47 3586.84 3604.53 3500.73 3295.57 3239.15 3303.44 3281.11 
2900.56 3300.48 3219.1 3304.89 3340.38 3289.02 3002.56 2830.27 2899.74 
2873.43 3252.02 3141.44 3018.07 3000.96 3306.26 3048.77 2974.27 2967.36 

rGFP 1 423 double
3191.37 3412.25 3148.16 3267.89 3662.04 2934.07 3134.9 2898.48 3691.43 
3810.79 3291.25 3938.62 3180.98 3246.89 3459.95 2824.43 3512.59 3784.53 
3220.9 2957.88 3039.4 2831.01 3814.27 3545.94 2793.88 2681.16 3074.89 
2880.93 2750.1 3426.22 2835.96 2634.6 3149.46 2998.26 3335.91 2874.83 
2736.67 3193.69 3046.17 3017.37 3096.79 3076.8 2950.56 2871.17 2974.73 
2884.57 3109.7 2986.57 2894.4 3016.8 3005.8 3011.32 3092.75 3121.65 
3068.83 2970.31 3025.54 3061.9 3076.54 3149 3239.09 3278.58 3265.46 
3202.68 3173.83 3138.68 3139.38 3088.1 3169.36 3137.37 3039.02 3145.64 
3102.65 3160.81 3160.81 2946.59 2998.94 3000.31 3049.05 3080.38 3088.49 
3119.73 2972.62 3077.11 3033.58 2961.46 2902.99 2940.96 2970.7 3002.7 
3096.17 3170.01 3124.41 3064.62 3105.09 3063.48 3029.58 2974.67 2982.31 
2982.31 2948.81 3001.33 3278.11 3328.93 3223.44 3222.46 3039.86 3073.75 
3103.37 3163.68 3166.58 3150.51 3125.94 3000.98 3089.86 3140.2 3120.1 
3093.88 3031.51 2968.02 2985.56 2964.17 2982.91 3010.68 2993.99 3057.02 
3054.2 2933.19 2970.51 3058.23 3033.88 2989.09 2997.47 3008.96 3096.64 
3282.68 3172.81 3068.65 3043.37 3247.78 3170.22 3128.72 3141.59 3079.74 
2978.84 3011.15 3013.22 3027.04 3044.31 3083.78 3051.79 3013.8 2968.4 
2932.63 2911.62 2963.15 2937.22 2886.4 2841.86 2853.89 2913.06 2963.98 
2898.54 2856.31 2767.94 2769.44 3153.31 3162.7 3141.85 3061.36 2929.25 
2863.99 2863.99 2636.94 2701.05 2740.22 2740.22 2766.32 2793.09 2798.94 
2800.12 2740.51 2723.59 2723.59 2729.6 2783.04 2767.46 2801.16 2920.94 
3059.42 3174.37 3446.51 3504.43 3460.58 3399.93 3347.52 3281.81 3251.56 
3298.68 3443.33 3513.7 3645.28 3834.64 2937.93 2900.64 2970.15 3068.67 
3080.79 3069.4 3061.75 3028.83 3028.93 3018.56 3041.47 3062.85 3760.46 
3712.15 3616.27 3658.67 3692.69 3653.31 3554.75 3481.06 3432.15 3331.37 
3355.93 3439.83 3598.44 3718.11 3809.01 3727.57 3738.09 2813.12 2809.88 
2793.25 2811.33 2716.04 2691.32 2674.65 2658.14 2671.81 2679.51 2705.42 
2759.74 2790.51 2790.51 2774.32 2746.44 2792.28 2880.38 2901.19 2893.36 
2874.19 2917.93 2836.42 2886.16 2934.94 2941.25 2941.25 2961.36 2892.65 
2892.65 2944.31 2937.06 2937.06 2929.38 2969.65 2971.15 3124.36 3193.86 
3157.62 3070.69 3018.25 2965.52 2965.52 2915.88 2861.37 2840.3 2828.41 
2843.73 2867.31 3751.67 3615.3 3561.83 3395.12 3285.73 3333.68 3357.77 
3303.27 3324.11 3218.81 3259.17 3217.12 3109 3142.49 3119.98 3149.07 
3232.36 3214.64 3174.69 3067.98 3030.62 3023.6 2949.14 2962.22 2931.93 
2914.98 2943.42 2920.93 2889.3 2902.6 2906.52 2894.91 2894.91 2873.07 
2873.07 2889.98 3473.32 3474.95 3773.1 3607.26 3581.31 3549.44 3312.86 