# vtk DataFile Version 3.0
vtk output
ASCII
DATASET POLYDATA
POINTS 289 float
-0.255394 0.231512 0.95194 0.2624 0.862674 1.08299 0.67623 -1.52144 0.773817 
-0.606344 0.579179 0.648744 0.0693669 0.717344 0.837494 1.58693 1.11037 0.912106 
-1 2.6318e-007 -6.99164e-008 1.37581 -2.11243 0.0327525 -1.0241 0.595346 -0.16373 
-0.850751 0.359142 -0.626642 1.14944 -2.13965 -0.819203 2.30027 -2.11687 -0.628605 
1.53062 -2.23481 -0.966766 2.25343 -2.20678 -1.04926 5.47785 0.263087 -0.339726 
-0.636421 0.320133 -1.67804 -0.658875 1.16429 -1.48468 4.56197 -0.0905872 -0.71909 
0.866642 -2.23245 -1.77552 -0.591808 1.29576 -1.66728 4.92044 -0.690682 -0.907215 
2.50621 -2.41854 -1.83601 0.267808 -1.33511 -2.73407 -0.188619 -0.645618 -2.75871 
-0.102717 -0.527496 -2.73599 -0.143222 -0.578324 -2.74635 -0.174906 -0.749031 -2.764 
-0.160846 -0.827658 -2.76743 -0.138254 -0.885724 -2.76796 -0.118332 -0.944754 -2.76899 
-0.0869693 -0.991506 -2.76725 -0.0500127 -1.0323 -2.76416 -0.0197051 -1.07944 -2.7551 
-0.000708506 -1.13712 -2.73361 0.0328707 -1.17781 -2.69343 0.084625 -1.19989 -2.65644 
0.132175 -1.22942 -2.65079 0.177831 -1.26392 -2.67592 0.223455 -1.29921 -2.70863 
-0.292926 -0.644954 -2.64784 -0.364942 -0.623605 -2.54522 -0.413144 -0.584879 -2.45999 
-0.446513 -0.532784 -2.38642 -0.488797 -0.490977 -2.32257 -0.537829 -0.456352 -2.26037 
-0.588018 -0.422957 -2.19844 -0.636898 -0.388329 -2.1362 -0.675219 -0.345858 -2.07918 
-0.685657 -0.289767 -2.03165 -0.673488 -0.234046 -2.00301 -0.668394 -0.167205 -1.98224 
-0.664421 -0.100816 -1.95417 -0.654457 -0.045231 -1.90333 -0.65667 0.0203708 -1.84622 
-0.665171 0.0932366 -1.79464 -0.670789 0.16846 -1.75746 -0.665095 0.244154 -1.7209 
2.42829 -2.42059 -1.84142 2.34798 -2.42371 -1.83226 2.26408 -2.42842 -1.80123 
2.17898 -2.43366 -1.76289 2.09507 -2.43837 -1.73186 2.01476 -2.44148 -1.72269 
1.93692 -2.44345 -1.72809 1.8615 -2.44359 -1.74048 1.79283 -2.43653 -1.75124 
1.7344 -2.41858 -1.75952 1.66573 -2.41153 -1.77028 1.59151 -2.41113 -1.78997 
1.51845 -2.41098 -1.82453 1.44891 -2.40931 -1.88097 1.38065 -2.40702 -1.9447 
1.31248 -2.40388 -2.00082 1.24878 -2.39377 -2.03311 1.20091 -2.36533 -2.04643 
1.15866 -2.33016 -2.0508 1.10962 -2.30132 -2.04922 1.04316 -2.2854 -2.02134 
0.964657 -2.26195 -1.93468 4.85446 -0.680769 -0.917324 4.80422 -0.654098 -0.923625 
4.75522 -0.626118 -0.929629 4.69723 -0.607707 -0.937808 4.64822 -0.579728 -0.943812 
4.59799 -0.553056 -0.950113 4.53201 -0.543144 -0.960222 4.46603 -0.533231 -0.970331 
4.41573 -0.506639 -0.97665 4.36535 -0.480126 -0.982988 4.29799 -0.47168 -0.99343 
4.22264 -0.471732 -1.0058 4.146 -0.473172 -1.01849 4.06935 -0.474767 -1.03119 
3.9941 -0.477697 -1.04376 3.92622 -0.489398 -1.04823 3.87543 -0.520885 -1.03629 
3.82963 -0.562208 -1.00167 3.78409 -0.605474 -0.959612 3.74114 -0.649541 -0.924727 
3.70897 -0.69892 -0.911035 3.69009 -0.757716 -0.910894 3.66151 -0.805499 -0.919072 
3.62574 -0.846376 -0.927926 3.58747 -0.886526 -0.92961 3.5468 -0.92774 -0.916717 
3.50385 -0.971808 -0.881832 3.46688 -1.02331 -0.838967 3.4433 -1.08431 -0.809666 
3.41491 -1.13396 -0.810419 3.39012 -1.18202 -0.833043 3.37378 -1.23989 -0.847475 
3.3454 -1.28955 -0.848228 3.31342 -1.3408 -0.827112 3.28983 -1.40179 -0.797811 
3.25287 -1.4533 -0.754956 3.20992 -1.49737 -0.72006 3.16925 -1.53858 -0.707168 
3.13457 -1.57714 -0.730722 3.10239 -1.61642 -0.761456 3.07493 -1.6636 -0.776924 
3.05466 -1.72105 -0.776925 3.01869 -1.76006 -0.793193 2.96825 -1.7801 -0.833041 
2.92857 -1.80881 -0.879282 2.89362 -1.84543 -0.910267 2.8575 -1.88428 -0.92656 
2.81895 -1.92249 -0.935675 2.77202 -1.95433 -0.938173 2.71172 -1.97667 -0.927127 
2.65622 -2.01036 -0.886017 2.59705 -2.04557 -0.823034 2.52451 -2.07129 -0.746516 
2.45676 -2.09825 -0.68434 2.38031 -2.11181 -0.6452 -0.634284 1.23778 -1.57312 
-0.654348 0.4062 -1.80516 -0.655281 0.489893 -1.88952 -0.653124 0.570182 -1.92344 
-0.652565 0.647045 -1.92778 -0.645002 0.715029 -1.92158 -0.619361 0.76564 -1.91368 
-0.593642 0.816174 -1.90577 -0.584691 0.882825 -1.89944 -0.578246 0.950201 -1.88594 
-0.565963 1.00677 -1.84969 -0.573143 1.06931 -1.77105 -0.603874 1.12654 -1.64397 
0.793345 -2.20807 -1.56 0.723473 -2.21533 -1.33116 0.661853 -2.19959 -1.12187 
0.632959 -2.15855 -0.943008 0.649517 -2.12921 -0.817732 0.704972 -2.12182 -0.755409 
0.774488 -2.12632 -0.759372 0.840018 -2.14101 -0.794846 0.915868 -2.14487 -0.827826 
0.994876 -2.14314 -0.837305 1.07272 -2.14117 -0.83191 4.61718 -0.105286 -0.643361 
4.65784 -0.136212 -0.578733 4.69966 -0.167383 -0.52899 4.754 -0.18746 -0.498958 
4.80042 -0.217446 -0.485996 4.84136 -0.254003 -0.48194 4.88238 -0.290481 -0.477867 
4.93129 -0.318392 -0.471872 4.99719 -0.325575 -0.461577 5.06388 -0.317206 -0.450018 
5.11959 -0.295642 -0.439299 5.17769 -0.276224 -0.428345 5.2235 -0.244998 -0.418546 
5.26205 -0.20679 -0.40943 5.29928 -0.167324 -0.400438 5.33644 -0.127781 -0.391454 
5.3736 -0.0882385 -0.382469 5.41067 -0.0486199 -0.373492 5.44636 -0.00766707 -0.364645 
5.47348 0.0415265 -0.356605 5.48111 0.109442 -0.350397 5.48017 0.185597 -0.344997 
-0.750728 1.15377 -1.39517 -0.837486 1.13161 -1.27555 -0.902173 1.07984 -1.11685 
-0.942396 0.999509 -0.933643 -0.972655 0.909602 -0.749496 -0.99898 0.819426 -0.579769 
-1.02033 0.732159 -0.43159 -1.0313 0.654452 -0.296066 -0.670501 0.312293 -1.41076 
-0.720663 0.322205 -1.14985 -0.769033 0.340491 -0.888025 2.29555 -2.20228 -0.906549 
2.31117 -2.17231 -0.766325 1.48332 -2.26181 -0.976501 1.4247 -2.26426 -0.986305 
1.36911 -2.24626 -0.994118 1.30876 -2.22978 -0.995295 1.25628 -2.20253 -0.971818 
1.20464 -2.17068 -0.910246 2.21877 -2.10418 -0.445387 2.12388 -2.10797 -0.288144 
2.02819 -2.11706 -0.176571 1.93957 -2.12382 -0.116357 1.85687 -2.128 -0.0926071 
1.77543 -2.13156 -0.0761324 1.69283 -2.13489 -0.044784 1.61573 -2.13155 -0.00450783 
1.54917 -2.11682 0.0307903 1.47047 -2.11149 0.0408336 1.18859 -2.14086 -0.639767 
1.21933 -2.13311 -0.476105 1.25662 -2.14187 -0.327629 1.29227 -2.16466 -0.195501 
1.33586 -2.16021 -0.0751327 -0.915948 0.418401 -0.525144 -0.967554 0.468201 -0.417094 
-0.999468 0.528466 -0.295011 -0.920919 0.264725 -0.416762 -0.962523 0.173076 -0.234595 
-0.985154 0.0851906 -0.0992178 -0.993655 0.617792 -0.0517353 -0.949842 0.630752 0.0467162 
-0.907301 0.646466 0.137631 -0.853705 0.649064 0.229414 -0.801513 0.636585 0.332395 
-0.756883 0.611529 0.433226 -0.694007 0.594498 0.540148 1.30604 -2.05606 0.153357 
1.2463 -2.01491 0.259439 1.20118 -1.97265 0.337899 1.17281 -1.91743 0.38995 
1.14576 -1.86386 0.411992 1.12333 -1.80612 0.427578 1.08699 -1.76243 0.447376 
1.0335 -1.73478 0.485762 0.967409 -1.71979 0.528695 0.913914 -1.69214 0.567081 
0.876311 -1.64906 0.594154 0.850105 -1.59385 0.623984 0.810034 -1.55192 0.665615 
0.752841 -1.52672 0.718272 1.52095 1.12028 0.901997 1.46944 1.14634 0.902971 
1.41547 1.17126 0.918504 1.34093 1.17652 0.951801 1.25601 1.17221 0.997754 
1.16859 1.16598 1.05069 1.0811 1.15968 1.1036 0.994801 1.1539 1.14922 
0.910977 1.14912 1.18026 0.832053 1.14467 1.18955 0.762788 1.1343 1.18495 
0.707007 1.11266 1.17422 0.648909 1.09324 1.16326 0.603098 1.06201 1.15346 
0.564473 1.02388 1.14434 0.525848 0.985749 1.13522 0.480116 0.954448 1.12543 
0.423407 0.933695 1.1146 0.3762 0.903811 1.10467 0.327684 0.875185 1.09462 
-0.0229159 0.708911 0.919571 -0.109139 0.703217 0.965208 -0.185753 0.702554 0.9601 
-0.248431 0.712271 0.912896 -0.298406 0.733862 0.853576 -0.358426 0.742693 0.799215 
-0.420211 0.734506 0.765899 -0.465816 0.70538 0.746249 -0.504252 0.667449 0.727134 
-0.547464 0.626129 0.69445 0.10284 0.683531 0.945884 0.154167 0.671986 1.03626 
0.20243 0.68629 1.09791 0.226228 0.735157 1.12043 0.248701 0.792175 1.11323 
0.0773511 0.783241 0.851141 0.102422 0.829352 0.881196 0.140974 0.857464 0.934727 
0.197998 0.864455 1.00481 -0.599017 0.49188 0.683722 -0.577099 0.432798 0.728162 
-0.555715 0.379879 0.783012 -0.544485 0.317826 0.843038 -0.523672 0.266525 0.91045 
-0.494885 0.22387 0.979802 -0.45573 0.193415 1.03669 -0.399415 0.192082 1.06088 
-0.336435 0.214109 1.02768 
LINES 23 334
3 24 25 23 
15 23 26 27 28 29 30 31 32 33 34 35 36 37 38 22 
20 23 39 40 41 42 43 44 45 46 47 48 49 50 51 52 53 54 55 56 15 
57 20 79 80 81 82 83 84 85 86 87 88 89 90 91 92 93 94 95 96 97 98 99 100 101 102 103 104 105 106 107 108 109 110 111 112 113 114 115 116 117 118 119 120 121 122 123 124 125 126 127 128 129 130 131 132 133 11 
3 19 134 16 
14 15 135 136 137 138 139 140 141 142 143 144 145 146 16 
24 17 158 159 160 161 162 163 164 165 166 167 168 169 170 171 172 173 174 175 176 177 178 179 14 
10 16 180 181 182 183 184 185 186 187 8 
5 15 188 189 190 9 
4 13 191 192 11 
8 12 193 194 195 196 197 198 10 
12 11 199 200 201 202 203 204 205 206 207 208 7 
7 10 209 210 211 212 213 7 
5 9 214 215 216 8 
5 9 217 218 219 6 
9 8 220 221 222 223 224 225 226 3 
16 7 227 228 229 230 231 232 233 234 235 236 237 238 239 240 2 
22 5 241 242 243 244 245 246 247 248 249 250 251 252 253 254 255 256 257 258 259 260 1 
12 4 261 262 263 264 265 266 267 268 269 270 3 
7 4 271 272 273 274 275 1 
6 4 276 277 278 279 1 
11 3 280 281 282 283 284 285 286 287 288 0 
36 21 57 58 59 60 61 62 63 64 65 66 67 68 69 70 71 72 73 74 75 76 77 78 18 147 148 149 150 151 152 153 154 155 156 157 10 

POINT_DATA 289
SCALARS DY_raw double
LOOKUP_TABLE default
12.096 17.888 17.9172 28.6138 19.0397 3.25911 38.7175 23.2905 53.0895 
49.0284 39.7555 49.6665 58.8907 39.9497 31.3358 74.7422 59.6765 28.0182 
48.5873 60.88 29.9336 32.9029 37.7222 60.2486 55.2035 56.4575 59.2927 
54.5085 57.9624 56.0586 50.9244 62.5343 46.4664 52.5546 52.5546 50.8614 
50.8614 44.4914 41.9134 53.335 45.2873 50.4227 59.8508 64.0552 67.058 
58.6378 58.9978 53.2559 47.0958 44.8026 44.8026 45.4473 59.4793 78.7313 
81.0517 70.9046 67.1215 32.4112 30.2972 30.1338 35.5041 46.0257 50.932 
57.0924 61.1482 57.6186 65.4794 66.3105 59.2988 61.57 58.8131 46.4625 
37.522 34.0569 26.3701 20.4668 25.4181 34.6416 43.6451 48.2952 47.4581 
59.9581 53.9257 52.3497 52.3497 46.9535 47.1081 62.5732 62.5732 79.21 
70.4352 84.9325 87.0112 70.1422 62.7588 62.5926 53.7317 50.4078 55.1162 
62.3211 62.3211 57.327 54.5603 54.5603 44.1048 44.1048 43.674 41.6755 
38.6589 46.099 59.9388 59.9388 30.9991 22.3251 26.8016 43.293 43.293 
48.0743 32.2405 30.7477 33.5452 29.6036 29.6036 34.0383 34.1788 34.649 
35.173 31.0076 31.0076 27.4411 23.9565 31.0609 44.7865 47.2443 61.6304 
68.0109 70.7905 72.5989 88.0089 94.0399 71.1827 76.7215 60.0509 57.2674 
58.3409 62.1392 59.8158 59.2264 46.8889 35.8445 35.5605 32.2452 32.6247 
40.1304 35.8973 44.4744 46.3598 42.461 47.0945 40.5247 35.8341 32.8412 
38.2334 39.3306 34.4705 37.4988 32.2672 36.6303 42.2592 42.2592 53.2803 
41.7602 41.7602 43.4411 57.2692 40.2602 40.2602 22.8625 24.2833 35.5179 
54.6395 58.9856 59.6945 59.8173 70.7235 78.2286 70.0149 62.3641 70.6395 
60.702 45.6853 32.4122 46.7453 42.0119 41.9176 41.288 41.288 59.0909 
55.5083 41.5094 36.3577 32.3734 27.7087 25.212 25.212 29.7798 29.6337 
25.878 25.8943 48.0175 40.9819 20.097 25.1435 33.5608 49.1612 44.4954 
44.4809 42.2064 36.2212 34.3793 51.0092 38.6865 36.3998 28.7301 24.7894 
33.838 27.5386 23.9892 29.8788 16.6943 9.92829 0.641793 0.641793 12.3519 
13.2888 24.9761 37.6919 37.6919 32.6209 34.6646 34.763 0 0.0226012 
10.3939 25.9091 35.4263 44.926 20.8652 8.41523 12.0217 19.8632 24.7844 
29.9743 35.8124 35.8124 37.0221 15.0351 15.0351 21.5598 13.6401 13.6401 
16.0011 19.6132 29.615 28.2422 28.3924 32.3875 36.7248 33.5473 31.0084 
33.7999 20.5652 14.6905 13.9231 22.401 17.888 22.7274 23.0306 22.2008 
15.1218 30.5369 33.9813 36.2998 26.3905 19.9346 20.8865 17.7318 16.8567 
7.43589 
FIELD FieldData 7
DY_minmax 1 289 double
0.128626 0.190217 0.190527 0.304273 0.202464 0.0346567 0.411714 0.247666 0.564542 
0.521358 0.422752 0.528143 0.626231 0.424816 0.333218 0.794792 0.634587 0.297939 
0.516667 0.647385 0.318308 0.349882 0.40113 0.640671 0.587021 0.600356 0.630505 
0.579632 0.61636 0.596115 0.541519 0.664976 0.494114 0.558854 0.558854 0.540849 
0.540849 0.473112 0.445697 0.567153 0.481575 0.536184 0.63644 0.681149 0.71308 
0.623542 0.62737 0.566312 0.500807 0.476421 0.476421 0.483276 0.63249 0.837211 
0.861886 0.753984 0.713755 0.344654 0.322174 0.320436 0.377543 0.489427 0.5416 
0.607108 0.650236 0.612704 0.696294 0.705131 0.630571 0.654721 0.625406 0.494072 
0.399001 0.362154 0.280414 0.21764 0.270291 0.368372 0.464112 0.51356 0.504659 
0.637582 0.573434 0.556675 0.556675 0.499293 0.500937 0.66539 0.66539 0.842302 
0.748993 0.903154 0.925258 0.745877 0.667364 0.665596 0.571372 0.536026 0.586094 
0.662709 0.662709 0.609602 0.580182 0.580182 0.469 0.469 0.46442 0.443168 
0.41109 0.490207 0.637376 0.637376 0.329638 0.2374 0.285002 0.460369 0.460369 
0.511212 0.342839 0.326964 0.356713 0.314799 0.314799 0.361956 0.36345 0.36845 
0.374022 0.329729 0.329729 0.291803 0.254748 0.330295 0.47625 0.502385 0.655364 
0.723213 0.752771 0.772001 0.935867 1 0.756941 0.815839 0.638569 0.608969 
0.620385 0.660775 0.636068 0.629801 0.498607 0.381163 0.378143 0.342888 0.346924 
0.426738 0.381724 0.472931 0.49298 0.451521 0.500792 0.43093 0.381052 0.349226 
0.406566 0.418233 0.366552 0.398754 0.343122 0.389518 0.449375 0.449375 0.566571 
0.444068 0.444068 0.461943 0.608988 0.428118 0.428118 0.243115 0.258224 0.37769 
0.581025 0.62724 0.634778 0.636084 0.752058 0.831865 0.744523 0.663166 0.751165 
0.645492 0.485808 0.344664 0.497079 0.446746 0.445742 0.439048 0.439048 0.62836 
0.590263 0.441401 0.38662 0.344252 0.294648 0.268099 0.268099 0.316672 0.315118 
0.275182 0.275354 0.510607 0.435792 0.213707 0.267371 0.356879 0.522769 0.473155 
0.473 0.448814 0.385168 0.365582 0.542421 0.411384 0.387067 0.305509 0.263605 
0.359826 0.292839 0.255096 0.317724 0.177523 0.105575 0.00682468 0.00682468 0.131347 
0.14131 0.26559 0.400807 0.400807 0.346883 0.368616 0.369662 0 0.000240336 
0.110526 0.275512 0.376716 0.477734 0.221876 0.0894857 0.127836 0.211221 0.263552 
0.318741 0.380821 0.380821 0.393685 0.15988 0.15988 0.229262 0.145045 0.145045 
0.170152 0.208563 0.314919 0.300322 0.301918 0.344402 0.390523 0.356735 0.329736 
0.359421 0.218686 0.156216 0.148055 0.238208 0.190217 0.241678 0.244903 0.236078 
0.160802 0.324722 0.361349 0.386004 0.28063 0.21198 0.222103 0.188556 0.17925 
0.0790716 
WidthEq 1 289 double
1.71544 1.78388 1.20555 2.3258 1.53941 1.06471 3.00897 2.57874 2.58149 
3.72845 1.71247 2.66457 1.19594 2.24432 1.23277 2.51036 3.06151 1.3502 
3.37351 1.83114 1.357 3.14927 2.43729 3.18049 2.3129 2.8138 3.23531 
3.08264 2.81337 2.67006 2.68457 2.61536 2.97591 3.08365 3.08365 3.0705 
3.0705 3.11341 2.42453 3.54983 3.40449 3.22117 3.16069 3.13199 3.29983 
3.74946 3.77896 3.71996 3.47653 2.74984 2.74984 2.23622 1.78785 1.58984 
2.06448 2.421 2.6747 4.02206 3.87593 3.87804 3.28075 2.87861 2.63076 
2.29207 1.91208 1.78744 1.37799 1.25591 1.19463 1.21861 1.15603 1.21302 
1.59346 1.7415 2.47098 3.03418 3.46053 3.75098 3.90628 1.41298 1.39892 
1.26355 1.30328 1.26877 1.26877 1.28723 1.15585 1.04502 1.04502 1 
1.06481 1.0466 1.11572 1.16264 1.09212 1.1233 1.21604 1.19981 1.30941 
1.39551 1.39551 1.48482 1.49944 1.49944 1.75106 1.75106 1.77634 1.65493 
1.81459 1.73821 1.53974 1.53974 1.59521 1.60671 1.54357 1.52819 1.52819 
1.67407 1.63769 1.76696 1.62408 1.7437 1.7437 1.7448 1.75225 1.58966 
1.77551 1.94242 1.94242 2.48241 2.43859 2.88916 3.4631 3.00841 3.03276 
2.23111 1.90774 1.85774 1.68597 1.83209 2.49541 2.38212 2.96232 3.18209 
2.98075 2.89109 3.08146 2.77342 3.00476 3.37485 3.3301 3.33662 3.49337 
3.11983 2.84729 2.35236 2.05286 1.73595 1.95055 2.13426 2.07735 2.17684 
2.47924 2.48026 2.59381 2.54168 2.35565 2.00326 1.61409 1.61409 1.16985 
1.0783 1.0783 1.06673 1.20344 1.35593 1.35593 1.4854 1.45532 1.3458 
3.17133 2.55283 2.71516 2.1895 2.05547 2.13503 2.17911 2.38358 2.31981 
2.95476 3.3444 2.99177 2.78702 1.23417 1.22645 1.24055 1.24055 1.48162 
1.56427 2.37657 1.93274 1.97415 2.04015 2.25289 2.25289 2.43923 2.76409 
2.86961 2.91647 1.40303 1.30789 1.41016 1.47394 2.15042 3.37339 2.99267 
2.84482 4.22471 4.10036 3.70252 2.86007 2.78908 2.92364 2.66968 2.63903 
2.54359 2.48488 2.21391 1.92545 1.67363 1.47256 1.54255 1.54255 1.70258 
1.73078 1.86258 2.02723 2.02723 1.99228 1.7903 1.71907 1.20583 1.32736 
1.39697 1.39179 1.36537 1.35356 1.63814 1.64107 1.6936 1.6805 1.68937 
1.6761 1.84852 1.84852 1.82756 1.70402 1.70402 1.731 1.71334 1.71334 
1.54239 1.5459 1.49721 1.56609 1.68285 1.8044 1.97986 2.14801 2.08395 
2.2145 1.5429 1.56972 1.59304 1.65126 1.78388 1.52195 1.54316 1.6022 
1.66713 2.37647 2.45576 2.39395 2.36525 2.37477 2.26031 2.15263 2.06446 
1.89352 
rRFP 1 289 double
3086.36 3120.14 2834.67 3387.64 2999.47 2765.15 3724.86 3512.49 3513.85 
4080 3084.89 3554.86 2829.93 3347.42 2848.11 3478.74 3750.79 2906.07 
3904.8 3143.47 2909.43 3794.11 3442.67 3809.52 3381.27 3628.52 3836.58 
3761.22 3628.31 3557.57 3564.73 3530.57 3708.54 3761.72 3761.72 3755.23 
3755.23 3776.41 3436.37 3991.83 3920.09 3829.6 3799.75 3785.58 3868.43 
4090.37 4104.93 4075.81 3955.65 3596.95 3596.95 3343.42 3122.1 3024.36 
3258.65 3434.63 3559.86 4224.93 4152.8 4153.84 3859.01 3660.51 3538.17 
3370.99 3183.42 3121.9 2919.79 2859.53 2829.28 2841.12 2810.23 2838.36 
3026.15 3099.22 3459.3 3737.3 3947.75 4091.12 4167.78 2937.06 2930.12 
2863.3 2882.91 2865.88 2865.88 2874.99 2810.14 2755.43 2755.43 2733.21 
2765.2 2756.21 2790.33 2813.49 2778.68 2794.07 2839.85 2831.84 2885.94 
2928.44 2928.44 2972.52 2979.74 2979.74 3103.94 3103.94 3116.42 3056.49 
3135.3 3097.6 2999.63 2999.63 3027.01 3032.69 3001.52 2993.93 2993.93 
3065.94 3047.98 3111.79 3041.26 3100.31 3100.31 3100.85 3104.53 3024.27 
3116.01 3198.4 3198.4 3464.94 3443.31 3665.72 3949.02 3724.58 3736.6 
3340.9 3181.28 3156.6 3071.81 3143.94 3471.36 3415.44 3701.83 3810.31 
3710.93 3666.67 3760.64 3608.59 3722.78 3905.46 3883.37 3886.59 3963.96 
3779.58 3645.05 3400.75 3252.91 3096.48 3202.41 3293.09 3265 3314.11 
3463.38 3463.88 3519.93 3494.2 3402.37 3228.43 3036.33 3036.33 2817.05 
2771.86 2771.86 2766.15 2833.63 2908.9 2908.9 2972.81 2957.96 2903.9 
3805 3499.7 3579.83 3320.36 3254.2 3293.47 3315.23 3416.16 3384.68 
3698.1 3890.43 3716.37 3615.3 2848.8 2844.99 2851.95 2851.95 2970.94 
3011.74 3412.7 3193.62 3214.06 3246.64 3351.65 3351.65 3443.63 3603.98 
3656.07 3679.2 2932.15 2885.19 2935.67 2967.15 3301.07 3904.74 3716.81 
3643.83 4324.96 4263.58 4067.2 3651.36 3616.32 3682.74 3557.38 3542.25 
3495.14 3466.16 3332.41 3190.02 3065.72 2966.47 3001.02 3001.02 3080.01 
3093.93 3158.99 3240.26 3240.26 3223.01 3123.31 3088.15 2834.81 2894.8 
2929.16 2926.6 2913.56 2907.73 3048.2 3049.65 3075.58 3069.11 3073.49 
3066.94 3152.05 3152.05 3141.7 3080.72 3080.72 3094.04 3085.32 3085.32 
3000.94 3002.67 2978.64 3012.64 3070.27 3130.27 3216.88 3299.88 3268.26 
3332.7 3001.19 3014.43 3025.94 3054.68 3120.14 2990.85 3001.32 3030.46 
3062.51 3412.65 3451.79 3421.28 3407.11 3411.81 3355.31 3302.16 3258.64 
3174.26 
rGFP 1 289 double
2446.32 2457.48 2447.17 2492.12 2454.88 2429.04 2542.07 2485.63 2562.62 
2608.37 2493.65 2557.91 2496 2515.23 2464.2 2613.2 2608.27 2463.4 
2589.48 2537.05 2466.19 2529.19 2517.51 2617.19 2553.25 2584.43 2617.4 
2593.6 2588.64 2575.25 2562.28 2589.12 2563.85 2587.63 2587.63 2581.74 
2581.74 2564.09 2527.19 2614.9 2579.75 2587.99 2614.74 2626.19 2646.85 
2645.43 2648.52 2623.68 2589.3 2548.77 2548.77 2527.2 2531.91 2550.74 
2592.9 2597.23 2605.1 2555.93 2543 2542.43 2542.05 2558.06 2559.56 
2556.43 2542.49 2528.56 2515.8 2508.85 2496.41 2500.6 2493.56 2481.93 
2485.36 2484.88 2490.73 2487.67 2513.53 2555.51 2596.06 2493.81 2491.96 
2501.33 2495.85 2491.99 2491.99 2486.01 2480.02 2490.96 2490.96 2504.78 
2500.57 2514.46 2522.65 2507.12 2494.11 2495.88 2490.91 2486.05 2497.74 
2512.54 2512.54 2510.69 2507.38 2507.38 2502.8 2502.8 2503.15 2494.54 
2495.72 2505.7 2517.86 2517.86 2475.02 2461.44 2466.94 2491.73 2491.73 
2506.05 2478.37 2479.9 2480.05 2477.19 2477.19 2484.96 2485.46 2480.65 
2488.02 2485.8 2485.8 2493.69 2483.99 2515.31 2580.67 2567.7 2612.48 
2577.31 2560.62 2560.44 2573.95 2597.86 2603.2 2608.33 2603.46 2607.8 
2599.47 2605.22 2609.89 2589.83 2566.46 2546.54 2543.99 2533.16 2539.54 
2550.77 2527.78 2530.19 2520.74 2499.28 2517.43 2512.06 2500.01 2497.06 
2520.36 2523.12 2514.98 2520.88 2501.58 2498.95 2493.78 2493.78 2487.9 
2470.6 2470.6 2471.91 2494.49 2480.16 2480.16 2459.53 2460.91 2473.37 
2598.85 2576.15 2587.65 2556.54 2570.94 2592.59 2578.14 2574.22 2589.44 
2604.93 2578.36 2522.54 2555.85 2477.42 2476.98 2476.79 2476.79 2513.12 
2512.4 2524.22 2495.84 2489.48 2482.1 2482.37 2482.37 2498.21 2507.48 
2499.83 2501.09 2492.94 2479.17 2453.91 2462.63 2497.74 2591.41 2558.73 
2552.11 2603.88 2574.09 2552.86 2571.46 2533.47 2531.99 2502.27 2490.99 
2511.64 2494 2478.68 2483.1 2453.51 2440.19 2426.56 2426.56 2446.6 
2448.57 2472.09 2501.98 2501.98 2490.56 2487.63 2485.33 2425.57 2425.6 
2440.09 2461.63 2473.94 2486.38 2459.75 2439.38 2445.93 2458.95 2467.44 
2475.81 2491.77 2491.77 2493.23 2451.19 2451.19 2462.89 2448.94 2448.94 
2450.25 2455.89 2469.91 2469.8 2473.35 2484.01 2498.28 2497.63 2490.19 
2500.42 2457.3 2448.63 2447.75 2462.56 2457.48 2460.16 2461.11 2461.14 
2450.78 2498.14 2509.02 2512.47 2487.99 2472.91 2472.78 2463.74 2460.37 
2439.65 
bkstRFP 1 289 double
846.76 880.54 595.07 1148.04 759.87 525.55 1485.26 1272.89 1274.25 
1840.4 845.29 1315.26 590.33 1107.82 608.51 1239.14 1511.19 666.47 
1665.2 903.87 669.83 1554.51 1203.07 1569.92 1141.67 1388.92 1596.98 
1521.62 1388.71 1317.97 1325.13 1290.97 1468.94 1522.12 1522.12 1515.63 
1515.63 1536.81 1196.77 1752.23 1680.49 1590 1560.15 1545.98 1628.83 
1850.77 1865.33 1836.21 1716.05 1357.35 1357.35 1103.82 882.5 784.76 
1019.05 1195.03 1320.26 1985.33 1913.2 1914.24 1619.41 1420.91 1298.57 
1131.39 943.82 882.3 680.19 619.93 589.68 601.52 570.63 598.76 
786.55 859.62 1219.7 1497.7 1708.15 1851.52 1928.18 697.46 690.52 
623.7 643.31 626.28 626.28 635.39 570.54 515.83 515.83 493.61 
525.6 516.61 550.73 573.89 539.08 554.47 600.25 592.24 646.34 
688.84 688.84 732.92 740.14 740.14 864.34 864.34 876.82 816.89 
895.7 858 760.03 760.03 787.41 793.09 761.92 754.33 754.33 
826.34 808.38 872.19 801.66 860.71 860.71 861.25 864.93 784.67 
876.41 958.8 958.8 1225.34 1203.71 1426.12 1709.42 1484.98 1497 
1101.3 941.68 917 832.21 904.34 1231.76 1175.84 1462.23 1570.71 
1471.33 1427.07 1521.04 1368.99 1483.18 1665.86 1643.77 1646.99 1724.36 
1539.98 1405.45 1161.15 1013.31 856.88 962.81 1053.49 1025.4 1074.51 
1223.78 1224.28 1280.33 1254.6 1162.77 988.83 796.73 796.73 577.45 
532.26 532.26 526.55 594.03 669.3 669.3 733.21 718.36 664.3 
1565.4 1260.1 1340.23 1080.76 1014.6 1053.87 1075.63 1176.56 1145.08 
1458.5 1650.83 1476.77 1375.7 609.2 605.39 612.35 612.35 731.34 
772.14 1173.1 954.02 974.46 1007.04 1112.05 1112.05 1204.03 1364.38 
1416.47 1439.6 692.55 645.59 696.07 727.55 1061.47 1665.14 1477.21 
1404.23 2085.36 2023.98 1827.6 1411.76 1376.72 1443.14 1317.78 1302.65 
1255.54 1226.56 1092.81 950.42 826.12 726.87 761.42 761.42 840.41 
854.33 919.39 1000.66 1000.66 983.41 883.71 848.55 595.21 655.2 
689.56 687 673.96 668.13 808.6 810.05 835.98 829.51 833.89 
827.34 912.45 912.45 902.1 841.12 841.12 854.44 845.72 845.72 
761.34 763.07 739.04 773.04 830.67 890.67 977.28 1060.28 1028.66 
1093.1 761.59 774.83 786.34 815.08 880.54 751.25 761.72 790.86 
822.91 1173.05 1212.19 1181.68 1167.51 1172.21 1115.71 1062.56 1019.04 
934.66 
bkstGFP 1 289 double
20.75 31.91 21.6 66.55 29.31 3.47 116.5 60.06 137.05 
182.8 68.08 132.34 70.43 89.66 38.63 187.63 182.7 37.83 
163.91 111.48 40.62 103.62 91.94 191.62 127.68 158.86 191.83 
168.03 163.07 149.68 136.71 163.55 138.28 162.06 162.06 156.17 
156.17 138.52 101.62 189.33 154.18 162.42 189.17 200.62 221.28 
219.86 222.95 198.11 163.73 123.2 123.2 101.63 106.34 125.17 
167.33 171.66 179.53 130.36 117.43 116.86 116.48 132.49 133.99 
130.86 116.92 102.99 90.23 83.28 70.84 75.03 67.99 56.36 
59.79 59.31 65.16 62.1 87.96 129.94 170.49 68.24 66.39 
75.76 70.28 66.42 66.42 60.44 54.45 65.39 65.39 79.21 
75 88.89 97.08 81.55 68.54 70.31 65.34 60.48 72.17 
86.97 86.97 85.12 81.81 81.81 77.23 77.23 77.58 68.97 
70.15 80.13 92.29 92.29 49.45 35.87 41.37 66.16 66.16 
80.48 52.8 54.33 54.48 51.62 51.62 59.39 59.89 55.08 
62.45 60.23 60.23 68.12 58.42 89.74 155.1 142.13 186.91 
151.74 135.05 134.87 148.38 172.29 177.63 182.76 177.89 182.23 
173.9 179.65 184.32 164.26 140.89 120.97 118.42 107.59 113.97 
125.2 102.21 104.62 95.17 73.71 91.86 86.49 74.44 71.49 
94.79 97.55 89.41 95.31 76.01 73.38 68.21 68.21 62.33 
45.03 45.03 46.34 68.92 54.59 54.59 33.96 35.34 47.8 
173.28 150.58 162.08 130.97 145.37 167.02 152.57 148.65 163.87 
179.36 152.79 96.97 130.28 51.85 51.41 51.22 51.22 87.55 
86.83 98.65 70.27 63.91 56.53 56.8 56.8 72.64 81.91 
74.26 75.52 67.37 53.6 28.34 37.06 72.17 165.84 133.16 
126.54 178.31 148.52 127.29 145.89 107.9 106.42 76.7 65.42 
86.07 68.43 53.11 57.53 27.94 14.62 0.99 0.99 21.03 
23 46.52 76.41 76.41 64.99 62.06 59.76 0 0.03 
14.52 36.06 48.37 60.81 34.18 13.81 20.36 33.38 41.87 
50.24 66.2 66.2 67.66 25.62 25.62 37.32 23.37 23.37 
24.68 30.32 44.34 44.23 47.78 58.44 72.71 72.06 64.62 
74.85 31.73 23.06 22.18 36.99 31.91 34.59 35.54 35.57 
25.21 72.57 83.45 86.9 62.42 47.34 47.21 38.17 34.8 
14.08 
tubeWidth 1 289 double
0.176267 0.293525 0.273886 0.199066 0.0997788 0.209243 0.293704 0.278884 0.216167 
0.266654 0.165188 0.213221 0.0960032 0.150738 0.197883 0.181022 0.234738 0.24626 
0.20867 0.200545 0.228393 0.220008 0.221211 0.252055 0.0759007 0.156405 0.16302 
0.191016 0.197628 0.200272 0.213357 0.22217 0.248169 0.2962 0.31907 0.326217 
0.334158 0.306162 0.254691 0.291013 0.282336 0.242751 0.223652 0.255246 0.248408 
0.252763 0.309266 0.296783 0.277781 0.237094 0.218499 0.186754 0.217809 0.195648 
0.201386 0.229395 0.228695 0.293155 0.256506 0.263867 0.248539 0.209575 0.19902 
0.182862 0.209569 0.209441 0.185263 0.164169 0.138737 0.167263 0.206942 0.202462 
0.169827 0.182783 0.200331 0.202289 0.223125 0.265247 0.279723 0.246312 0.209748 
0.200993 0.196773 0.202265 0.218245 0.223376 0.209724 0.195922 0.16596 0.159456 
0.161275 0.166384 0.164738 0.186616 0.193017 0.198619 0.233004 0.189999 0.178285 
0.176738 0.207849 0.217159 0.219563 0.222226 0.228227 0.253122 0.262553 0.23844 
0.228616 0.255696 0.238874 0.230469 0.240078 0.239414 0.259812 0.251803 0.227571 
0.242894 0.2527 0.269824 0.301559 0.297024 0.269571 0.216579 0.195858 0.190044 
0.195374 0.189953 0.166031 0.215858 0.159529 0.234661 0.286064 0.245124 0.305399 
0.126031 0.1472 0.115365 0.164443 0.173138 0.210571 0.224389 0.226777 0.231772 
0.244735 0.235029 0.20718 0.201746 0.171816 0.180934 0.270781 0.239829 0.165739 
0.181482 0.230898 0.20636 0.158578 0.162687 0.281006 0.246801 0.203557 0.208633 
0.255254 0.245821 0.223469 0.265604 0.249057 0.218966 0.172959 0.182516 0.163586 
0.142244 0.114767 0.158974 0.209143 0.249463 0.270451 0.224193 0.221774 0.224348 
0.254408 0.247407 0.237578 0.22288 0.143772 0.155175 0.244272 0.257088 0.178727 
0.140941 0.199467 0.22282 0.247318 0.122413 0.0603569 0.046421 0.0598525 0.127466 
0.222557 0.153847 0.151263 0.225145 0.215606 0.198903 0.208427 0.263327 0.265107 
0.22213 0.209334 0.141809 0.174785 0.153618 0.130859 0.257802 0.215172 0.177664 
0.21998 0.269412 0.262926 0.337633 0.270299 0.257484 0.275022 0.243643 0.259287 
0.290587 0.300485 0.251795 0.166902 0.21673 0.200016 0.192481 0.168773 0.19317 
0.233182 0.2735 0.247747 0.269547 0.290972 0.294172 0.304554 0.229759 0.22382 
0.206962 0.240347 0.251838 0.225486 0.269666 0.24557 0.211992 0.221118 0.253592 
0.252062 0.266637 0.291521 0.289792 0.297022 0.300526 0.271167 0.265175 0.268266 
0.134941 0.237854 0.207451 0.213635 0.221472 0.170249 0.1481 0.177802 0.226173 
0.184574 0.0957955 0.0862507 0.089031 0.155105 0.219504 0.198246 0.211226 0.237 
0.228562 0.0892828 0.161214 0.260671 0.270088 0.234763 0.234591 0.268911 0.252149 
0.21587 
