# vtk DataFile Version 3.0
vtk output
ASCII
DATASET POLYDATA
POINTS 383 float
0.127092 0.0689874 0.737755 -0.407264 0.0125479 -0.275101 -0.0507046 -0.487375 -0.555394 
4.37088 0.0778513 -1.26485 4.89868 -0.109592 -1.13398 5.14672 0.391931 -1.17332 
5.00492 -0.137602 -1.12874 5.75455 0.371682 -1.29 0.13307 0.109534 -1.47557 
4.72319 0.260035 -1.37295 5.24263 0.217584 -1.35592 5.963 1.06702 -1.41495 
6.08535 0.777779 -1.74713 6.4838 1.10961 -1.74044 4.6554 0.357719 -1.78533 
8.24318 0.375627 -1.69604 4.16097 -0.0389436 -1.96266 4.20689 -0.504584 -1.91913 
7.16412 1.11997 -2.39378 8.24773 0.494144 -2.30938 8.62658 -0.00257164 -2.25459 
1.31447 0.264281 -2.66505 1.37652 0.295924 -2.5994 1.43623 0.310621 -2.5769 
1.50052 0.334212 -2.59974 1.56515 0.356356 -2.63732 1.62551 0.365264 -2.65892 
1.68683 0.380483 -2.66619 1.74615 0.389643 -2.66552 1.80744 0.404756 -2.67278 
1.86714 0.412574 -2.68686 1.9288 0.426345 -2.70887 1.98831 0.434834 -2.71558 
2.04941 0.450618 -2.71547 2.10871 0.459672 -2.71479 2.1699 0.471691 -2.73665 
2.22718 0.469114 -2.75729 2.28409 0.467879 -2.76317 2.34435 0.483252 -2.74816 
2.40324 0.493542 -2.73273 2.4635 0.508916 -2.71772 2.52003 0.509022 -2.70885 
2.57657 0.509129 -2.69999 2.63738 0.52249 -2.7071 2.69665 0.531438 -2.70642 
2.7571 0.546141 -2.69878 2.81326 0.547589 -2.67517 2.86958 0.548271 -2.65892 
2.92952 0.561105 -2.65113 2.98572 0.558577 -2.64948 3.03934 0.546431 -2.64701 
3.09249 0.532532 -2.6444 3.14564 0.518633 -2.64179 3.19926 0.506487 -2.63933 
3.25527 0.504629 -2.6303 3.31481 0.5187 -2.60775 3.36989 0.520207 -2.56185 
3.4222 0.512757 -2.50776 3.47423 0.502884 -2.4609 3.5266 0.491563 -2.42878 
3.57898 0.480243 -2.39667 3.63098 0.470263 -2.3498 3.68277 0.46085 -2.29554 
3.73424 0.448907 -2.24851 3.78323 0.42357 -2.22265 3.82608 0.372592 -2.20948 
3.86844 0.319755 -2.19616 3.91386 0.281075 -2.16917 3.95525 0.231486 -2.11897 
3.99646 0.18257 -2.06138 4.04129 0.145806 -2.01227 4.08274 0.0923372 -1.98403 
4.122 0.0279086 -1.96973 8.57345 0.0114331 -2.25721 8.52017 0.026215 -2.25246 
8.46683 0.0448676 -2.22575 8.41544 0.079022 -2.15576 8.3699 0.143275 -2.04371 
8.32688 0.221017 -1.91051 8.28474 0.299276 -1.7922 8.26617 0.449378 -2.10395 
8.26033 0.411012 -1.89972 7.1069 1.11866 -2.39511 7.04369 1.09502 -2.39456 
6.98052 1.07149 -2.39402 6.92379 1.07204 -2.39551 6.86962 1.08212 -2.3978 
6.81271 1.08335 -2.39191 6.74879 1.0625 -2.36187 6.68363 1.04587 -2.28513 
6.62268 1.05835 -2.1514 6.55852 1.08456 -1.96196 4.18342 -0.441702 -1.92545 
4.1841 -0.385192 -1.93057 4.19445 -0.331228 -1.93522 4.19701 -0.275211 -1.94025 
4.18494 -0.215337 -1.94601 4.18562 -0.158827 -1.95113 4.18455 -0.101853 -1.95634 
4.13727 -0.534838 -1.82142 4.07015 -0.568239 -1.75312 4.01372 -0.607567 -1.72121 
3.97425 -0.653232 -1.71061 3.92997 -0.69825 -1.70764 3.89069 -0.744586 -1.70442 
3.83501 -0.786598 -1.70201 3.76967 -0.826065 -1.70007 3.70445 -0.865562 -1.69813 
3.65053 -0.908039 -1.69563 3.62089 -0.956916 -1.69194 3.59124 -1.00579 -1.68824 
3.53744 -1.0483 -1.68574 3.47397 -1.08826 -1.68371 3.41828 -1.13027 -1.6813 
3.37695 -1.17544 -1.67079 3.32082 -1.21598 -1.65365 3.25531 -1.25155 -1.62976 
3.191 -1.27838 -1.6215 3.1309 -1.29183 -1.62925 3.06773 -1.31945 -1.65065 
3.00437 -1.34639 -1.66468 2.94429 -1.35975 -1.67243 2.88056 -1.38535 -1.67172 
2.81686 -1.41086 -1.67101 2.75706 -1.42177 -1.67153 2.69572 -1.43709 -1.66425 
2.63555 -1.44667 -1.65003 2.57131 -1.47006 -1.62721 2.50792 -1.49302 -1.61928 
2.45142 -1.49303 -1.62816 2.39833 -1.48301 -1.65273 2.34552 -1.47056 -1.67008 
2.29209 -1.45908 -1.67992 2.23589 -1.45655 -1.68158 2.17576 -1.46872 -1.68199 
2.11907 -1.46806 -1.68349 2.06237 -1.46739 -1.68499 2.0024 -1.48033 -1.69277 
1.94608 -1.48101 -1.70902 1.88995 -1.48236 -1.73263 1.83 -1.49519 -1.74043 
1.7734 -1.49143 -1.72733 1.71817 -1.47712 -1.68538 1.66045 -1.46933 -1.62803 
1.59885 -1.47603 -1.56946 1.54153 -1.46947 -1.52687 1.48735 -1.45531 -1.50721 
1.43401 -1.44074 -1.50245 1.38089 -1.42674 -1.50507 1.32777 -1.41273 -1.50769 
1.27443 -1.39816 -1.50292 1.22025 -1.384 -1.48326 1.16293 -1.37745 -1.44067 
1.10152 -1.38482 -1.38947 1.0442 -1.37827 -1.34688 0.990021 -1.36411 -1.32722 
0.936683 -1.34954 -1.32246 0.88356 -1.33553 -1.32508 0.830438 -1.32153 -1.3277 
0.777344 -1.30742 -1.33033 0.724719 -1.29155 -1.3331 0.674669 -1.26607 -1.33669 
0.628529 -1.226 -1.34151 0.578321 -1.19974 -1.33772 0.525633 -1.18 -1.31854 
0.474519 -1.15029 -1.2779 0.427568 -1.10365 -1.23124 0.379498 -1.06256 -1.19156 
0.333634 -1.01598 -1.1672 0.286623 -0.975047 -1.14979 0.243334 -0.918846 -1.12624 
0.200045 -0.862644 -1.10269 0.152473 -0.819696 -1.06316 0.106076 -0.770994 -1.01668 
0.0575849 -0.724334 -0.937833 0.013695 -0.65886 -0.83826 -0.0236448 -0.57775 -0.705219 
4.26153 -0.493781 -1.81457 4.32291 -0.460097 -1.72679 4.38566 -0.415213 -1.64744 
4.43729 -0.365406 -1.56881 4.46074 -0.307437 -1.48422 4.46154 -0.244739 -1.41549 
4.43489 -0.176246 -1.3666 4.39898 -0.104878 -1.3368 4.37273 -0.0235591 -1.30394 
4.22376 0.0173187 -1.7467 4.29164 0.0614125 -1.51462 8.17514 0.369538 -1.50376 
8.11415 0.38563 -1.33565 8.05732 0.409078 -1.21273 8.00212 0.430357 -1.13422 
7.94769 0.449058 -1.08522 7.89323 0.467654 -1.03621 7.8383 0.484498 -0.987047 
7.7808 0.491723 -0.937081 7.7196 0.483786 -0.893272 7.66259 0.492869 -0.843462 
7.61092 0.520519 -0.802639 7.56403 0.56327 -0.777955 7.51448 0.590619 -0.781699 
7.46496 0.618064 -0.785451 7.41916 0.660776 -0.783055 7.37162 0.699747 -0.765486 
7.32561 0.743023 -0.755714 7.27543 0.769387 -0.751941 7.2233 0.787109 -0.754875 
7.17346 0.812024 -0.765847 7.12772 0.850856 -0.785415 7.07892 0.875521 -0.818658 
7.03012 0.900186 -0.851901 6.98513 0.936333 -0.900977 6.93623 0.957895 -0.948816 
6.88541 0.970919 -1.00337 6.83595 0.994494 -1.02909 6.78981 1.03457 -1.0339 
6.73941 1.0615 -1.02275 6.68747 1.07855 -1.03306 6.63857 1.10011 -1.0809 
6.59467 1.1323 -1.17175 6.54925 1.14426 -1.31287 6.50922 1.13588 -1.50658 
6.4097 1.13974 -1.7773 6.34869 1.15724 -1.79533 6.29054 1.16002 -1.78465 
6.22622 1.14023 -1.74232 6.16103 1.1201 -1.68262 6.09886 1.11403 -1.60923 
6.03239 1.09461 -1.51986 6.39888 1.04581 -1.76903 6.34718 0.991364 -1.78771 
6.29171 0.947077 -1.79352 6.23551 0.903317 -1.78749 6.17994 0.848106 -1.77048 
6.08752 0.692386 -1.59497 6.07566 0.633986 -1.47686 6.04743 0.588352 -1.40498 
5.99483 0.547779 -1.37434 5.94072 0.50614 -1.362 5.89859 0.460683 -1.34901 
5.83658 0.417441 -1.32433 4.6893 0.308877 -1.57914 6.04456 0.899962 -1.58518 
6.00348 0.991839 -1.47405 5.90407 1.07165 -1.3499 5.83884 1.05141 -1.29018 
5.77094 1.01845 -1.24427 5.70322 0.981591 -1.22031 5.63759 0.942823 -1.21101 
5.58191 0.900811 -1.20859 5.54244 0.855147 -1.198 5.4976 0.81214 -1.1729 
5.4572 0.76983 -1.12544 5.40031 0.732488 -1.07139 5.33562 0.696582 -1.02513 
5.27948 0.656555 -1.00059 5.24029 0.610194 -0.997363 5.19856 0.56264 -1.01641 
5.17388 0.508725 -1.05677 5.15933 0.450895 -1.1114 5.668 0.343019 -1.3888 
5.59458 0.308704 -1.43217 5.52891 0.283361 -1.41914 5.4676 0.273748 -1.38509 
5.40185 0.249944 -1.36227 5.32832 0.224773 -1.3544 5.25533 0.147645 -1.14835 
5.27158 0.0954111 -0.949734 5.28267 0.063092 -0.775384 5.31748 0.050128 -0.646832 
5.36687 0.043324 -0.570562 5.4227 0.0453655 -0.539571 5.48641 0.0708735 -0.540277 
5.55375 0.105845 -0.564072 5.62222 0.140019 -0.617526 5.6895 0.172135 -0.700586 
5.74437 0.204696 -0.818725 5.7637 0.246087 -0.960886 5.75544 0.301424 -1.12238 
5.19204 0.309128 -1.2688 4.65592 0.221192 -1.37112 4.58896 0.184339 -1.36574 
4.52334 0.156384 -1.34998 4.45529 0.13416 -1.3162 4.7829 0.248735 -1.48945 
4.84562 0.255483 -1.57032 4.90576 0.264966 -1.58453 4.96815 0.295162 -1.53362 
5.02927 0.330159 -1.43109 5.08636 0.354249 -1.30535 0.117208 0.0626197 -1.40474 
0.101533 0.0150339 -1.34128 0.086045 -0.0332226 -1.2852 0.0707438 -0.0821504 -1.2365 
0.0552556 -0.130407 -1.18042 0.0397672 -0.178663 -1.12434 0.0242791 -0.22692 -1.06826 
0.00897783 -0.275848 -1.01956 -0.00673892 -0.323287 -0.953633 -0.0229178 -0.369447 -0.858076 
-0.038381 -0.420396 -0.719909 4.9518 -0.123597 -1.13136 4.33224 0.14868 -1.05278 
4.28455 0.203159 -0.876662 4.2364 0.259782 -0.741667 4.18725 0.308329 -0.639442 
4.14156 0.369266 -0.541983 4.09283 0.418833 -0.443556 4.03328 0.430749 -0.327111 
3.97412 0.444108 -0.210779 3.91465 0.454939 -0.101667 3.85225 0.450731 -0.0135795 
3.79369 0.458102 0.0586755 3.73547 0.464033 0.116184 3.67353 0.454698 0.167545 
3.61312 0.44967 0.211109 3.55052 0.439254 0.269994 3.48936 0.43691 0.343067 
3.42651 0.431035 0.431284 3.36858 0.43939 0.496023 3.31352 0.453034 0.530591 
3.25709 0.456022 0.536332 3.1959 0.444012 0.558193 3.13501 0.437222 0.601906 
3.06984 0.417187 0.661601 3.00567 0.396796 0.699034 2.94789 0.397505 0.719825 
2.89026 0.397438 0.733256 2.826 0.373952 0.756084 2.75938 0.340273 0.772336 
2.69552 0.315543 0.78041 2.63877 0.316001 0.77893 2.58462 0.326183 0.776632 
2.5284 0.328606 0.774986 2.46829 0.316548 0.77456 2.41207 0.318961 0.772916 
2.35795 0.329249 0.770608 2.30173 0.331671 0.768963 2.24162 0.319604 0.768538 
2.1854 0.322026 0.766893 2.13109 0.332986 0.771963 2.07449 0.33674 0.785063 
2.01383 0.326695 0.806758 1.95723 0.33046 0.819868 1.90274 0.342089 0.832304 
1.84596 0.346525 0.852791 1.78492 0.337812 0.889232 1.72779 0.343695 0.924453 
1.67361 0.357855 0.944111 1.62024 0.372318 0.948886 1.56643 0.385137 0.953799 
1.50965 0.389571 0.974275 1.44809 0.378905 1.01089 1.38754 0.370667 1.03987 
1.32337 0.343406 1.04072 1.25781 0.30549 1.01275 1.19454 0.274769 0.976735 
1.13481 0.259976 0.954248 1.07111 0.234478 0.954954 1.00732 0.212745 0.977633 
0.949159 0.214796 1.01318 0.89119 0.216176 1.04135 0.827958 0.19243 1.0419 
0.765033 0.164353 1.0131 0.706171 0.150077 0.975704 0.645603 0.132174 0.953479 
0.586464 0.122343 0.945432 0.525365 0.106559 0.94532 0.46604 0.0973993 0.94465 
0.405098 0.0808382 0.937169 0.345865 0.0679133 0.914525 0.283336 0.038582 0.870972 
0.221967 0.0122086 0.819725 0.169966 0.022188 0.772861 -0.135889 -0.494118 -0.291574 
-0.20043 -0.462479 -0.0654361 -0.248569 -0.396207 0.0959715 -0.289999 -0.324209 0.167733 
-0.326918 -0.25852 0.153377 -0.352186 -0.202006 0.0657529 -0.360306 -0.152499 -0.0505619 
-0.373605 -0.101006 -0.159755 -0.38275 -0.0474976 -0.231812 
LINES 24 433
53 21 22 23 24 25 26 27 28 29 30 31 32 33 34 35 36 37 38 39 40 41 42 43 44 45 46 47 48 49 50 51 52 53 54 55 56 57 58 59 60 61 62 63 64 65 66 67 68 69 70 71 72 16 
9 20 73 74 75 76 77 78 79 15 
4 19 80 81 15 
12 18 82 83 84 85 86 87 88 89 90 91 13 
9 17 92 93 94 95 96 97 98 16 
80 17 99 100 101 102 103 104 105 106 107 108 109 110 111 112 113 114 115 116 117 118 119 120 121 122 123 124 125 126 127 128 129 130 131 132 133 134 135 136 137 138 139 140 141 142 143 144 145 146 147 148 149 150 151 152 153 154 155 156 157 158 159 160 161 162 163 164 165 166 167 168 169 170 171 172 173 174 175 176 2 
11 17 177 178 179 180 181 182 183 184 185 3 
4 16 186 187 3 
36 15 188 189 190 191 192 193 194 195 196 197 198 199 200 201 202 203 204 205 206 207 208 209 210 211 212 213 214 215 216 217 218 219 220 221 13 
9 13 222 223 224 225 226 227 228 11 
7 13 229 230 231 232 233 12 
9 12 234 235 236 237 238 239 240 7 
3 14 241 9 
4 12 242 243 11 
18 11 244 245 246 247 248 249 250 251 252 253 254 255 256 257 258 259 5 
8 7 260 261 262 263 264 265 10 
15 10 266 267 268 269 270 271 272 273 274 275 276 277 278 7 
3 10 279 5 
6 9 280 281 282 283 3 
8 9 284 285 286 287 288 289 5 
13 8 290 291 292 293 294 295 296 297 298 299 300 2 
3 6 301 4 
74 3 302 303 304 305 306 307 308 309 310 311 312 313 314 315 316 317 318 319 320 321 322 323 324 325 326 327 328 329 330 331 332 333 334 335 336 337 338 339 340 341 342 343 344 345 346 347 348 349 350 351 352 353 354 355 356 357 358 359 360 361 362 363 364 365 366 367 368 369 370 371 372 373 0 
11 2 374 375 376 377 378 379 380 381 382 1 

POINT_DATA 383
SCALARS DY_raw double
LOOKUP_TABLE default
37.4537 21.6062 27.6732 32.9811 40.118 58.2278 27.0829 20.3494 42.7196 
49.8045 39.7331 16.6631 18.424 22.6986 27.01 24.4263 26.5074 13.2083 
0 38.8164 13.0649 41.6126 48.379 65.3152 55.7359 59.9428 33.4523 
27.2662 41.0178 36.1119 54.2501 49.3683 61.2672 61.2672 79.3138 73.323 
94.5342 89.454 62.2924 69.6665 37.0321 34.6514 37.3196 42.0716 60.2714 
60.2714 59.1928 65.8871 55.723 37.8308 37.8308 29.4958 31.4183 31.4183 
24.9788 31.4856 31.4856 41.6673 56.1715 65.4462 43.2941 51.0807 50.7291 
39.1676 39.1676 20.0267 13.7294 18.8827 13.6558 15.7479 17.7056 28.36 
29.8525 13.0649 16.534 16.534 10.7467 10.9274 13.4177 20.1979 22.4821 
26.2526 7.31026 14.4658 14.1656 11.7171 19.0681 14.4124 14.4124 18.7211 
22.5674 15.3986 14.0772 14.0772 14.7326 12.5968 12.5968 19.7804 20.3658 
28.5328 41.038 35.9572 51.5351 46.5569 53.6248 57.2409 56.1229 35.1321 
34.714 33.7742 32.2719 42.4874 45.4824 56.8698 67.9593 59.4321 49.1538 
41.0802 38.7814 32.379 42.3067 37.1266 37.1266 39.4965 35.9026 44.8679 
55.2497 55.2497 51.4814 46.6866 46.6866 35.1153 31.4089 31.4089 30.6498 
27.0766 27.4704 35.3992 35.3992 38.7516 42.9411 42.9411 30.1877 35.2914 
39.3088 46.2839 54.4 45.4094 42.0295 42.0295 38.2657 40.0058 44.6028 
45.4919 43.2887 50.7794 40.6367 59.2009 66.9495 67.7987 75.996 70.0325 
70.0325 53.5772 49.0308 45.2016 34.6632 34.8491 34.3941 39.8065 34.3701 
32.8213 33.3681 33.3568 35.0455 37.6799 35.9858 11.7413 16.1459 19.6933 
17.7104 20.8826 23.8377 27.2892 26.3762 29.3223 31.3743 32.331 23.2302 
32.375 35.7444 32.3439 27.9049 30.0993 27.1787 29.8282 31.8619 13.331 
9.03401 13.8235 10.4885 10.573 14.3403 16.6647 22.2926 24.1489 25.7735 
29.1159 42.9278 56.8681 54.1131 47.6155 39.3166 32.4684 23.7939 29.7857 
31.9319 38.5548 42.4292 34.2615 32.4152 30.3351 25.6063 31.8734 34.0358 
32.1396 27.0649 33.6998 15.9947 22.2177 25.7239 29.7008 24.1651 23.5151 
20.9498 22.8502 22.1035 27.4286 24.1671 21.8701 16.6726 37.5641 18.5025 
12.2617 19.8157 26.534 29.4675 29.4675 32.995 27.107 34.4439 16.6172 
20.9673 31.3586 41.4313 46.6859 51.1394 50.5799 49.2136 46.6811 14.5704 
19.5739 19.551 27.8604 32.7388 36.0528 39.2362 34.5236 28.0938 27.7329 
27.7513 22.4461 29.2766 27.0539 25.9386 41.3306 34.8732 33.2731 29.967 
49.2575 39.7812 34.7254 36.9621 41.6735 42.077 37.431 42.3565 50.4297 
65.7174 60.951 43.6359 34.4554 31.3777 34.4915 25.5843 23.2471 27.4463 
32.2644 39.26 41.3589 40.2756 27.0829 46.9128 38.3265 34.4888 37.8858 
32.5834 30.8794 26.7124 34.3761 29.1296 27.1625 35.8195 43.1115 49.1644 
36.1647 30.392 24.5564 32.3388 36.0095 31.3411 31.3411 39.1947 41.495 
61.5939 61.9414 56.7319 37.8349 43.2519 45.6604 32.244 33.1092 30.2867 
24.5588 24.5588 28.0385 22.1738 22.1738 25.9533 27.7591 22.3557 18.8307 
24.2134 24.2134 36.8879 35.9259 35.9259 10.349 10.349 17.9297 31.711 
31.711 47.787 38.8745 34.6131 37.2625 30.4145 30.2253 30.2253 24.3298 
21.808 14.8501 2.95831 22.7603 23.5421 47.7977 64.0295 64.0295 42.8537 
34.8005 26.5855 33.6779 34.1335 34.0681 32.7403 29.314 23.7036 30.1072 
30.1276 28.5385 26.5321 26.0255 21.6062 
FIELD FieldData 7
DY_minmax 1 383 double
0.396192 0.228554 0.292732 0.34888 0.424376 0.615944 0.286487 0.21526 0.451895 
0.526841 0.420304 0.176265 0.194892 0.24011 0.285717 0.258386 0.280401 0.13972 
0 0.410606 0.138202 0.440186 0.511762 0.690916 0.589584 0.634085 0.353864 
0.288427 0.433894 0.381998 0.573868 0.522227 0.648096 0.648096 0.838996 0.775624 
1 0.94626 0.658941 0.736945 0.391733 0.366549 0.394773 0.445041 0.637562 
0.637562 0.626152 0.696966 0.589448 0.400182 0.400182 0.312012 0.332348 0.332348 
0.26423 0.333061 0.333061 0.440764 0.594192 0.692302 0.457973 0.540341 0.536622 
0.414322 0.414322 0.211846 0.145232 0.199745 0.144453 0.166585 0.187293 0.299997 
0.315785 0.138202 0.1749 0.1749 0.11368 0.115592 0.141934 0.213657 0.23782 
0.277704 0.0773293 0.153021 0.149846 0.123946 0.201705 0.152457 0.152457 0.198035 
0.238722 0.16289 0.148911 0.148911 0.155844 0.133252 0.133252 0.209241 0.215433 
0.301825 0.434107 0.380361 0.545147 0.492487 0.567253 0.605504 0.593678 0.371633 
0.367211 0.357269 0.341378 0.44944 0.481121 0.601579 0.718886 0.628684 0.519957 
0.434554 0.410236 0.342511 0.447528 0.392731 0.392731 0.417801 0.379785 0.474621 
0.584442 0.584442 0.544579 0.49386 0.49386 0.371456 0.33225 0.33225 0.324219 
0.286421 0.290587 0.374459 0.374459 0.409922 0.454239 0.454239 0.319331 0.373319 
0.415816 0.4896 0.575453 0.480349 0.444596 0.444596 0.404782 0.423188 0.471816 
0.481222 0.457916 0.537154 0.429862 0.626238 0.708204 0.717187 0.8039 0.740816 
0.740816 0.566749 0.518657 0.478151 0.366673 0.36864 0.363827 0.42108 0.363573 
0.347189 0.352974 0.352854 0.370717 0.398585 0.380665 0.124202 0.170794 0.20832 
0.187344 0.2209 0.25216 0.288671 0.279012 0.310177 0.331883 0.342003 0.245733 
0.342468 0.378111 0.342139 0.295183 0.318396 0.287501 0.315528 0.33704 0.141017 
0.0955634 0.146228 0.110949 0.111843 0.151694 0.176282 0.235815 0.255451 0.272636 
0.307993 0.454098 0.601561 0.572418 0.503685 0.415898 0.343457 0.251696 0.315078 
0.337781 0.40784 0.448824 0.362424 0.342894 0.32089 0.270868 0.337163 0.360037 
0.339978 0.286297 0.356482 0.169195 0.235023 0.272112 0.314181 0.255622 0.248747 
0.221611 0.241714 0.233814 0.290144 0.255644 0.231346 0.176366 0.39736 0.195723 
0.129706 0.209614 0.280682 0.311712 0.311712 0.349027 0.286742 0.364354 0.175779 
0.221796 0.331717 0.438268 0.493852 0.540961 0.535043 0.520591 0.493801 0.154128 
0.207057 0.206814 0.294713 0.346317 0.381373 0.415048 0.365196 0.297181 0.293363 
0.293559 0.237439 0.309694 0.286181 0.274383 0.437202 0.368895 0.351969 0.316996 
0.521055 0.420813 0.367332 0.390992 0.44083 0.445098 0.395952 0.448055 0.533454 
0.695171 0.644751 0.461588 0.364476 0.331919 0.364857 0.270635 0.245912 0.290332 
0.341299 0.415299 0.437502 0.426043 0.286487 0.496252 0.405425 0.364829 0.400763 
0.344673 0.326648 0.282568 0.363637 0.308139 0.28733 0.378905 0.456041 0.52007 
0.382557 0.321492 0.259762 0.342086 0.380915 0.331532 0.331532 0.414608 0.438942 
0.651551 0.655227 0.60012 0.400224 0.457526 0.483004 0.341083 0.350235 0.320379 
0.259788 0.259788 0.296596 0.234559 0.234559 0.274539 0.29364 0.236483 0.199195 
0.256134 0.256134 0.390206 0.380031 0.380031 0.109474 0.109474 0.189664 0.335445 
0.335445 0.5055 0.411222 0.366144 0.394169 0.32173 0.319728 0.319728 0.257365 
0.230689 0.157087 0.0312935 0.240763 0.249032 0.505612 0.677316 0.677316 0.453314 
0.368126 0.281227 0.356251 0.36107 0.360379 0.346333 0.310089 0.250741 0.318479 
0.318696 0.301886 0.280661 0.275303 0.228554 
WidthEq 1 383 double
1.09468 3.91971 3.40076 5.19267 3.73822 3.28554 4.01324 4.09742 3.91273 
2.31344 4.55288 4.02626 3.58608 3.76763 1 3.21948 4.35915 2.45754 
1.50955 2.83618 3.50941 3.10867 3.33554 3.04875 2.98479 2.72994 2.76244 
2.71875 2.32216 2.37263 2.12387 2.36549 2.06799 2.06799 1.76262 1.95109 
1.74445 1.98896 2.27684 1.79943 2.08522 2.14046 1.89874 2.21456 2.25032 
2.25032 2.61924 2.3302 2.74806 3.26533 3.26533 3.20961 2.98075 2.98075 
3.00055 3.10936 3.10936 3.18571 2.50145 2.32894 2.99902 2.66598 2.78361 
2.8064 2.8064 2.58405 2.44221 2.33335 2.5945 3.17946 3.35996 4.29866 
4.17687 3.50941 4.53429 4.53429 4.3111 4.15104 4.92783 4.44848 4.01119 
3.78249 2.50743 3.19375 3.58262 3.58194 3.24889 2.72474 2.72474 2.90528 
3.04865 4.14647 2.7406 2.7406 2.85828 3.68823 3.68823 4.45694 4.86109 
2.74175 2.68824 2.40036 2.10323 2.07918 2.06789 1.89585 1.82564 2.42997 
2.39442 2.9191 2.80089 2.31927 2.22086 2.11536 1.93439 2.27705 2.55281 
2.66503 2.96998 3.16471 2.64733 2.67275 2.67275 2.45592 2.52461 2.4639 
2.16598 2.16598 2.16719 2.26382 2.26382 2.50318 2.68267 2.68267 2.95565 
3.318 3.67231 4.11648 4.11648 4.42459 4.32313 4.32313 4.97189 4.78757 
4.55088 3.69437 3.3682 3.92958 3.26128 3.26128 2.92246 2.59188 2.50276 
2.3835 2.25463 1.99904 2.07104 1.81298 1.77806 1.7403 1.7622 2.30436 
2.30436 2.66046 2.73094 2.80278 2.97319 3.21701 3.14501 3.1834 3.36484 
3.30639 3.31574 3.38732 3.35906 3.32724 3.23933 2.63599 2.67994 3.25897 
3.61313 3.74762 3.61444 3.91693 4.16663 4.91843 4.89732 5.26461 3.59317 
3.43815 3.35045 3.43589 3.43631 3.32267 3.04172 2.89189 2.77636 2.87976 
2.72747 2.62885 2.72012 2.6842 2.74611 2.5767 2.71077 2.84195 2.657 
2.5924 2.46437 2.26366 2.25158 2.48574 2.86317 2.87787 3.25041 3.65042 
3.34399 3.39698 3.28854 3.72693 3.69857 3.49397 3.81899 3.50637 2.99214 
2.47141 2.1914 2.7291 3.36048 3.9509 3.79142 3.53189 3.51582 3.60278 
3.44251 2.92514 2.86516 2.6425 3.29662 3.70598 4.07794 1.99925 3.42602 
3.74174 3.93678 3.96661 3.48452 3.48452 3.17169 3.11876 2.83591 3.31705 
3.246 2.62066 2.76071 2.81648 2.36706 2.70977 2.93821 3.35082 3.7034 
3.28549 3.5456 4.17761 4.43877 4.49674 4.23002 3.8423 3.83537 4.21017 
4.45925 5.16037 4.7485 5.45356 5.58164 4.85137 4.68726 4.19678 4.06948 
4.27082 2.22643 2.62344 3.29689 4.45415 2.62234 2.95691 2.82578 2.44757 
2.64024 3.38747 3.92727 4.67009 4.69824 4.58055 4.46681 4.43798 4.30112 
4.18727 3.85533 3.72278 3.33155 4.01324 4.10293 3.9247 3.86299 3.21229 
3.05616 2.98905 2.75079 2.80078 2.82599 2.81344 2.53968 2.7698 2.46479 
2.72337 2.30126 2.12612 1.97163 1.47489 1.60875 1.60875 1.23001 1.3633 
1.2662 1.55324 1.57425 1.74019 1.87321 1.79696 2.23824 2.23835 2.38586 
2.37063 2.37063 2.30861 2.62066 2.62066 2.49294 2.24575 2.52419 2.2134 
2.19135 2.19135 2.26497 2.17475 2.17475 2.17895 2.17895 2.135 1.74166 
1.74166 1.41628 1.4449 1.63464 1.54794 1.60318 1.80379 1.80379 1.9992 
1.69892 2.03097 1.96396 1.44154 1.55424 1.48103 1.53523 1.53523 1.71467 
1.74739 1.94091 1.93628 1.53896 1.26893 4.26447 4.45862 4.21033 3.89807 
3.8151 4.15088 4.81493 4.99894 3.91971 
rRFP 1 383 double
2463.17 3001.12 2902.3 3243.52 2966.56 2880.36 3018.93 3034.96 2999.79 
2695.25 3121.69 3021.41 2937.59 2972.16 2445.14 2867.78 3084.8 2722.69 
2542.17 2794.79 2922.99 2846.68 2889.88 2835.27 2823.09 2774.56 2780.75 
2772.43 2696.91 2706.52 2659.15 2705.16 2648.51 2648.51 2590.36 2626.25 
2586.9 2633.46 2688.28 2597.37 2651.79 2662.31 2616.28 2676.42 2683.23 
2683.23 2753.48 2698.44 2778.01 2876.51 2876.51 2865.9 2822.32 2822.32 
2826.09 2846.81 2846.81 2861.35 2731.05 2698.2 2825.8 2762.38 2784.78 
2789.12 2789.12 2746.78 2719.77 2699.04 2748.77 2860.16 2894.53 3073.28 
3050.09 2922.99 3118.15 3118.15 3075.65 3045.17 3193.09 3101.81 3018.54 
2974.99 2732.19 2862.88 2936.93 2936.8 2873.38 2773.57 2773.57 2807.95 
2835.25 3044.3 2776.59 2776.59 2799 2957.04 2957.04 3103.42 3180.38 
2776.81 2766.62 2711.8 2655.22 2650.64 2648.49 2615.73 2602.36 2717.44 
2710.67 2810.58 2788.07 2696.36 2677.62 2657.53 2623.07 2688.32 2740.83 
2762.2 2820.27 2857.35 2758.83 2763.67 2763.67 2722.38 2735.46 2723.9 
2667.17 2667.17 2667.4 2685.8 2685.8 2731.38 2765.56 2765.56 2817.54 
2886.54 2954.01 3038.59 3038.59 3097.26 3077.94 3077.94 3201.48 3166.38 
3121.31 2958.21 2896.1 3003 2875.74 2875.74 2811.22 2748.27 2731.3 
2708.59 2684.05 2635.38 2649.09 2599.95 2593.3 2586.11 2590.28 2693.52 
2693.52 2761.33 2774.75 2788.43 2820.88 2867.31 2853.6 2860.91 2895.46 
2884.33 2886.11 2899.74 2894.36 2888.3 2871.56 2756.67 2765.04 2875.3 
2942.74 2968.35 2942.99 3000.59 3048.14 3191.3 3187.28 3257.22 2938.94 
2909.42 2892.72 2908.99 2909.07 2887.43 2833.93 2805.4 2783.4 2803.09 
2774.09 2755.31 2772.69 2765.85 2777.64 2745.38 2770.91 2795.89 2760.67 
2748.37 2723.99 2685.77 2683.47 2728.06 2799.93 2802.73 2873.67 2949.84 
2891.49 2901.58 2880.93 2964.41 2959.01 2920.05 2981.94 2922.41 2824.49 
2725.33 2672.01 2774.4 2894.63 3007.06 2976.69 2927.27 2924.21 2940.77 
2910.25 2811.73 2800.31 2757.91 2882.47 2960.42 3031.25 2635.42 2907.11 
2967.23 3004.37 3010.05 2918.25 2918.25 2858.68 2848.6 2794.74 2886.36 
2872.83 2753.75 2780.42 2791.04 2705.46 2770.72 2814.22 2892.79 2959.93 
2880.35 2929.88 3050.23 3099.96 3111 3060.21 2986.38 2985.06 3056.43 
3103.86 3237.37 3158.94 3293.2 3317.59 3178.53 3147.28 3053.88 3029.64 
3067.98 2678.68 2754.28 2882.52 3102.89 2754.07 2817.78 2792.81 2720.79 
2757.48 2899.77 3002.56 3144.01 3149.37 3126.96 3105.3 3099.81 3073.75 
3052.07 2988.86 2963.62 2889.12 3018.93 3036.01 3002.07 2990.32 2866.41 
2836.68 2823.9 2778.53 2788.05 2792.85 2790.46 2738.33 2782.15 2724.07 
2773.31 2692.93 2659.58 2630.16 2535.57 2561.06 2561.06 2488.94 2514.32 
2495.83 2550.49 2554.49 2586.09 2611.42 2596.9 2680.93 2680.95 2709.04 
2706.14 2706.14 2694.33 2753.75 2753.75 2729.43 2682.36 2735.38 2676.2 
2672 2672 2686.02 2668.84 2668.84 2669.64 2669.64 2661.27 2586.37 
2586.37 2524.41 2529.86 2565.99 2549.48 2560 2598.2 2598.2 2635.41 
2578.23 2641.46 2628.7 2529.22 2550.68 2536.74 2547.06 2547.06 2581.23 
2587.46 2624.31 2623.43 2547.77 2496.35 3066.77 3103.74 3056.46 2997 
2981.2 3045.14 3171.59 3206.63 3001.12 
rGFP 1 383 double
2428.68 2472.37 2481.79 2558.94 2537.65 2578.99 2496.37 2471.06 2554.83 
2502.9 2568.58 2454.77 2453.75 2473.2 2414.69 2466.32 2503.23 2420.14 
2387.68 2497.77 2433.53 2517.04 2549.05 2586.81 2554.04 2551.32 2480.09 
2461.81 2482.93 2473.36 2502.9 2504.46 2514.38 2514.38 2527.48 2530.74 
2552.59 2565.6 2529.51 2513.04 2464.9 2461.85 2458.54 2480.85 2523.31 
2523.31 2542.72 2541.21 2540.81 2511.21 2511.21 2482.35 2481.33 2481.33 
2462.63 2485.58 2485.58 2520.42 2528.19 2540.1 2517.52 2523.86 2528.89 
2497.6 2497.6 2439.43 2421.21 2431.74 2423.11 2437.75 2447.17 2509.59 
2512.37 2433.53 2462.65 2462.65 2434.01 2433.04 2453.8 2477.53 2477.86 
2486.98 2406.01 2433.88 2438.43 2429.65 2449.63 2426.95 2426.95 2442.07 
2456.48 2451.53 2426.26 2426.26 2429.79 2434.14 2434.14 2475.84 2486.68 
2465.91 2498 2473.99 2496.07 2484.48 2498.57 2496.2 2490.14 2473.05 
2470.8 2486.27 2478.07 2486.22 2488.69 2507.98 2519.14 2523.01 2513.16 
2497.16 2502.86 2490.15 2499.68 2486.91 2486.91 2484.68 2478.32 2498.23 
2507.35 2507.35 2499.25 2493.37 2493.37 2475.58 2471.94 2471.94 2478.27 
2477.52 2488.56 2533.4 2533.4 2559.14 2573.32 2573.32 2537.77 2556.64 
2566.57 2558.67 2570.91 2566.12 2524.75 2524.75 2499.51 2491.37 2499.31 
2496.11 2485.28 2489.19 2471.84 2495.01 2506.72 2505.67 2521.6 2549.06 
2549.06 2530.22 2521.58 2514.37 2490.74 2499.79 2495.85 2514.4 2503.33 
2496.2 2498.32 2500.67 2505.4 2513.05 2504.25 2418.63 2430.95 2451.86 
2451.67 2465.94 2473.84 2494.57 2497.58 2531.9 2541.33 2557.89 2471.15 
2498.99 2507.44 2498.81 2483.57 2487.69 2470.35 2473.94 2476.14 2426.07 
2412.32 2424.02 2416.21 2416.06 2427.06 2430.62 2448.11 2456.31 2456.16 
2463.16 2493.47 2516.41 2509.52 2506.04 2500.25 2481.12 2465.02 2496.41 
2494.46 2518.65 2527.21 2515.37 2507.57 2493.67 2485.47 2499.44 2489.52 
2467.11 2446.99 2479.65 2441.43 2475.46 2485.21 2492.58 2472.64 2472.4 
2459.8 2454.52 2451.01 2460.16 2467.35 2468.73 2455.67 2462.78 2451.07 
2433.56 2465.69 2492.93 2490.36 2490.36 2492.33 2472.22 2485.36 2442.8 
2455.74 2469.86 2502.06 2519.17 2508.73 2524.74 2532.28 2544.1 2441.64 
2451.99 2457 2504.07 2533 2549.8 2553.65 2520.33 2495.43 2504.44 
2511.43 2503.51 2526.7 2535.22 2532.46 2588.19 2551.14 2527.32 2509.63 
2598.05 2476.25 2478.78 2509.54 2573.3 2498.02 2498.36 2507.37 2511.11 
2561.19 2594.15 2559.05 2548.59 2535.1 2545.67 2501.96 2490.85 2505.73 
2522.78 2539.04 2541.65 2521.86 2496.37 2580.16 2538.1 2520.91 2509.38 
2487.26 2479.98 2461.16 2483.96 2470 2464.1 2478.65 2507.09 2508.86 
2486.17 2457.62 2439.89 2451.44 2440.79 2438.1 2438.1 2435.89 2444.25 
2465.67 2483.89 2476.99 2453.52 2468.7 2469.73 2459.85 2461.79 2459.94 
2445.9 2445.9 2452.41 2445.79 2445.79 2452.38 2450.02 2444.11 2429.36 
2440.74 2440.74 2471.23 2465.81 2465.81 2410.23 2410.23 2425.96 2442.91 
2442.91 2455.36 2443.85 2444.26 2445.36 2436.44 2442.2 2442.2 2436.32 
2424.73 2417.84 2393.49 2420.49 2424.27 2458.47 2485.98 2485.98 2461.16 
2448.49 2439.28 2452.89 2440.21 2430.91 2527.3 2518.38 2487.48 2505.04 
2502.62 2506.14 2515.43 2517.78 2472.37 
bkstRFP 1 383 double
208.453 746.403 647.583 988.803 711.843 625.643 764.213 780.243 745.073 
440.533 866.973 766.693 682.873 717.443 190.423 613.063 830.083 467.973 
287.453 540.073 668.273 591.963 635.163 580.553 568.373 519.843 526.033 
517.713 442.193 451.803 404.433 450.443 393.793 393.793 335.643 371.533 
332.183 378.743 433.563 342.653 397.073 407.593 361.563 421.703 428.513 
428.513 498.763 443.723 523.293 621.793 621.793 611.183 567.603 567.603 
571.373 592.093 592.093 606.633 476.333 443.483 571.083 507.663 530.063 
534.403 534.403 492.063 465.053 444.323 494.053 605.443 639.813 818.563 
795.373 668.273 863.433 863.433 820.933 790.453 938.373 847.093 763.823 
720.273 477.473 608.163 682.213 682.083 618.663 518.853 518.853 553.233 
580.533 789.583 521.873 521.873 544.283 702.323 702.323 848.703 925.663 
522.093 511.903 457.083 400.503 395.923 393.773 361.013 347.643 462.723 
455.953 555.863 533.353 441.643 422.903 402.813 368.353 433.603 486.113 
507.483 565.553 602.633 504.113 508.953 508.953 467.663 480.743 469.183 
412.453 412.453 412.683 431.083 431.083 476.663 510.843 510.843 562.823 
631.823 699.293 783.873 783.873 842.543 823.223 823.223 946.763 911.663 
866.593 703.493 641.383 748.283 621.023 621.023 556.503 493.553 476.583 
453.873 429.333 380.663 394.373 345.233 338.583 331.393 335.563 438.803 
438.803 506.613 520.033 533.713 566.163 612.593 598.883 606.193 640.743 
629.613 631.393 645.023 639.643 633.583 616.843 501.953 510.323 620.583 
688.023 713.633 688.273 745.873 793.423 936.583 932.563 1002.5 684.223 
654.703 638.003 654.273 654.353 632.713 579.213 550.683 528.683 548.373 
519.373 500.593 517.973 511.133 522.923 490.663 516.193 541.173 505.953 
493.653 469.273 431.053 428.753 473.343 545.213 548.013 618.953 695.123 
636.773 646.863 626.213 709.693 704.293 665.333 727.223 667.693 569.773 
470.613 417.293 519.683 639.913 752.343 721.973 672.553 669.493 686.053 
655.533 557.013 545.593 503.193 627.753 705.703 776.533 380.703 652.393 
712.513 749.653 755.333 663.533 663.533 603.963 593.883 540.023 631.643 
618.113 499.033 525.703 536.323 450.743 516.003 559.503 638.073 705.213 
625.633 675.163 795.513 845.243 856.283 805.493 731.663 730.343 801.713 
849.143 982.653 904.223 1038.48 1062.87 923.813 892.563 799.163 774.923 
813.263 423.963 499.563 627.803 848.173 499.353 563.063 538.093 466.073 