# vtk DataFile Version 3.0
vtk output
ASCII
DATASET POLYDATA
POINTS 416 float
8.61803 -4.96508e-009 1.98108e-007 5.95596 0.533513 0.43733 7.59781 -0.838727 -0.137604 
5.68556 -0.102487 0.00532316 5.43413 -0.157279 -0.351596 8.60104 0.2639 -0.840353 
8.32195 -0.547676 -0.912804 5.69854 -0.593502 -0.833799 5.25676 -0.522761 -0.759458 
5.40107 -0.3448 -0.80368 5.45785 -0.508118 -1.07038 5.27536 0.0260083 -1.08974 
5.29666 0.290151 -1.05175 2.93799 0.968292 -0.820846 2.55801 1.037 -0.621468 
2.43902 1.13648 -0.609421 5.04035 -0.739547 -1.10676 7.25622 1.43909 -1.73087 
2.61816 1.13622 -0.846713 5.83048 -0.819221 -1.51681 4.29606 -0.216604 -1.22588 
5.3978 -0.12554 -1.64213 -0.132495 -0.445779 -0.387613 2.46312 1.21629 -1.03043 
1.71861 1.29137 -0.968881 2.29837 1.33759 -1.14833 0.0378189 1.35321 -1.00603 
0.0944147 1.17368 -1.47542 4.29429 -0.462889 -2.22277 3.04174 1.13175 -2.15024 
-0.105954 0.976671 -1.82764 1.61582 1.57781 -2.34054 1.90385 0.690445 -2.71424 
-0.0524775 0.867922 -2.2631 2.64515 -0.27641 -3.98085 2.62619 -0.459414 -4.16353 
2.63251 -0.398413 -4.10264 2.63883 -0.337412 -4.04174 2.58732 -0.242543 -3.97355 
2.53208 -0.233591 -3.96427 2.47807 -0.236358 -3.95405 2.42426 -0.241039 -3.94368 
2.37045 -0.24572 -3.9333 2.31645 -0.248596 -3.92307 2.26141 -0.241459 -3.91364 
2.20462 -0.217596 -3.90555 2.14722 -0.201381 -3.90416 2.08897 -0.190566 -3.90964 
2.03251 -0.210402 -3.91998 1.97697 -0.212074 -3.91715 1.92067 -0.179401 -3.90245 
1.86704 -0.14529 -3.87326 1.81551 -0.144805 -3.84868 1.7644 -0.161765 -3.83002 
1.70882 -0.149512 -3.821 1.65275 -0.132578 -3.81235 1.59462 -0.109434 -3.81151 
1.53557 -0.104454 -3.82383 1.47357 -0.111743 -3.8571 1.41062 -0.12338 -3.89733 
1.35004 -0.144302 -3.9295 1.29504 -0.178098 -3.93873 1.24115 -0.195425 -3.93465 
1.18888 -0.20141 -3.91686 1.13911 -0.20426 -3.88471 1.09352 -0.20665 -3.83067 
1.05031 -0.218234 -3.76859 1.00732 -0.245549 -3.71256 0.958766 -0.26 -3.67948 
0.906504 -0.265985 -3.6617 0.852717 -0.270884 -3.65131 0.798918 -0.275674 -3.64092 
0.745109 -0.280354 -3.63055 0.691099 -0.283122 -3.62033 0.635865 -0.27417 -3.61105 
0.578017 -0.240194 -3.60376 0.51998 -0.204403 -3.59662 0.463501 -0.183534 -3.58829 
0.406487 -0.157539 -3.58037 0.350197 -0.138474 -3.5719 0.294529 -0.111869 -3.55671 
0.242245 -0.0906471 -3.52649 0.193349 -0.0603289 -3.47508 0.148094 -0.0341496 -3.41637 
0.109526 0.00901666 -3.36814 0.0820412 0.0620763 -3.33807 0.0395686 0.115622 -3.30529 
-0.0100276 0.169845 -3.25613 -0.058625 0.225356 -3.19214 -0.104214 0.281736 -3.12123 
-0.138482 0.339724 -3.04499 -0.152926 0.400077 -2.96507 -0.158071 0.462457 -2.87193 
-0.131696 0.527645 -2.78487 -0.108929 0.593111 -2.68961 -0.0954317 0.657201 -2.60007 
-0.0816407 0.722789 -2.50317 -0.0654113 0.793036 -2.40213 2.69491 -0.232964 -3.99432 
2.74861 -0.213713 -3.99855 2.80488 -0.205562 -3.99458 2.86421 -0.19971 -3.97582 
2.92458 -0.203863 -3.95625 2.98786 -0.222326 -3.92824 3.04824 -0.226588 -3.90866 
3.10778 -0.222749 -3.88974 3.1655 -0.228449 -3.88467 3.22477 -0.24907 -3.8784 
3.28381 -0.253941 -3.86609 3.34715 -0.246032 -3.82557 3.41433 -0.23427 -3.76342 
3.48436 -0.222875 -3.68664 3.55428 -0.223917 -3.61616 3.62682 -0.249985 -3.54369 
3.70222 -0.276528 -3.45657 3.78294 -0.286379 -3.33423 3.8719 -0.307655 -3.17445 
3.96571 -0.334875 -2.99227 4.05867 -0.353985 -2.81074 4.1472 -0.359649 -2.64485 
4.2295 -0.382828 -2.49878 4.28706 -0.419407 -2.36197 -0.0743129 0.924361 -2.06791 
1.9403 0.750528 -2.70421 1.9535 0.809141 -2.68218 1.95371 0.865997 -2.66516 
1.94889 0.921806 -2.65467 1.9302 0.974579 -2.66403 1.89792 1.02674 -2.66325 
1.87989 1.08078 -2.65772 1.86142 1.13537 -2.6446 1.81604 1.18577 -2.6488 
1.7663 1.23457 -2.6672 1.73272 1.28542 -2.68118 1.70244 1.33956 -2.65828 
1.69233 1.3979 -2.60923 1.68444 1.45824 -2.53807 1.65452 1.51781 -2.44766 
-0.00532443 1.07541 -1.64911 -0.175259 0.933114 -1.77776 -0.230108 0.891545 -1.74084 
-0.279309 0.861406 -1.71112 -0.324468 0.818248 -1.6733 -0.367221 0.776274 -1.62343 
-0.409576 0.747665 -1.57496 -0.443246 0.703358 -1.54165 -0.462292 0.649756 -1.5177 
-0.494177 0.593191 -1.49108 -0.524619 0.537243 -1.45722 -0.541568 0.481896 -1.43348 
-0.563572 0.426101 -1.40876 -0.577278 0.371643 -1.37813 -0.591938 0.3189 -1.3248 
-0.587395 0.269069 -1.26015 -0.570107 0.221572 -1.18294 -0.546627 0.175826 -1.09192 
-0.5105 0.132407 -0.98832 -0.459702 0.0902928 -0.887555 -0.426147 0.0454445 -0.798473 
-0.40338 -0.00156422 -0.722321 -0.373872 -0.0485744 -0.654991 -0.32967 -0.0942749 -0.590487 
-0.300296 -0.141296 -0.523121 -0.281923 -0.189897 -0.461142 -0.266221 -0.239936 -0.41367 
-0.244753 -0.291262 -0.389833 -0.209247 -0.342538 -0.383717 -0.178324 -0.394822 -0.384227 
3.02595 1.18564 -2.12241 2.98947 1.22706 -2.07439 2.94556 1.24143 -2.01475 
2.89947 1.2449 -1.9612 2.84843 1.25419 -1.93003 2.79315 1.27707 -1.91454 
2.73791 1.28602 -1.90526 2.68267 1.29507 -1.89598 2.62586 1.31915 -1.88791 
2.56959 1.338 -1.87942 2.51412 1.36269 -1.86408 2.46307 1.37209 -1.83291 
2.41823 1.37606 -1.77207 2.37849 1.38928 -1.6803 2.34589 1.40922 -1.5451 
2.32177 1.38712 -1.36441 0.061758 1.2709 -1.2394 0.203476 1.18319 -1.33499 
0.290825 1.19715 -1.21625 0.362492 1.21025 -1.13741 0.427501 1.22089 -1.08737 
0.489499 1.22819 -1.05411 0.555026 1.22871 -1.00569 0.622599 1.22315 -0.949466 
0.68788 1.23952 -0.895009 0.747553 1.24208 -0.87598 0.799582 1.2638 -0.887716 
0.848129 1.27836 -0.920801 0.897834 1.29535 -0.946769 0.947482 1.32636 -0.966559 
1.00005 1.34297 -0.977885 1.05363 1.34978 -0.988429 1.10723 1.35649 -0.998965 
1.15999 1.37118 -1.01014 1.21222 1.39099 -1.02172 1.2676 1.38066 -1.0309 
1.32264 1.37362 -1.04033 1.37786 1.36478 -1.04962 1.43447 1.34262 -1.05785 
1.49048 1.33594 -1.06246 1.54965 1.33815 -1.0534 1.62242 1.32963 -1.02054 
5.46441 -0.23338 -1.81019 5.51418 -0.31036 -1.94038 5.56212 -0.369511 -2.01901 
5.61315 -0.423136 -2.06094 5.65677 -0.47609 -2.08642 5.68189 -0.530691 -2.10833 
5.70439 -0.583725 -2.10722 5.70083 -0.636679 -2.07104 5.71282 -0.684288 -1.9878 
5.74805 -0.727468 -1.87145 5.80104 -0.769198 -1.71058 2.20776 1.38099 -1.16875 
2.13776 1.40349 -1.18079 2.07758 1.42897 -1.18232 2.02098 1.4458 -1.17609 
1.96675 1.45866 -1.15981 1.91719 1.4403 -1.13373 1.8695 1.42617 -1.0958 
1.82163 1.40763 -1.0574 1.7734 1.35995 -1.01352 5.38421 -0.211115 -1.42682 
5.37357 -0.267068 -1.21498 5.37498 -0.308159 -1.00684 2.38578 1.26985 -1.08709 
1.81129 1.22668 -0.878627 1.89075 1.17801 -0.80519 1.9596 1.14418 -0.759018 
2.02057 1.12563 -0.743183 2.07873 1.10217 -0.743997 2.13398 1.09311 -0.753273 
2.18921 1.08416 -0.762557 2.24715 1.06283 -0.763541 2.30731 1.0607 -0.744138 
2.37189 1.08378 -0.690217 2.45107 1.17638 -0.819925 2.54131 1.17662 -0.93495 
5.33106 -0.0562606 -1.3668 4.27225 -0.170998 -1.31683 4.24509 -0.12391 -1.3619 
4.20326 -0.0833251 -1.3431 4.15847 -0.0557728 -1.29217 4.11998 -0.0124895 -1.24397 
4.09128 0.0398613 -1.22117 4.04669 0.0914188 -1.21051 4.00075 0.142367 -1.2071 
3.96785 0.194474 -1.20621 3.92135 0.245972 -1.19518 3.86774 0.298037 -1.16777 
3.81637 0.352101 -1.11827 3.76622 0.406875 -1.06148 3.71607 0.461648 -1.00471 
3.66459 0.515702 -0.955184 3.61445 0.570367 -0.8984 3.56451 0.623227 -0.841462 
3.51427 0.665354 -0.790986 3.46312 0.689208 -0.753661 3.41011 0.71736 -0.72399 
3.35783 0.738581 -0.693765 3.30081 0.764577 -0.685843 3.23898 0.782679 -0.706523 
3.16909 0.814295 -0.762366 3.09816 0.857155 -0.811573 3.02382 0.907687 -0.833165 
5.92618 -0.7898 -1.43644 6.00342 -0.77364 -1.36903 6.06951 -0.774603 -1.32561 
6.13062 -0.79421 -1.30969 6.18833 -0.79981 -1.30462 6.24633 -0.794776 -1.2931 
6.30815 -0.785782 -1.25998 6.3713 -0.775958 -1.2196 6.43311 -0.766855 -1.18648 
6.49091 -0.759908 -1.17512 6.54738 -0.75368 -1.17099 6.60519 -0.746734 -1.15963 
6.66699 -0.73763 -1.12651 6.73015 -0.727916 -1.08612 6.7935 -0.720007 -1.0456 
6.85654 -0.722721 -1.01154 6.9225 -0.739847 -0.969014 6.98842 -0.743046 -0.920293 
7.05568 -0.745636 -0.864311 7.12451 -0.763237 -0.807128 7.1928 -0.775722 -0.750364 
7.26316 -0.794417 -0.685784 7.33681 -0.804136 -0.600009 7.41786 -0.817188 -0.477415 
7.50504 -0.821521 -0.318985 5.80147 -0.774581 -1.28634 5.77313 -0.715709 -1.09019 
5.73893 -0.653475 -0.943758 2.58875 1.08697 -0.730469 2.66817 1.13683 -0.878683 
2.71921 1.12754 -0.909862 2.77507 1.1029 -0.922753 2.83347 1.08224 -0.913806 
2.89165 1.03878 -0.874798 7.17339 1.36118 -1.90465 7.09436 1.28735 -2.05683 
7.02212 1.22965 -2.16646 6.95641 1.20383 -2.22747 6.89748 1.19414 -2.24593 
6.84369 1.18935 -2.23555 6.79502 1.18946 -2.19633 6.752 1.205 -2.12184 
6.71665 1.25121 -2.01396 6.70759 1.31167 -1.88964 6.75366 1.36946 -1.76763 
6.82481 1.41251 -1.64879 6.89674 1.45775 -1.54544 6.96512 1.48501 -1.46992 
7.02416 1.50714 -1.44515 7.07515 1.53877 -1.45768 7.12258 1.55048 -1.49785 
7.16962 1.53902 -1.55078 7.2143 1.49604 -1.63042 7.32851 1.45586 -1.6399 
7.39731 1.47908 -1.56406 7.46309 1.50416 -1.50298 7.52905 1.48703 -1.46046 
7.5909 1.45521 -1.44599 7.64355 1.43047 -1.47593 7.69492 1.39099 -1.51932 
7.74878 1.35474 -1.54835 7.80812 1.34592 -1.5357 7.8697 1.33898 -1.50094 
7.92411 1.30626 -1.46231 7.96091 1.25834 -1.44164 8.00996 1.20838 -1.43814 
8.06558 1.15829 -1.44342 8.11274 1.10805 -1.43955 8.13799 1.05706 -1.41645 
8.16546 1.00807 -1.37124 8.20899 0.961112 -1.32162 8.24613 0.912982 -1.27829 
8.28743 0.864022 -1.25076 8.322 0.814463 -1.22195 8.3673 0.76766 -1.17268 
8.40989 0.722415 -1.10035 8.46321 0.679926 -1.00758 8.50969 0.636828 -0.913482 
8.55978 0.593452 -0.827592 8.58659 0.545002 -0.774753 8.59551 0.49136 -0.763506 
8.59597 0.433962 -0.788171 8.59499 0.375837 -0.820067 8.59668 0.31915 -0.837458 
5.39512 -0.560618 -0.99056 5.34601 -0.57604 -0.911872 5.30219 -0.563194 -0.83445 
5.11249 -0.667285 -0.990999 5.18462 -0.595022 -0.875223 2.49852 1.08674 -0.615445 
2.63465 0.998625 -0.533393 2.70493 0.967173 -0.475114 2.7656 0.946647 -0.461541 
2.81991 0.910895 -0.488185 2.86534 0.885271 -0.559598 2.90166 0.911916 -0.674873 
5.2884 0.234108 -1.04719 5.26654 0.174963 -1.04739 5.26204 0.108479 -1.06267 
5.26863 -0.0260643 -0.873964 5.29329 -0.0690059 -0.682528 5.3461 -0.110643 -0.511543 
5.432 -0.418693 -0.940787 5.54364 -0.560774 -1.01032 5.62272 -0.592323 -0.930945 
5.36365 -0.398368 -0.730935 5.31554 -0.457688 -0.716194 5.40305 -0.260175 -0.575315 
5.73577 -0.521948 -0.681266 5.77926 -0.452837 -0.567472 5.79791 -0.389537 -0.493941 
5.79153 -0.329997 -0.435604 5.76147 -0.268873 -0.342793 5.7252 -0.195817 -0.192012 
8.35316 -0.49046 -0.931797 8.35891 -0.436711 -0.960885 8.35886 -0.385278 -1.01138 
8.3705 -0.333405 -1.07165 8.37036 -0.281982 -1.12212 8.37431 -0.228392 -1.15087 
8.39576 -0.172045 -1.16797 8.41349 -0.115429 -1.17685 8.43806 -0.0582044 -1.18705 
8.45723 -0.000859194 -1.1887 8.48714 0.0592415 -1.1699 8.51822 0.123047 -1.10627 
8.56371 0.192337 -0.992868 8.62637 0.240589 -0.645947 8.63281 0.227717 -0.46423 
8.64055 0.197309 -0.311284 8.63715 0.153502 -0.185228 8.63409 0.104904 -0.0966032 
8.62065 0.0528699 -0.0359961 5.5562 -0.0994568 -0.178005 5.75661 -0.0229151 0.0499286 
5.81809 0.0464108 0.0847137 5.87425 0.11053 0.11089 5.93062 0.175227 0.152113 
5.97831 0.240512 0.212539 6.00041 0.304717 0.292908 5.9984 0.365577 0.362925 
5.97567 0.422792 0.414409 5.96232 0.478441 0.43405 
LINES 39 498
4 35 36 37 34 
26 34 98 99 100 101 102 103 104 105 106 107 108 109 110 111 112 113 114 115 116 117 118 119 120 121 28 
17 32 123 124 125 126 127 128 129 130 131 132 133 134 135 136 137 31 
3 30 138 27 
31 30 139 140 141 142 143 144 145 146 147 148 149 150 151 152 153 154 155 156 157 158 159 160 161 162 163 164 165 166 167 22 
18 29 168 169 170 171 172 173 174 175 176 177 178 179 180 181 182 183 25 
3 27 184 26 
27 27 185 186 187 188 189 190 191 192 193 194 195 196 197 198 199 200 201 202 203 204 205 206 207 208 209 24 
13 21 210 211 212 213 214 215 216 217 218 219 220 19 
11 25 221 222 223 224 225 226 227 228 229 24 
5 21 230 231 232 9 
3 25 233 23 
12 24 234 235 236 237 238 239 240 241 242 243 15 
3 23 244 15 
3 23 245 18 
3 21 246 11 
28 20 247 248 249 250 251 252 253 254 255 256 257 258 259 260 261 262 263 264 265 266 267 268 269 270 271 272 13 
27 19 273 274 275 276 277 278 279 280 281 282 283 284 285 286 287 288 289 290 291 292 293 294 295 296 297 2 
5 19 298 299 300 7 
3 18 301 14 
7 18 302 303 304 305 306 13 
21 17 307 308 309 310 311 312 313 314 315 316 317 318 319 320 321 322 323 324 325 17 
33 17 326 327 328 329 330 331 332 333 334 335 336 337 338 339 340 341 342 343 344 345 346 347 348 349 350 351 352 353 354 355 356 5 
5 10 357 358 359 8 
4 16 360 361 8 
3 15 362 14 
8 14 363 364 365 366 367 368 13 
5 12 369 370 371 11 
5 11 372 373 374 4 
3 10 375 9 
4 10 376 377 7 
4 9 378 379 8 
3 9 380 4 
8 7 381 382 383 384 385 386 3 
15 6 387 388 389 390 391 392 393 394 395 396 397 398 399 5 
8 5 400 401 402 403 404 405 0 
3 4 406 3 
11 3 407 408 409 410 411 412 413 414 415 1 
64 34 38 39 40 41 42 43 44 45 46 47 48 49 50 51 52 53 54 55 56 57 58 59 60 61 62 63 64 65 66 67 68 69 70 71 72 73 74 75 76 77 78 79 80 81 82 83 84 85 86 87 88 89 90 91 92 93 94 95 96 97 33 122 30 

POINT_DATA 416
SCALARS DY_raw double
LOOKUP_TABLE default
47.8043 0 30.0355 30.4115 36.4726 34.105 31.5152 47.47 44.7422 
47.4601 44.5819 39.6928 24.06 27.6595 22.2882 15.3491 42.8676 29.1297 
22.9733 37.1853 71.3885 31.2673 8.81508 23.6356 17.9358 30.1221 28.3421 
24.1728 65.4217 23.5284 32.5013 60.1095 69.56 29.8429 51.3171 98.1701 
54.4027 45.5544 43.9458 72.4008 72.4008 73.5564 78.1378 78.1378 89.6717 
89.6717 76.2762 77.9987 70.4688 66.6872 73.3685 59.8648 54.9395 59.6168 
59.6168 64.8931 65.5177 65.5177 79.4523 72.0856 79.5915 93.1355 84.6735 
81.2046 60.4985 63.708 65.7309 80.1444 74.1846 74.1846 91.0943 65.3065 
59.7591 49.4276 69.6089 61.7433 76.8763 66.4669 66.4669 46.322 41.9564 
40.2377 36.854 34.108 29.4569 27.0774 30.3624 26.1093 25.7758 27.9623 
23.2301 26.4619 34.0706 30.184 39.0593 38.2112 35.1899 32.8405 43.3632 
47.9241 57.216 62.8426 59.1713 59.1713 59.148 61.0685 66.5539 58.2151 
46.8514 52.015 59.4928 57.7689 77.7395 56.8395 52.3411 65.281 45.512 
37.2001 34.644 39.9332 45.2409 48.5434 20.592 39.9339 50.3885 46.0548 
42.6054 42.6054 32.9739 32.9572 33.3295 33.1513 32.72 29.5725 31.0003 
33.0677 35.7943 43.2162 24.405 27.1932 25.7803 19.1329 15.6488 19.1495 
26.3859 20.0726 18.5427 19.1963 18.1765 18.1524 18.9511 27.8187 37.8286 
39.3083 48.5341 39.032 39.7621 30.8356 31.2841 26.9966 19.0396 20.7655 
23.0867 20.332 20.4414 14.083 13.3726 15.9428 20.3878 25.2882 33.4936 
33.4918 33.1222 34.0322 34.0322 38.3971 45.2781 41.0191 38.2605 44.5314 
36.2817 26.6908 19.9577 32.017 29.8532 26.706 21.937 23.5203 23.9815 
23.0613 17.315 11.7848 11.9871 16.6594 19.8077 23.1758 19.825 12.3307 
12.3307 2.09177 10.8811 10.8811 28.6528 16.6954 25.3664 10.9832 0.0682816 
2.73881 10.3679 6.96643 35.1871 45.6323 54.0069 73.6491 61.6783 60.0395 
66.9987 66.9987 51.6956 44.1344 39.5588 27.6079 18.7817 25.0833 19.7439 
17.7735 17.7735 14.0364 16.9421 26.4324 49.0237 49.3308 50.1372 30.2751 
27.0149 23.966 37.6446 23.946 23.946 26.0848 18.5761 18.5761 18.2462 
16.8619 16.4017 17.9996 38.4857 47.9349 42.788 40.9623 41.4649 43.6948 
61.0324 63.9887 46.0488 54.2717 30.0768 17.671 32.2551 35.1382 30.9911 
26.9573 24.6925 28.5562 27.7872 20.0674 34.3662 30.6564 33.6572 32.7787 
29.0988 31.869 29.2777 33.7511 32.5177 31.6765 29.2849 22.6806 14.9717 
22.7269 17.6611 11.4715 22.9988 22.9988 28.5538 31.8212 37.4135 32.2689 
25.2951 27.7371 32.1487 20.7184 17.1074 27.2583 27.3724 20.1194 19.4954 
27.2643 38.9635 51.4385 46.7138 24.7924 20.0224 19.8252 21.5835 26.6553 
27.245 29.0215 24.676 29.3736 27.5109 24.3934 24.6641 29.1054 30.8126 
32.3386 41.673 32.0387 28.216 38.7667 29.9059 27.1565 27.1565 32.6285 
27.0235 29.2757 18.5792 21.4099 20.0718 19.4058 12.066 13.18 14.082 
28.9132 36.1498 41.8223 43.2883 39.3848 36.7556 36.7556 46.4575 46.4575 
52.4512 58.8781 52.8245 42.0227 34.2162 31.0397 24.9789 31.3887 27.6442 
28.0833 28.1359 28.7793 29.1431 28.3639 28.5512 50.4315 44.9795 41.6394 
34.4475 39.2208 22.5648 20.1843 30.7521 27.9595 31.542 35.2948 36.314 
32.8026 36.7904 37.7575 42.912 43.9089 43.0957 44.6179 50.3058 51.5577 
42.6394 42.6394 43.7263 42.1172 46.6118 34.9507 27.7905 30.8317 34.9503 
29.0187 24.5012 22.7785 23.5794 30.3702 26.4707 36.5093 35.6403 37.6831 
36.8451 37.1229 35.7352 32.7536 41.8469 33.9342 39.3429 47.941 41.4964 
49.4832 35.6715 17.5475 25.7854 20.1812 5.81631 4.15984 9.77718 10.6346 
12.0395 4.82157 
FIELD FieldData 7
DY_minmax 1 416 double
0.486954 0 0.305953 0.309784 0.371525 0.347408 0.321027 0.483549 0.455762 
0.483448 0.454129 0.404326 0.245085 0.281751 0.227036 0.156352 0.436667 0.296726 
0.234015 0.378784 0.727192 0.318502 0.0897939 0.240762 0.182702 0.306836 0.288704 
0.246234 0.666412 0.239669 0.331071 0.612299 0.708566 0.303992 0.522736 1 
0.554168 0.464035 0.44765 0.737503 0.737503 0.749275 0.795943 0.795943 0.913432 
0.913432 0.776979 0.794526 0.717824 0.679302 0.74736 0.609806 0.559636 0.60728 
0.60728 0.661027 0.66739 0.66739 0.809332 0.734292 0.810751 0.948715 0.862518 
0.827183 0.616262 0.648955 0.669562 0.816383 0.755674 0.755674 0.927923 0.665238 
0.60873 0.503489 0.709064 0.628942 0.783093 0.677058 0.677058 0.471855 0.427384 
0.409877 0.37541 0.347438 0.30006 0.275821 0.309283 0.26596 0.262562 0.284835 
0.236631 0.269552 0.347057 0.307466 0.397874 0.389235 0.358458 0.334527 0.441715 
0.488174 0.582825 0.64014 0.602743 0.602743 0.602506 0.622068 0.677945 0.593003 
0.477247 0.529845 0.606017 0.588457 0.791886 0.57899 0.533167 0.664978 0.463603 
0.378935 0.352898 0.406775 0.460842 0.494482 0.209759 0.406783 0.513277 0.469133 
0.433996 0.433996 0.335886 0.335715 0.339508 0.337692 0.333299 0.301238 0.315782 
0.336841 0.364615 0.440217 0.248599 0.277 0.262609 0.194896 0.159405 0.195065 
0.268777 0.204467 0.188883 0.195541 0.185154 0.184907 0.193044 0.283372 0.385338 
0.400411 0.494387 0.397595 0.405032 0.314103 0.318672 0.274998 0.193945 0.211525 
0.235171 0.20711 0.208224 0.143455 0.136219 0.162399 0.207679 0.257596 0.341179 
0.341161 0.337395 0.346665 0.346665 0.391128 0.461221 0.417837 0.389737 0.453615 
0.36958 0.271883 0.203297 0.326138 0.304096 0.272038 0.223459 0.239587 0.244285 
0.234912 0.176378 0.120045 0.122106 0.169699 0.20177 0.236078 0.201945 0.125605 
0.125605 0.0213077 0.110839 0.110839 0.291869 0.170066 0.258392 0.11188 0.000695544 
0.0278986 0.105612 0.0709628 0.35843 0.464829 0.550136 0.750219 0.628279 0.611586 
0.682475 0.682475 0.526593 0.449571 0.402962 0.281225 0.191318 0.255509 0.20112 
0.181048 0.181048 0.142981 0.172579 0.269251 0.499375 0.502504 0.510718 0.308395 
0.275184 0.244127 0.383463 0.243923 0.243923 0.26571 0.189224 0.189224 0.185863 
0.171762 0.167075 0.183352 0.39203 0.488284 0.435856 0.417259 0.422378 0.445093 
0.621701 0.651814 0.469071 0.552833 0.306374 0.180004 0.328563 0.357932 0.315688 
0.274598 0.251528 0.290885 0.283052 0.204415 0.350068 0.312279 0.342846 0.333897 
0.296412 0.324631 0.298234 0.343802 0.331239 0.322669 0.298307 0.231034 0.152508 
0.231505 0.179903 0.116854 0.234275 0.234275 0.29086 0.324144 0.381109 0.328704 
0.257666 0.282542 0.327479 0.211046 0.174262 0.277664 0.278826 0.204944 0.198588 
0.277725 0.396898 0.523973 0.475845 0.252545 0.203956 0.201947 0.219858 0.271522 
0.277529 0.295625 0.25136 0.299212 0.280237 0.248481 0.251238 0.296479 0.313869 
0.329414 0.424498 0.326359 0.287419 0.394893 0.304633 0.276627 0.276627 0.332367 
0.275272 0.298214 0.189255 0.21809 0.20446 0.197675 0.122909 0.134257 0.143445 
0.294522 0.368236 0.426019 0.440951 0.401189 0.374407 0.374407 0.473235 0.473235 
0.534289 0.599755 0.538092 0.42806 0.34854 0.316182 0.254445 0.319738 0.281594 
0.286068 0.286603 0.293157 0.296864 0.288926 0.290834 0.513716 0.458179 0.424156 
0.350896 0.399519 0.229854 0.205605 0.313253 0.284807 0.321299 0.359527 0.369909 
0.334141 0.374761 0.384613 0.437119 0.447274 0.43899 0.454496 0.512435 0.525187 
0.434342 0.434342 0.445414 0.429023 0.474806 0.356022 0.283085 0.314064 0.356017 
0.295596 0.249579 0.232031 0.240189 0.309363 0.269641 0.371898 0.363046 0.383855 
0.375319 0.378149 0.364014 0.333641 0.426269 0.345668 0.400763 0.488347 0.422699 
0.504056 0.363364 0.178745 0.262661 0.205574 0.0592473 0.0423738 0.0995942 0.108328 
0.122639 0.0491144 
WidthEq 1 416 double
1.69001 1.82213 2.80635 2.66609 3.78174 3.95807 2.03838 5.25279 4.56817 
4.90664 6.05582 4.48117 1.11762 4.6136 2.93968 2.22814 3.13943 4.02888 
3.45924 4.41384 1.51607 5.44498 1.9875 3.28868 2.3428 2.73918 1.05638 
3.09522 1.63279 3.22717 4.62259 1.4259 1 4.57764 2.94015 1.36926 
2.67413 3.19464 3.2845 2.69804 2.69804 2.32719 2.19228 2.19228 2.00654 
2.00654 2.28446 2.12247 2.3951 2.32698 2.09613 2.16605 2.15801 2.02225 
2.02225 2.20809 2.1321 2.1321 2.07873 2.45888 2.47803 2.04229 2.28785 
2.0287 2.44254 2.33063 2.43249 2.2457 2.16298 2.16298 1.97883 1.90992 
2.0909 2.07212 1.9463 2.1834 2.1597 2.5536 2.5536 3.09702 3.87593 
3.9724 4.28501 4.39163 4.43087 4.69949 4.65675 5.42144 5.10634 5.07075 
5.22899 4.53633 4.22123 4.38809 3.9522 4.95535 5.01337 4.83488 3.45569 
3.59547 3.59008 3.42793 3.20797 3.20797 2.93095 3.01367 2.8356 2.98685 
3.00013 2.98664 2.88203 3.06999 2.82237 3.54402 3.31671 2.82946 3.95346 
4.10805 4.67844 4.07331 3.73092 2.91265 4.80526 2.91757 2.75738 4.95149 
5.99548 5.99548 7.22177 7.08373 7.10272 6.95871 7.04645 6.77926 6.75187 
5.47634 4.7583 2.37712 3.8488 4.22901 3.64619 3.11505 2.92291 2.73062 
2.66165 2.91741 3.25303 3.03704 3.38953 3.20565 3.05153 2.82544 2.77409 
2.73733 2.32661 2.37575 2.25416 2.1926 2.1129 2.36623 2.96014 2.96887 
3.40672 3.95484 3.84954 3.85927 3.79057 3.47807 3.71447 3.66021 3.19285 
3.11241 3.00282 2.9475 2.9475 3.08956 3.18079 3.20607 3.42729 3.28667 
3.00785 2.50199 2.55741 2.89065 2.28853 2.89224 2.75426 2.79376 2.85929 
3.1581 3.5501 3.50197 3.42201 3.15498 3.04931 3.21585 3.0739 2.9236 
2.9236 2.45724 2.34444 2.34444 2.16489 2.13712 1.92499 1.96481 2.05033 
2.21264 2.26082 2.48908 4.59202 3.74953 3.36087 2.93486 3.5035 3.66809 
3.72425 3.72425 3.98467 4.20261 4.40433 2.7101 2.88526 2.81661 2.98775 
2.95665 2.95665 3.10976 3.09643 2.86051 5.08244 5.33318 5.05034 2.85019 
2.22766 2.08212 2.08476 2.23628 2.23628 2.25342 2.25289 2.25289 2.35062 
2.69661 3.55999 3.6684 5.23026 2.48316 3.00949 2.92122 2.87738 2.7834 
2.53488 2.3923 2.67456 2.5774 2.82444 3.35182 3.01007 3.05508 2.98537 
2.62601 2.72755 2.51119 2.62315 2.51452 2.43582 2.41679 2.4904 3.2634 
4.0146 4.70488 4.91193 5.02532 5.01665 4.94626 4.80214 4.27237 4.11509 
3.78142 3.56094 3.45289 3.22104 3.22104 3.20903 3.34934 3.30095 3.6986 
4.2609 4.2362 4.08944 4.32272 4.26074 3.87662 3.72748 3.45538 3.80142 
3.3707 4.75496 5.03553 5.4774 3.40508 3.31729 3.38409 3.30624 3.49499 
4.07817 4.22721 3.84341 2.94856 2.79852 2.6708 2.7907 3.15921 3.1617 
3.40244 3.09913 3.78417 3.98356 3.48753 3.86546 3.73023 3.73023 3.92908 
4.00799 4.00127 4.38825 3.77349 3.61552 3.18719 2.93968 2.67905 2.58983 
2.22147 1.90817 1.95254 1.93239 2.02109 2.24184 2.24184 2.21127 2.21127 
2.26992 1.88797 2.20693 2.19286 2.3749 2.35602 3.0738 3.41365 3.77693 
4.67537 4.4708 4.65786 4.9003 5.12306 4.87021 5.37818 5.2933 5.38432 
5.53393 4.93769 2.80968 2.5837 3.07459 3.34019 3.71188 3.75551 4.39941 
2.74765 3.53 4.10567 4.29041 4.11625 3.74028 5.56413 6.03668 5.58365 
4.85349 4.85349 4.34086 5.0103 4.17448 4.09462 3.70558 3.47986 3.04661 
2.95533 3.11658 3.64466 3.3771 3.51561 3.56432 3.06634 3.33247 3.31449 
3.75762 3.72573 3.87181 4.3177 3.6949 3.63969 3.57294 3.32951 3.18534 
2.50368 3.01277 2.7588 2.65731 2.57962 2.23337 2.22364 2.65721 2.63198 
2.67038 2.18186 
rRFP 1 416 double
2575.77 2600.75 2786.85 2760.33 2971.28 3004.62 2641.64 3249.43 3119.98 
3183.98 3401.27 3103.53 2467.54 3128.57 2812.06 2677.52 2849.83 3018.01 
2910.3 3090.8 2542.88 3285.77 2632.02 2878.05 2699.2 2774.15 2455.96 
2841.47 2564.95 2866.42 3130.27 2525.83 2445.3 3121.77 2812.15 2515.12 
2761.85 2860.27 2877.26 2766.37 2766.37 2696.25 2670.74 2670.74 2635.62 
2635.62 2688.17 2657.54 2709.09 2696.21 2652.56 2665.78 2664.26 2638.59 
2638.59 2673.73 2659.36 2659.36 2649.27 2721.15 2724.77 2642.38 2688.81 
2639.81 2718.06 2696.9 2716.16 2680.84 2665.2 2665.2 2630.38 2617.35 
2651.57 2648.02 2624.23 2669.06 2664.58 2739.06 2739.06 2841.81 2989.09 
3007.33 3066.44 3086.6 3094.02 3144.81 3136.73 3281.32 3221.74 3215.01 
3244.93 3113.96 3054.38 3085.93 3003.51 3193.19 3204.16 3170.41 2909.63 
2936.06 2935.04 2904.38 2862.79 2862.79 2810.41 2826.05 2792.38 2820.98 
2823.49 2820.94 2801.16 2836.7 2789.88 2926.33 2883.35 2791.22 3003.75 
3032.98 3140.83 3026.41 2961.67 2806.95 3164.81 2807.88 2777.59 3192.46 
3389.86 3389.86 3621.73 3595.63 3599.22 3571.99 3588.58 3538.06 3532.88 
3291.7 3155.93 2705.69 2983.96 3055.85 2945.65 2845.22 2808.89 2772.53 
2759.49 2807.85 2871.31 2830.47 2897.12 2862.35 2833.21 2790.46 2780.75 
2773.8 2696.14 2705.43 2682.44 2670.8 2655.73 2703.63 2815.93 2817.58 
2900.37 3004.01 2984.1 2985.94 2972.95 2913.86 2958.56 2948.3 2859.93 
2844.72 2824 2813.54 2813.54 2840.4 2857.65 2862.43 2904.26 2877.67 
2824.95 2729.3 2739.78 2802.79 2688.94 2803.09 2777 2784.47 2796.86 
2853.36 2927.48 2918.38 2903.26 2852.77 2832.79 2864.28 2837.44 2809.02 
2809.02 2720.84 2699.51 2699.51 2665.56 2660.31 2620.2 2627.73 2643.9 
2674.59 2683.7 2726.86 3124.49 2965.19 2891.7 2811.15 2918.67 2949.79 
2960.41 2960.41 3009.65 3050.86 3089 2768.65 2801.77 2788.79 2821.15 
2815.27 2815.27 2844.22 2841.7 2797.09 3217.22 3264.63 3211.15 2795.14 
2677.43 2649.91 2650.41 2679.06 2679.06 2682.3 2682.2 2682.2 2700.68 
2766.1 2929.35 2949.85 3245.17 2725.74 2825.26 2808.57 2800.28 2782.51 
2735.52 2708.56 2761.93 2743.56 2790.27 2889.99 2825.37 2833.88 2820.7 
2752.75 2771.95 2731.04 2752.21 2731.67 2716.79 2713.19 2727.11 2873.27 
3015.31 3145.83 3184.98 3206.42 3204.78 3191.47 3164.22 3064.05 3034.31 
2971.22 2929.53 2909.1 2865.26 2865.26 2862.99 2889.52 2880.37 2955.56 
3061.88 3057.21 3029.46 3073.57 3061.85 2989.22 2961.02 2909.57 2975 
2893.56 3155.3 3208.35 3291.9 2900.06 2883.46 2896.09 2881.37 2917.06 
3027.33 3055.51 2982.94 2813.74 2785.37 2761.22 2783.89 2853.57 2854.04 
2899.56 2842.21 2971.74 3009.44 2915.65 2987.11 2961.54 2961.54 2999.14 
3014.06 3012.79 3085.96 2969.72 2939.85 2858.86 2812.06 2762.78 2745.91 
2676.26 2617.02 2625.41 2621.6 2638.37 2680.11 2680.11 2674.33 2674.33 
2685.42 2613.2 2673.51 2670.85 2705.27 2701.7 2837.42 2901.68 2970.37 
3140.25 3101.57 3136.94 3182.78 3224.9 3177.09 3273.14 3257.09 3274.3 
3302.59 3189.85 2787.48 2744.75 2837.57 2887.79 2958.07 2966.32 3088.07 
2775.75 2923.68 3032.53 3067.46 3034.53 2963.44 3308.3 3397.65 3311.99 
3173.93 3173.93 3077 3203.58 3045.54 3030.44 2956.88 2914.2 2832.28 
2815.02 2845.51 2945.36 2894.77 2920.96 2930.17 2836.01 2886.33 2882.93 
2966.72 2960.69 2988.31 3072.62 2954.86 2944.42 2931.8 2885.77 2858.51 
2729.62 2825.88 2777.86 2758.67 2743.98 2678.51 2676.67 2758.65 2753.88 
2761.14 2668.77 
rGFP 1 416 double
2534.54 2453.75 2538.04 2534.83 2591.68 2588.74 2517.99 2703.1 2658.14 
2686.62 2723.73 2631.62 2480.64 2581.36 2519.27 2487.95 2588.33 2571.11 
2533.22 2617.88 2561.98 2624 2471.27 2531.48 2495.77 2536.26 2483.69 
2528.57 2560.57 2529.68 2603.99 2539.46 2523.31 2590.36 2604.63 2588.17 
2599.23 2599.28 2598.09 2649.09 2649.09 2624.93 2625.05 2625.05 2633.68 
2633.68 2628 2619.3 2622.53 2608.93 2607.54 2583.42 2572.31 2574.31 
2574.31 2597.04 2593.44 2593.44 2618.91 2631 2650.98 2643.96 2647.47 
2618.49 2601.52 2602.23 2613.64 2633.73 2614.21 2614.21 2634.01 2578.48 
2578.7 2556.17 2589.23 2588.56 2619.78 2623.48 2623.48 2597.21 2616.37 
2613.59 2611.67 2603.54 2584.27 2581 2595.14 2595.3 2585.37 2595.54 
2575.22 2573.79 2597.57 2586.2 2608.12 2643.1 2630.17 2612.53 2603.6 
2626.06 2659.16 2669.17 2643.57 2643.57 2627.11 2637.79 2642.47 2627.63 
2594.31 2609.1 2625.21 2631.1 2673.16 2655.19 2627.35 2638.46 2633.68 
2606.57 2615.83 2616.41 2622.54 2595.14 2552.7 2570.26 2592.69 2681.79 
2709.19 2709.19 2691.88 2687.21 2690.48 2684.44 2684.31 2654.23 2663.06 
2634.84 2624.07 2556.48 2547.68 2568.75 2547.75 2513.35 2499.49 2506.04 
2523.98 2512.31 2514.07 2512.05 2515.36 2511.94 2511.58 2532.35 2558.69 
2561.35 2566.67 2546.48 2543.38 2521.36 2519.85 2517.63 2510.11 2515.4 
2532.4 2534.16 2532.44 2508.1 2504.44 2509.2 2529.48 2546.31 2560.69 
2557.99 2553.21 2554.06 2554.06 2572.38 2597.77 2585.26 2584.88 2600.11 
2562.88 2520.53 2504.79 2546.3 2522.07 2530.99 2514.17 2519.46 2522.32 
2526.58 2515.22 2495.02 2494.77 2506.31 2514.15 2528.28 2514.69 2489.8 
2489.8 2458.89 2479.26 2479.26 2515.78 2489.43 2502.58 2475.33 2453.89 
2459.81 2477.19 2471.09 2615.33 2624.85 2635.26 2669.9 2669.84 2673.98 
2703.27 2703.27 2659.74 2639.23 2627.98 2528.57 2507.94 2524.4 2512.74 
2506.3 2506.3 2497.4 2506.21 2529.36 2702.91 2716.84 2706.96 2540.04 
2513.93 2503.65 2532.23 2507.3 2507.3 2512.53 2495.6 2495.6 2496.64 
2499.22 2512.14 2519.78 2655.04 2572.78 2582.52 2573.41 2573.06 2575.37 
2608.46 2606.83 2576.91 2593.63 2538.7 2512.98 2550.84 2561.1 2546.27 
2524.54 2521.1 2525.46 2526.64 2504.21 2537.46 2527.84 2537.57 2560.72 
2570.57 2603.69 2597.56 2623.36 2616.88 2610.43 2594.38 2550.65 2515.36 
2539.69 2516.64 2493.36 2527.83 2527.83 2545.38 2560.33 2577.25 2573.1 
2561.53 2571.25 2585.22 2543.31 2526.64 2559.42 2555.78 2523.27 2527.86 
2545.65 2639.02 2712.77 2709.62 2538.17 2520.17 2520.84 2525.11 2546.91 
2564.86 2576.43 2548.59 2540.36 2530.74 2518.9 2522.58 2545.7 2551.17 
2563.78 2582.9 2574.99 2566.15 2588.95 2569.35 2555.05 2555.05 2581.95 
2562.06 2570.89 2535.28 2534.54 2526.32 2515.6 2489.22 2489.06 2490.22 
2517.98 2522.73 2535.41 2537.4 2533.35 2536.15 2536.15 2556.48 2556.48 
2572.81 2564.91 2570.33 2545.9 2535.01 2526.88 2530.53 2560.9 2558.16 
2585.05 2579.54 2587.8 2596.56 2599.06 2592.8 2724.98 2691.84 2677.95 
2644.38 2647.41 2517.15 2505.9 2548.3 2547.14 2570.83 2586.3 2613.51 
2543.88 2583.62 2608.77 2637.86 2634.49 2614.94 2702.01 2757.43 2741.63 