# vtk DataFile Version 3.0
vtk output
ASCII
DATASET POLYDATA
POINTS 327 float
0.317041 0.583574 0.865093 -0.28258 -0.807101 -0.631998 -0.251947 -0.398595 -0.719788 
1.15567 -1.4411 -0.577175 1.79708 -1.39996 -0.540921 3.17647 -1.11455 -0.797216 
7.57375 -0.629912 -0.236652 -0.395189 -0.500371 -0.990294 -0.418532 -0.166296 -1.51674 
7.49494 -0.522608 -1.05004 -0.525438 0.159096 -1.77061 -0.420159 0.128246 -1.76257 
-0.110266 0.584775 -1.93659 -0.283687 0.202804 -1.75852 -0.0360872 0.0729741 -1.73641 
4.34467 -0.007973 -1.46866 7.18751 -0.191216 -1.52174 7.78376 0.0151953 -1.26329 
6.78975 -0.33043 -1.73857 7.62223 -0.00232889 -1.47269 0.175031 0.683237 -2.15904 
6.09235 -0.829237 -1.91994 6.35945 -0.506581 -1.92184 6.8928 -0.353097 -1.798 
6.97547 -0.333738 -1.79535 7.06305 -0.279266 -1.69526 6.41089 -0.518408 -1.88837 
6.46428 -0.51984 -1.84049 6.52196 -0.504462 -1.78585 6.57763 -0.49204 -1.73984 
6.63231 -0.460183 -1.72099 6.68985 -0.40509 -1.72431 6.03578 -0.827093 -1.92345 
5.97543 -0.837713 -1.92649 5.91941 -0.833711 -1.93008 5.86623 -0.820135 -1.93403 
5.81356 -0.804815 -1.93805 5.76092 -0.78939 -1.94207 5.70831 -0.773859 -1.9461 
5.65619 -0.75669 -1.95018 5.60638 -0.731692 -1.95457 5.55759 -0.701338 -1.95176 
5.4998 -0.699503 -1.94047 5.44355 -0.690569 -1.92205 5.39333 -0.665054 -1.91905 
5.34834 -0.623785 -1.92405 5.29908 -0.596937 -1.92851 5.24477 -0.577608 -1.89569 
5.18814 -0.558484 -1.83327 5.12966 -0.539872 -1.74863 5.06975 -0.529911 -1.67846 
5.00974 -0.526021 -1.63026 4.96061 -0.492996 -1.61275 4.91374 -0.456164 -1.61019 
4.86933 -0.412949 -1.61526 4.82068 -0.384032 -1.61979 4.77208 -0.353065 -1.617 
4.72922 -0.298833 -1.6003 4.68553 -0.241721 -1.56152 4.63712 -0.198619 -1.51479 
4.59063 -0.150975 -1.47565 4.54345 -0.111367 -1.4584 4.49859 -0.0677313 -1.45608 
4.44937 -0.0407782 -1.46054 4.39727 -0.0235032 -1.46463 7.20917 -0.12696 -1.70859 
7.24248 -0.0777061 -1.85425 7.29094 -0.0370347 -1.94527 7.33203 0.00661182 -1.98858 
7.37735 0.0506079 -1.98831 7.41554 0.0978766 -1.95148 7.46755 0.137898 -1.89113 
7.52158 0.153063 -1.8144 7.56112 0.11666 -1.72082 7.59267 0.0586134 -1.60421 
7.17158 -0.310708 -1.73035 7.19663 -0.389747 -1.86194 7.24027 -0.436201 -1.89637 
7.27925 -0.489346 -1.8601 7.3168 -0.538541 -1.78821 7.36019 -0.562316 -1.6951 
7.40508 -0.572995 -1.57289 7.44744 -0.57777 -1.42143 7.4801 -0.566164 -1.24174 
0.1016 0.648369 -2.11815 0.0119319 0.615519 -2.04367 7.55266 -0.0383753 -1.45257 
7.48298 -0.0744874 -1.43369 7.41105 -0.111654 -1.43346 7.3203 -0.150533 -1.46277 
7.6837 0.0216634 -1.43317 7.73628 0.0232179 -1.36321 6.83217 -0.281635 -1.45507 
6.86198 -0.22665 -1.22222 6.90849 -0.176826 -1.04631 6.9667 -0.133931 -0.917606 
7.02633 -0.105858 -0.841268 7.08196 -0.108283 -0.853893 7.13001 -0.126263 -0.981304 
7.16029 -0.151368 -1.21964 -0.0233618 0.513829 -1.97325 0.0297186 0.445109 -1.98481 
0.057127 0.380885 -1.96968 0.0651875 0.322086 -1.94486 0.0756767 0.262861 -1.91121 
0.0688267 0.209279 -1.86405 0.0500179 0.159482 -1.81037 0.0186006 0.1131 -1.76509 
-0.0826817 0.692555 -1.82325 -0.0751607 0.769539 -1.75647 -0.0835532 0.832762 -1.74316 
-0.0668404 0.884676 -1.76115 -0.0244486 0.928967 -1.77593 0.013974 0.974982 -1.77618 
0.0582959 1.01983 -1.76115 0.0955894 1.06702 -1.73924 0.140016 1.11184 -1.7242 
0.179938 1.1577 -1.71692 0.234708 1.19892 -1.71592 0.288275 1.24022 -1.72243 
0.319978 1.28764 -1.73804 0.352196 1.33452 -1.76101 0.407951 1.3726 -1.78207 
0.472598 1.39728 -1.80929 0.535164 1.40433 -1.85051 0.599745 1.41588 -1.89931 
0.662385 1.42279 -1.94051 0.728437 1.44505 -1.96751 0.794488 1.46731 -1.99451 
0.8571 1.47412 -2.03572 0.921575 1.48341 -2.09182 0.982165 1.47766 -2.15475 
1.04273 1.47182 -2.21768 1.10665 1.47925 -2.27371 1.16588 1.47464 -2.31448 
1.22378 1.47126 -2.33311 1.28458 1.48147 -2.33746 1.34059 1.47747 -2.33387 
1.39381 1.464 -2.32992 1.44703 1.45053 -2.32598 1.50308 1.44663 -2.32239 
1.56395 1.45901 -2.31942 1.62335 1.46643 -2.31627 1.68421 1.4788 -2.3133 
1.74026 1.4749 -2.30971 1.79345 1.46133 -2.30576 1.84612 1.44601 -2.30174 
1.89879 1.43069 -2.29772 1.95198 1.41711 -2.29377 2.008 1.41311 -2.29018 
2.06831 1.42364 -2.28715 2.12433 1.41963 -2.28356 2.17708 1.40647 -2.27222 
2.22842 1.39238 -2.24606 2.27839 1.37942 -2.19774 2.32793 1.36687 -2.14204 
2.37791 1.35391 -2.09372 2.42921 1.33972 -2.06755 2.48096 1.32512 -2.04876 
2.53227 1.31092 -2.02259 2.58225 1.29796 -1.97428 2.63178 1.28542 -1.91857 
2.68176 1.27246 -1.87026 2.73307 1.25826 -1.84409 2.78527 1.24325 -1.83268 
2.83791 1.22782 -1.82866 2.89051 1.21229 -1.82463 2.94261 1.19502 -1.82054 
2.99186 1.16817 -1.81609 3.03727 1.12639 -1.81847 3.08741 1.09872 -1.82878 
3.14084 1.08021 -1.84683 3.19389 1.06427 -1.85019 3.24608 1.04925 -1.83878 
3.29739 1.03506 -1.81261 3.34914 1.02046 -1.79383 3.4009 1.00585 -1.77504 
3.4522 0.991662 -1.74887 3.50215 0.978597 -1.70055 3.55111 0.964094 -1.64477 
3.59715 0.937853 -1.59596 3.63693 0.886603 -1.56098 3.67622 0.833705 -1.52595 
3.7194 0.797795 -1.47677 3.76348 0.766819 -1.42036 3.8138 0.75499 -1.37209 
3.85685 0.712903 -1.34486 3.89837 0.659904 -1.33942 3.94448 0.616693 -1.35654 
3.9876 0.557626 -1.39525 4.02884 0.490318 -1.44106 4.07196 0.431251 -1.47977 
4.11801 0.387838 -1.49688 4.15888 0.33072 -1.49868 4.19647 0.26444 -1.49273 
4.23354 0.196416 -1.48671 4.27058 0.128286 -1.4807 4.30762 0.060157 -1.47468 
-0.213517 0.490594 -1.92392 -0.261981 0.424729 -1.88972 -0.284835 0.37239 -1.84111 
-0.3013 0.321392 -1.79591 -0.304963 0.266033 -1.77075 7.27839 -0.229109 -1.21564 
7.33413 -0.258909 -0.991384 7.37248 -0.310378 -0.89208 7.41107 -0.377414 -0.899656 
7.45258 -0.449547 -0.967464 4.2857 -0.0454406 -1.40322 4.23993 -0.087055 -1.3442 
4.1802 -0.12486 -1.29366 4.11485 -0.1613 -1.25097 4.06655 -0.202454 -1.19956 
4.04887 -0.252582 -1.1458 4.01221 -0.297427 -1.10092 3.97236 -0.342182 -1.07853 
3.91725 -0.383027 -1.07213 3.86412 -0.424735 -1.073 3.83341 -0.473011 -1.07216 
3.80435 -0.521769 -1.07119 3.76089 -0.566306 -1.07132 3.72281 -0.612705 -1.07846 
3.67883 -0.657934 -1.10088 3.64102 -0.705815 -1.14508 3.58751 -0.749376 -1.1979 
3.52563 -0.790203 -1.24394 3.47034 -0.83212 -1.26722 3.43031 -0.877946 -1.27451 
3.38455 -0.921531 -1.2674 3.34426 -0.965875 -1.23763 3.29619 -1.00611 -1.16024 
3.26049 -1.04804 -1.0337 3.22636 -1.08782 -0.888606 -0.0886956 0.0885044 -1.74044 
-0.140788 0.105779 -1.74453 -0.190046 0.132627 -1.74899 -0.234978 0.174098 -1.75399 
-0.0204088 0.013633 -1.66528 -0.0396606 -0.0357527 -1.60423 -0.0955364 -0.0749594 -1.55975 
-0.167646 -0.110704 -1.53555 -0.266339 -0.14254 -1.52273 -0.351923 0.165525 -1.76054 
-0.406695 0.0167986 -1.64514 -0.472798 0.143671 -1.76659 7.52173 -0.525111 -0.847621 
7.53242 -0.535195 -0.645747 7.55003 -0.575509 -0.441775 -0.415697 -0.329898 -1.36271 
-0.403233 -0.428421 -1.18767 3.11038 -1.12413 -0.796942 3.04552 -1.15293 -0.877278 
2.98316 -1.19385 -0.982794 2.92045 -1.23615 -1.07711 2.85621 -1.27712 -1.14558 
2.79019 -1.31646 -1.18452 2.72199 -1.35363 -1.18655 2.65252 -1.38742 -1.15912 
2.58545 -1.41122 -1.12466 2.52356 -1.42132 -1.10552 2.45829 -1.44666 -1.1006 
2.39071 -1.47983 -1.09538 2.32455 -1.50434 -1.07569 2.26095 -1.5126 -1.02703 
2.19234 -1.53012 -0.948428 2.1249 -1.53416 -0.833339 2.06755 -1.49837 -0.697566 
2.00876 -1.46742 -0.56161 1.94804 -1.45447 -0.469357 1.88936 -1.45182 -0.443302 
1.84282 -1.42342 -0.477408 -0.358829 -0.592983 -0.918539 -0.334866 -0.664697 -0.836311 
-0.32151 -0.728648 -0.740283 -0.318626 -0.447 -0.857356 1.09194 -1.46314 -0.579778 
1.03482 -1.46285 -0.583226 0.97822 -1.46081 -0.586741 0.918317 -1.47184 -0.597162 
0.863628 -1.46907 -0.622897 0.813072 -1.45807 -0.671136 0.762991 -1.44737 -0.726775 
0.710181 -1.44398 -0.774725 0.654608 -1.4442 -0.800347 0.607699 -1.41323 -0.819759 
0.562604 -1.37804 -0.846722 0.520853 -1.33728 -0.896089 0.475278 -1.31136 -0.952304 
0.429231 -1.28512 -1.00112 0.385631 -1.24488 -1.02827 0.336815 -1.21844 -1.04011 
0.284724 -1.20117 -1.04421 0.232116 -1.18564 -1.04823 0.179032 -1.1698 -1.04487 
0.125062 -1.15314 -1.02674 0.0697618 -1.13525 -0.986475 0.0140475 -1.11684 -0.938814 
-0.0406751 -1.097 -0.898618 -0.0907141 -1.06706 -0.880997 -0.13332 -1.01313 -0.869211 
-0.176955 -0.9547 -0.835453 -0.228858 -0.89763 -0.752561 -0.212277 -0.748005 -0.395717 
-0.149844 -0.69691 -0.201564 -0.0894889 -0.651088 -0.0543202 -0.0281533 -0.607344 0.0633694 
0.0328794 -0.56346 0.183501 0.0920652 -0.519033 0.303502 0.140729 -0.472085 0.40787 
0.16525 -0.419187 0.480717 0.179589 -0.364147 0.530539 0.190444 -0.308087 0.580095 
0.193268 -0.249673 0.629047 0.189857 -0.189713 0.670093 0.207204 -0.136679 0.690478 
0.205461 -0.0783314 0.701995 0.208319 -0.0210515 0.721273 0.209846 0.0374611 0.762697 
0.205884 0.0978639 0.81113 0.221901 0.15213 0.853661 0.219821 0.210857 0.872562 
0.225307 0.266806 0.877212 0.239267 0.31999 0.875091 0.256501 0.372214 0.873219 
0.281658 0.422117 0.871954 0.311755 0.470573 0.871065 0.312756 0.527554 0.867953 

LINES 25 380
5 18 23 24 25 16 
8 22 26 27 28 29 30 31 18 
35 21 32 33 34 35 36 37 38 39 40 41 42 43 44 45 46 47 48 49 50 51 52 53 54 55 56 57 58 59 60 61 62 63 64 15 
12 16 65 66 67 68 69 70 71 72 73 74 19 
11 16 75 76 77 78 79 80 81 82 83 9 
4 20 84 85 12 
6 19 86 87 88 89 16 
4 19 90 91 17 
10 18 92 93 94 95 96 97 98 99 16 
10 12 100 101 102 103 104 105 106 107 14 
92 12 108 109 110 111 112 113 114 115 116 117 118 119 120 121 122 123 124 125 126 127 128 129 130 131 132 133 134 135 136 137 138 139 140 141 142 143 144 145 146 147 148 149 150 151 152 153 154 155 156 157 158 159 160 161 162 163 164 165 166 167 168 169 170 171 172 173 174 175 176 177 178 179 180 181 182 183 184 185 186 187 188 189 190 191 192 193 194 195 196 197 15 
7 12 198 199 200 201 202 13 
7 16 203 204 205 206 207 9 
6 14 233 234 235 236 13 
7 14 237 238 239 240 241 8 
3 13 242 11 
3 8 243 11 
3 11 244 10 
5 9 245 246 247 6 
4 8 248 249 7 
5 7 271 272 273 1 
3 7 274 2 
29 3 275 276 277 278 279 280 281 282 283 284 285 286 287 288 289 290 291 292 293 294 295 296 297 298 299 300 301 1 
27 1 302 303 304 305 306 307 308 309 310 311 312 313 314 315 316 317 318 319 320 321 322 323 324 325 326 0 
49 15 208 209 210 211 212 213 214 215 216 217 218 219 220 221 222 223 224 225 226 227 228 229 230 231 232 5 250 251 252 253 254 255 256 257 258 259 260 261 262 263 264 265 266 267 268 269 270 4 

POINT_DATA 327
SCALARS DY_raw double
LOOKUP_TABLE default
19.2362 36.8194 43.008 28.0592 51.6695 34.5718 47.8452 68.305 51.1924 
38.6773 95.147 43.0286 48.5723 37.0344 31.4054 33.1469 35.0048 46.758 
49.7069 41.6182 23.0777 63.5989 96.7691 49.0383 40.6287 38.8596 74.0724 
49.1183 50.4209 49.1629 42.7579 40.2424 61.7097 61.7097 63.9125 64.0833 
54.3998 56.8886 68.2417 72.5104 72.5104 71.3485 65.078 70.0124 58.1423 
42.0437 41.7285 39.9805 42.0032 34.1708 38.7828 41.6813 40.2397 46.3555 
46.3555 49.6083 43.6875 47.2643 45.2552 43.4334 37.9754 28.6307 28.6307 
30.7499 33.1469 34.4551 32.4039 34.0882 35.996 42.1044 44.2879 41.7175 
47.7014 45.6372 38.9272 36.7158 40.2097 35.8588 35.6515 36.0566 32.1794 
36.9375 38.2515 36.6736 32.0278 34.8322 38.7136 43.4901 40.5131 34.5864 
37.2883 40.9451 52.1712 54.2485 55.0261 46.9557 44.6759 42.1001 36.6422 
40.6493 40.8417 33.9172 35.7055 29.1677 32.0475 37.4401 34.9555 29.9952 
43.4342 40.2036 40.0173 53.9639 53.9639 49.4044 46.4084 40.7482 48.4231 
40.924 40.924 45.0672 47.5541 47.0021 49.8078 47.8851 57.5188 58.331 
54.4199 56.21 56.21 51.1203 40.7855 35.7605 38.9416 44.5794 60.564 
60.6526 58.7052 59.1567 59.1567 71.6479 75.8198 75.8198 115.938 115.938 
99.5901 69.2708 88.131 72.1082 64.048 64.048 67.6802 70.5503 70.5503 
68.3796 70.2293 67.1747 75.1208 75.7146 63.4469 54.4862 53.0124 51.8812 
59.7123 59.7123 43.8869 37.4516 37.4516 41.7126 41.7126 53.5528 77.6039 
77.6039 71.4112 65.8683 65.8683 53.2151 45.4497 51.4013 40.8628 42.1267 
42.1267 31.8745 31.8745 39.6757 33.1868 33.3166 29.8353 18.0503 21.7151 
21.6497 32.0682 36.7127 37.8882 36.4121 57.3764 47.4962 47.4962 35.7712 
50.2987 51.9428 54.126 50.4344 40.2161 37.8739 44.356 40.493 44.0417 
42.65 34.9148 37.5459 32.0875 37.1191 35.5109 37.2111 44.4027 58.1719 
54.4104 69.6622 48.1587 58.8528 53.6087 58.8064 58.8064 54.1331 59.5074 
52.051 44.425 45.2449 45.2449 37.1161 42.3413 38.0213 43.8378 33.8744 
33.9691 33.9691 36.3742 26.9893 31.1532 38.7352 47.7605 52.7782 39.8474 
48.9513 64.7366 40.6601 34.1941 40.0046 41.542 50.827 36.4959 40.3628 
40.0925 44.7598 41.0808 44.8603 69.2791 55.4162 49.6731 62.328 46.8145 
62.9876 47.4783 31.3276 49.1966 46.3425 41.3683 43.1932 43.9707 47.0503 
54.4479 59.6623 49.8604 42.3278 62.3356 37.5721 46.5762 40.3372 48.4258 
51.4575 46.0367 43.0444 39.2412 39.2412 37.0076 43.4744 37.8548 25.1623 
22.325 20.1799 29.7301 29.7301 34.2499 33.9876 37.1779 40.874 48.3224 
48.8266 48.8266 35.9749 34.4889 37.101 34.7607 23.7593 20.7263 32.1479 
35.4408 27.8846 18.4667 20.9316 26.4578 29.6984 39.1584 45.7164 45.7164 
42.596 38.9912 44.8538 39.4942 39.8982 36.197 28.7737 28.7737 24.5515 
15.4338 15.4338 23.9505 
FIELD FieldData 7
DY_minmax 1 327 double
0.0378336 0.212784 0.27436 0.125622 0.360541 0.190421 0.32249 0.526062 0.355794 
0.23127 0.793137 0.274565 0.329724 0.214923 0.158915 0.176244 0.194729 0.311673 
0.341014 0.260532 0.0760564 0.479237 0.809277 0.334361 0.250686 0.233084 0.583447 
0.335157 0.348117 0.335601 0.271872 0.246843 0.46044 0.46044 0.482357 0.484057 
0.387707 0.412471 0.525433 0.567905 0.567905 0.556344 0.493954 0.543051 0.424944 
0.264766 0.261629 0.244237 0.264363 0.186431 0.23232 0.26116 0.246816 0.307667 
0.307667 0.340032 0.281121 0.31671 0.296719 0.278593 0.224286 0.131308 0.131308 
0.152394 0.176244 0.18926 0.16885 0.185609 0.204591 0.26537 0.287095 0.26152 
0.321059 0.30052 0.233757 0.211754 0.246517 0.203227 0.201164 0.205195 0.166617 
0.213959 0.227034 0.211333 0.165109 0.193012 0.231632 0.279157 0.249536 0.190566 
0.217449 0.253835 0.365532 0.386201 0.393939 0.31364 0.290956 0.265327 0.211021 
0.250891 0.252806 0.183908 0.201702 0.13665 0.165305 0.21896 0.194239 0.144884 
0.2786 0.246456 0.244603 0.38337 0.38337 0.338004 0.308193 0.251875 0.32824 
0.253625 0.253625 0.294849 0.319593 0.314101 0.342017 0.322886 0.418741 0.426822 
0.387908 0.405718 0.405718 0.355076 0.252247 0.202249 0.2339 0.289996 0.44904 
0.449921 0.430545 0.435038 0.435038 0.559323 0.600833 0.600833 1 1 
0.837345 0.535672 0.723329 0.563903 0.483705 0.483705 0.519846 0.548402 0.548402 
0.526804 0.545209 0.514816 0.593878 0.599787 0.477724 0.388567 0.373902 0.362647 
0.440566 0.440566 0.283105 0.219074 0.219074 0.261471 0.261471 0.37928 0.618585 
0.618585 0.556969 0.501818 0.501818 0.37592 0.298654 0.357873 0.253016 0.265591 
0.265591 0.163583 0.163583 0.241204 0.176641 0.177932 0.143293 0.026034 0.0624981 
0.0618474 0.16551 0.211722 0.223419 0.208732 0.417324 0.319017 0.319017 0.202355 
0.346902 0.363261 0.384983 0.348252 0.246581 0.223276 0.287772 0.249336 0.284645 
0.270798 0.193834 0.220013 0.165702 0.215767 0.199765 0.216682 0.288237 0.425239 
0.387812 0.539566 0.325609 0.432014 0.379836 0.431552 0.431552 0.385053 0.438528 
0.364337 0.288459 0.296617 0.296617 0.215737 0.267727 0.224743 0.282617 0.183482 
0.184425 0.184425 0.208355 0.114976 0.156406 0.231847 0.321647 0.371572 0.242912 
0.333496 0.490557 0.250999 0.186663 0.244476 0.259773 0.352158 0.209566 0.248041 
0.245351 0.291791 0.255185 0.29279 0.535754 0.39782 0.340677 0.466592 0.312234 
0.473154 0.31884 0.158142 0.335936 0.307538 0.258045 0.276203 0.283939 0.314581 
0.388186 0.440068 0.342541 0.267592 0.466667 0.220273 0.309864 0.247786 0.328266 
0.358432 0.304495 0.274723 0.236881 0.236881 0.214657 0.279 0.223086 0.0967979 
0.0685665 0.0472239 0.142247 0.142247 0.187218 0.184608 0.216351 0.253127 0.327238 
0.332254 0.332254 0.204382 0.189596 0.215586 0.1923 0.0828376 0.0526597 0.166303 
0.199068 0.123884 0.0301771 0.0547025 0.109688 0.141932 0.236058 0.301308 0.301308 
0.270261 0.234393 0.292726 0.239398 0.243418 0.206592 0.132731 0.132731 0.0907203 
0 0 0.0847407 
WidthEq 1 327 double
1.15184 4.63634 2.1028 3.59515 4.11146 7.40739 1.67722 3.29942 2.73062 
6.57665 1 2.8585 3.20362 3.44483 4.19186 4.13694 7.20093 2.45192 
5.13786 6.28468 1.99747 2.52893 1.73255 5.73994 6.12392 6.14049 2.49468 
5.05386 4.66329 5.12473 5.83043 6.02913 2.42015 2.42015 2.19921 1.94133 
2.32146 2.20179 2.09266 2.11111 2.11111 2.16202 2.33884 2.31655 2.45582 
2.7102 2.82222 2.80479 2.84781 3.18685 2.91848 2.71937 2.87942 3.01986 
3.01986 2.85652 3.12691 2.56551 2.68361 2.35733 2.71826 3.35085 3.35085 
3.75666 4.13694 5.65655 4.59226 3.93647 3.9123 3.62306 3.73842 3.83717 
3.48495 4.82911 6.09874 5.97391 5.2024 4.70671 4.41235 4.64677 5.71071 
5.78483 6.7139 7.14348 3.16091 3.74243 6.21892 6.25975 6.85647 7.54104 
5.29998 4.95729 5.15701 5.73412 5.86189 6.78058 6.82106 7.279 7.49838 
7.4618 3.9312 3.93272 3.78336 3.64297 3.62671 3.48683 3.96352 4.28559 
3.17899 3.04443 2.80646 2.31538 2.31538 2.51672 2.45876 2.61992 2.49813 
2.70787 2.70787 2.68259 2.68887 2.80449 2.72702 2.67342 2.53182 2.61263 
2.56151 2.4577 2.4577 2.40075 2.69941 2.79238 2.46053 2.50714 2.23923 
2.32384 2.49189 2.39123 2.39123 1.91139 1.84183 1.84183 1.5728 1.5728 
1.70767 2.12423 1.8892 2.12468 2.3546 2.3546 2.40627 2.41058 2.41058 
2.41676 2.4888 2.51221 2.63598 2.51282 2.5569 2.67145 2.5037 2.61592 
2.73741 2.73741 3.03592 3.05026 3.05026 2.9084 2.9084 2.75367 2.63411 
2.63411 2.87836 3.20392 3.20392 3.25428 3.28291 3.0878 3.66096 3.46661 
3.46661 3.48733 3.48733 3.33018 3.1834 2.99752 2.63269 2.25631 2.3282 
2.03592 1.83631 2.09565 1.41646 1.39204 1.3512 2.07589 2.07589 2.95537 
2.99823 3.06196 3.13836 3.24217 3.45501 7.71157 5.77728 5.31665 5.75448 
6.19571 3.86017 3.29562 2.33322 2.20336 1.83175 1.67737 1.5611 1.7061 
1.83985 1.86711 2.33534 2.22024 2.42735 2.55614 2.55614 2.70661 2.57291 
2.61987 2.61085 2.7598 2.7598 3.54636 3.67884 4.70281 6.17747 4.09976 
3.72535 3.72535 3.69237 4.24861 4.04539 3.7975 3.50618 3.3284 2.99686 
2.49078 1.62423 6.26553 4.02868 2.33266 3.40516 3.09692 7.38869 5.89644 
4.24486 2.90186 3.01277 2.86594 2.7637 2.8585 2.70362 2.45182 2.71213 
2.53156 2.90252 3.17474 3.44103 3.92937 3.73467 4.85394 4.96028 5.11531 
4.10148 3.43328 3.21471 3.91509 2.72327 3.95445 3.77353 4.37157 3.63953 
3.09084 3.31077 2.91808 3.02761 3.02761 3.18791 2.98997 3.14272 3.08425 
3.28184 3.29223 3.00157 3.00157 3.06211 3.11075 3.12382 3.13517 2.95385 
3.26558 3.26558 4.02189 4.49818 4.65128 4.47624 4.38469 4.40972 4.72495 
4.59631 4.33311 4.49929 4.54514 4.244 4.21056 3.68751 3.27754 3.27754 
2.76826 2.70412 2.72657 3.12772 3.1527 3.24217 3.36929 3.36929 3.25833 
2.73731 2.73731 1.73554 
rRFP 1 327 double
2462.6 3150.37 2650.3 2944.86 3046.77 3697.32 2566.3 2886.49 2774.22 
3533.35 2432.63 2799.46 2867.58 2915.19 3062.64 3051.8 3656.57 2719.21 
3249.36 3475.72 2629.51 2734.41 2577.22 3368.2 3443.99 3447.26 2727.65 
3232.78 3155.69 3246.77 3386.06 3425.28 2712.94 2712.94 2669.33 2618.43 
2693.46 2669.84 2648.3 2651.94 2651.94 2661.99 2696.89 2692.49 2719.98 
2770.19 2792.3 2788.86 2797.35 2864.27 2811.3 2772 2803.59 2831.31 
2831.31 2799.07 2852.44 2741.63 2764.94 2700.54 2771.78 2896.64 2896.64 
2976.74 3051.8 3351.74 3141.67 3012.23 3007.46 2950.37 2973.14 2992.63 
2923.11 3188.42 3439.02 3414.38 3262.1 3164.26 3106.16 3152.43 3362.43 
3377.06 3560.44 3645.23 2859.15 2973.93 3462.74 3470.8 3588.58 3723.7 
3281.36 3213.72 3253.14 3367.05 3392.27 3573.6 3581.59 3671.98 3715.28 
3708.06 3011.19 3011.49 2982.01 2954.3 2951.09 2923.48 3017.57 3081.14 
2862.72 2836.16 2789.19 2692.26 2692.26 2732 2720.56 2752.37 2728.33 
2769.73 2769.73 2764.74 2765.98 2788.8 2773.51 2762.93 2734.98 2750.93 
2740.84 2720.35 2720.35 2709.11 2768.06 2786.41 2720.91 2730.11 2677.23 
2693.93 2727.1 2707.23 2707.23 2612.52 2598.79 2598.79 2545.69 2545.69 
2572.31 2654.53 2608.14 2654.62 2700 2700 2710.2 2711.05 2711.05 
2712.27 2726.49 2731.11 2755.54 2731.23 2739.93 2762.54 2729.43 2751.58 
2775.56 2775.56 2834.48 2837.31 2837.31 2809.31 2809.31 2778.77 2755.17 
2755.17 2803.38 2867.64 2867.64 2877.58 2883.23 2844.72 2957.85 2919.49 
2919.49 2923.58 2923.58 2892.56 2863.59 2826.9 2754.89 2680.6 2694.79 
2637.1 2597.7 2648.89 2514.83 2510.01 2501.95 2644.99 2644.99 2818.58 
2827.04 2839.62 2854.7 2875.19 2917.2 3757.36 3375.57 3284.65 3371.07 
3458.16 2997.17 2885.74 2695.78 2670.15 2596.8 2566.33 2543.38 2572 
2598.4 2603.78 2696.2 2673.48 2714.36 2739.78 2739.78 2769.48 2743.09 
2752.36 2750.58 2779.98 2779.98 2935.23 2961.38 3163.49 3454.56 3044.46 
2970.56 2970.56 2964.05 3073.84 3033.73 2984.8 2927.3 2892.21 2826.77 
2726.88 2555.84 3471.94 3030.43 2695.67 2907.36 2846.52 3693.63 3399.09 
3073.1 2808.02 2829.91 2800.93 2780.75 2799.46 2768.89 2719.19 2770.57 
2734.93 2808.15 2861.88 2914.44 3010.83 2972.4 3193.32 3214.31 3244.91 
3044.8 2912.91 2869.77 3008.01 2772.77 3015.78 2980.07 3098.11 2953.62 
2845.32 2888.73 2811.22 2832.84 2832.84 2864.48 2825.41 2855.56 2844.02 
2883.02 2885.07 2827.7 2827.7 2839.65 2849.25 2851.83 2854.07 2818.28 
2879.81 2879.81 3029.09 3123.1 3153.32 3118.77 3100.7 3105.64 3167.86 
3142.47 3090.52 3123.32 3132.37 3072.93 3066.33 2963.09 2882.17 2882.17 
2781.65 2768.99 2773.42 2852.6 2857.53 2875.19 2900.28 2900.28 2878.38 
2775.54 2775.54 2577.81 
rGFP 1 327 double
2449.49 2598.04 2517.77 2528.21 2639.77 2683.42 2507.58 2652.7 2567.12 
2681.7 2522.48 2550.33 2582.94 2554.91 2558.98 2564.46 2679.4 2541.98 
2682.72 2688.89 2473.43 2588.17 2594.99 2708.81 2676.14 2665.95 2612.12 
2675.57 2662.46 2679.28 2676.63 2669.96 2576.68 2576.68 2567.89 2551.74 
2553.62 2552.59 2570.14 2580.41 2580.41 2581.59 2579.54 2589.52 2570.12 
2541.28 2545.1 2539.47 2546.95 2536.23 2540.52 2540.68 2543.2 2567.32 
2567.32 2569.04 2563.94 2548.59 2548.78 2529.72 2530.56 2523.27 2523.27 
2542.85 2564.46 2622.23 2576.14 2561.52 2568.16 2579.88 2592.9 2587.41 
2593.57 2647.72 2664.74 2646.67 2636.52 2596.11 2584.64 2594.88 2611.1 
2641.01 2684.15 2689.31 2528.57 2557.69 2668.09 2699.57 2705.11 2688.15 
2624.96 2630.31 2696.38 2738.4 2749.89 2745.72 2732.07 2733.78 2702.09 
2730.65 2587.89 2560.72 2562.42 2533.59 2543.56 2557.88 2565.88 2555.88 
2565.41 2549.73 2539.64 2552.28 2552.28 2551.67 2541.44 2534.09 2548.3 
2538.15 2538.15 2548.23 2555.2 2559.15 2563.16 2555.35 2572.96 2579.73 
2566.73 2565.48 2565.48 2550.06 2537.43 2527.19 2523.15 2539.1 2562.95 
2568.28 2573.62 2568.79 2568.79 2564.28 2566.98 2566.98 2609.68 2609.68 
2597.4 2574.48 2593.83 2580.54 2578.14 2578.14 2590.19 2597.4 2597.4 
2592.59 2602.12 2596.09 2625.35 2617.59 2589.56 2572.89 2560.06 2563.05 
2590.79 2590.79 2560.57 2541.57 2541.57 2548.65 2548.65 2574.8 2631.75 
2631.75 2632.88 2638.37 2638.37 2600.51 2576.54 2586.05 2576.93 2573.37 
2573.37 2538.49 2538.49 2559.46 2532.98 2527.2 2505.88 2468.06 2477.89 
2471.41 2486.22 2504.27 2481 2478.02 2504.86 2525.93 2525.93 2533.05 
2578.14 2586.38 2597.2 2590.85 2566.28 2719.4 2683.59 2642.62 2680.77 
2691.58 2562.11 2551.07 2502.2 2509.12 2492.38 2489.75 2496.65 2526.58 
2527.44 2557.4 2539.8 2558 2557.46 2577.65 2577.65 2573.85 2580.44 
2563.7 2543.32 2552.2 2552.2 2558.96 2583.1 2606.14 2698.14 2566.21 
2553.88 2553.88 2561.64 2542 2553.36 2574.43 2594.79 2603 2546.75 
2549.26 2532.48 2682.09 2565.09 2520.65 2568.79 2584.74 2696.99 2665.33 
2597.52 2557.22 2551.1 2555.9 2618.8 2585.74 2561.63 2580.15 2554.3 
2586.79 2565.14 2526.79 2596.62 2609.43 2581.83 2636.99 2645.44 2668.01 
2650.65 2632.17 2587.62 2593.05 2597.09 2575.91 2603.09 2603.67 2603.58 
2586.38 2579.75 2552.94 2546.14 2546.14 2545.31 2557.32 2546.3 2504.94 
2500.6 2493.77 2516.57 2516.57 2532.21 2533.06 2543.47 2555.48 2570.07 
2586.78 2586.78 2572.02 2582.47 2599.9 2582.93 2531.51 2518.73 2579.23 
2590.23 2548.16 2510.42 2522.47 2539.62 2552.38 2571.73 2577.17 2577.17 
2545.25 2532.77 2549.63 2550.86 2553.12 2544.69 2524.28 2524.28 2507.33 
2469.58 2469.58 2468.9 
bkstRFP 1 327 double
227.35 915.12 415.05 709.61 811.52 1462.07 331.05 651.24 538.97 
1298.1 197.38 564.21 632.33 679.94 827.39 816.55 1421.32 483.96 
1014.11 1240.47 394.26 499.16 341.97 1132.95 1208.74 1212.01 492.4 
997.53 920.44 1011.52 1150.81 1190.03 477.69 477.69 434.08 383.18 
458.21 434.59 413.05 416.69 416.69 426.74 461.64 457.24 484.73 
534.94 557.05 553.61 562.1 629.02 576.05 536.75 568.34 596.06 
596.06 563.82 617.19 506.38 529.69 465.29 536.53 661.39 661.39 
741.49 816.55 1116.49 906.42 776.98 772.21 715.12 737.89 757.38 
687.86 953.17 1203.77 1179.13 1026.85 929.01 870.91 917.18 1127.18 
1141.81 1325.19 1409.98 623.9 738.68 1227.49 1235.55 1353.33 1488.45 
1046.11 978.47 1017.89 1131.8 1157.02 1338.35 1346.34 1436.73 1480.03 
1472.81 775.94 776.24 746.76 719.05 715.84 688.23 782.32 845.89 
627.47 600.91 553.94 457.01 457.01 496.75 485.31 517.12 493.08 
534.48 534.48 529.49 530.73 553.55 538.26 527.68 499.73 515.68 
505.59 485.1 485.1 473.86 532.81 551.16 485.66 494.86 441.98 
458.68 491.85 471.98 471.98 377.27 363.54 363.54 310.44 310.44 
337.06 419.28 372.89 419.37 464.75 464.75 474.95 475.8 475.8 
477.02 491.24 495.86 520.29 495.98 504.68 527.29 494.18 516.33 
540.31 540.31 599.23 602.06 602.06 574.06 574.06 543.52 519.92 
519.92 568.13 632.39 632.39 642.33 647.98 609.47 722.6 684.24 
684.24 688.33 688.33 657.31 628.34 591.65 519.64 445.35 459.54 
401.85 362.45 413.64 279.58 274.76 266.7 409.74 409.74 583.33 
591.79 604.37 619.45 639.94 681.95 1522.11 1140.32 1049.4 1135.82 
1222.91 761.92 650.49 460.53 434.9 361.55 331.08 308.13 336.75 
363.15 368.53 460.95 438.23 479.11 504.53 504.53 534.23 507.84 
517.11 515.33 544.73 544.73 699.98 726.13 928.24 1219.31 809.21 
735.31 735.31 728.8 838.59 798.48 749.55 692.05 656.96 591.52 
491.63 320.59 1236.69 795.18 460.42 672.11 611.27 1458.38 1163.84 
837.85 572.77 594.66 565.68 545.5 564.21 533.64 483.94 535.32 
499.68 572.9 626.63 679.19 775.58 737.15 958.07 979.06 1009.66 
809.55 677.66 634.52 772.76 537.52 780.53 744.82 862.86 718.37 
610.07 653.48 575.97 597.59 597.59 629.23 590.16 620.31 608.77 
647.77 649.82 592.45 592.45 604.4 614 616.58 618.82 583.03 
644.56 644.56 793.84 887.85 918.07 883.52 865.45 870.39 932.61 
907.22 855.27 888.07 897.12 837.68 831.08 727.84 646.92 646.92 
546.4 533.74 538.17 617.35 622.28 639.94 665.03 665.03 643.13 
540.29 540.29 342.56 
bkstGFP 1 327 double
22.157 170.707 90.437 100.877 212.437 256.087 80.247 225.367 139.787 
254.367 95.147 122.997 155.607 127.577 131.647 137.127 252.067 114.647 
255.387 261.557 46.097 160.837 167.657 281.477 248.807 238.617 184.787 
248.237 235.127 251.947 249.297 242.627 149.347 149.347 140.557 124.407 
126.287 125.257 142.807 153.077 153.077 154.257 152.207 162.187 142.787 
113.947 117.767 112.137 119.617 108.897 113.187 113.347 115.867 139.987 
139.987 141.707 136.607 121.257 121.447 102.387 103.227 95.937 95.937 
115.517 137.127 194.897 148.807 134.187 140.827 152.547 165.567 160.077 
166.237 220.387 237.407 219.337 209.187 168.777 157.307 167.547 183.767 
213.677 256.817 261.977 101.237 130.357 240.757 272.237 277.777 260.817 
197.627 202.977 269.047 311.067 322.557 318.387 304.737 306.447 274.757 
303.317 160.557 133.387 135.087 106.257 116.227 130.547 138.547 128.547 
138.077 122.397 112.307 124.947 124.947 124.337 114.107 106.757 120.967 
110.817 110.817 120.897 127.867 131.817 135.827 128.017 145.627 152.397 
139.397 138.147 138.147 122.727 110.097 99.857 95.817 111.767 135.617 
140.947 146.287 141.457 141.457 136.947 139.647 139.647 182.347 182.347 
170.067 147.147 166.497 153.207 150.807 150.807 162.857 170.067 170.067 
165.257 174.787 168.757 198.017 190.257 162.227 145.557 132.727 135.717 
163.457 163.457 133.237 114.237 114.237 121.317 121.317 147.467 204.417 
204.417 205.547 211.037 211.037 173.177 149.207 158.717 149.597 146.037 
146.037 111.157 111.157 132.127 105.647 99.867 78.547 40.727 50.557 
44.077 58.887 76.937 53.667 50.687 77.527 98.597 98.597 105.717 
150.807 159.047 169.867 163.517 138.947 292.067 256.257 215.287 253.437 
264.247 134.777 123.737 74.867 81.787 65.047 62.417 69.317 99.247 
100.107 130.067 112.467 130.667 130.127 150.317 150.317 146.517 153.107 
136.367 115.987 124.867 124.867 131.627 155.767 178.807 270.807 138.877 
126.547 126.547 134.307 114.667 126.027 147.097 167.457 175.667 119.417 
121.927 105.147 254.757 137.757 93.317 141.457 157.407 269.657 237.997 
170.187 129.887 123.767 128.567 191.467 158.407 134.297 152.817 126.967 
159.457 137.807 99.457 169.287 182.097 154.497 209.657 218.107 240.677 
223.317 204.837 160.287 165.717 169.757 148.577 175.757 176.337 176.247 
159.047 152.417 125.607 118.807 118.807 117.977 129.987 118.967 77.607 
73.267 66.437 89.237 89.237 104.877 105.727 116.137 128.147 142.737 
159.447 159.447 144.687 155.137 172.567 155.597 104.177 91.397 151.897 
162.897 120.827 83.087 95.137 112.287 125.047 144.397 149.837 149.837 
117.917 105.437 122.297 123.527 125.787 117.357 96.947 96.947 79.997 
42.247 42.247 41.567 
tubeWidth 1 327 double
0.173712 0.264548 0.0534023 0.258236 0.219848 0.359526 0.0928066 0.257222 0.0689673 
0.248664 0.0687987 0.189418 0.100284 0.217259 0.186124 0.306681 0.162361 0.132388 
0.149484 0.252855 0.028909 0.192931 0.0718472 0.107109 0.149691 0.0953708 0.146486 
0.246297 0.260559 0.29183 0.290839 0.254698 0.161727 0.174068 0.165858 0.156575 
0.156908 0.18547 0.197971 0.196096 0.192377 0.167164 0.20372 0.224637 0.211321 
0.204907 0.22267 0.241917 0.184299 0.191151 0.219649 0.253199 0.218698 0.189495 
0.162038 0.19166 0.207454 0.19514 0.185236 0.184782 0.160838 0.16438 0.165011 
0.209251 0.268733 0.0928088 0.117408 0.112263 0.0960525 0.0931949 0.123649 0.120715 
0.167173 0.199002 0.242121 0.121927 0.102245 0.0733741 0.0341385 0.151805 0.130306 
0.215464 0.222364 0.253221 0.152984 0.210547 0.223353 0.169146 0.173031 0.185188 
0.271355 0.256906 0.165054 0.212934 0.22108 0.217156 0.278943 0.227721 0.242344 
0.175356 0.197076 0.174217 0.187079 0.216434 0.214192 0.231616 0.256165 0.245968 
0.213552 0.217806 0.250289 0.190854 0.19404 0.203889 0.222305 0.227804 0.230352 