# vtk DataFile Version 3.0
vtk output
ASCII
DATASET POLYDATA
POINTS 379 float
0.831075 -0.199123 0.920729 1.64728 0.00117505 0.843996 1.84259 1.1838 0.765381 
1.98588 1.35956 0.764041 1.69654 -0.332869 0.674179 2.11604 -0.467958 0.723157 
5.93307 -0.186778 1.04582 6.67281 -0.721699 0.95487 5.85203 -0.156743 0.834561 
-0.549943 -0.210005 0.0578442 3.17854 -0.372748 0.408639 3.51007 0.336755 0.246566 
3.58463 0.946368 0.136513 6.78162 0.425077 0.468387 3.64949 1.02963 -0.0658715 
5.60214 0.19034 -0.0020845 5.80171 0.0860219 0.205807 6.7527 0.309481 0.273705 
2.7062 -1.02486 -0.185455 3.82729 0.666496 -0.191834 6.26001 0.107013 0.0441104 
6.98447 0.516526 -0.460918 5.02686 -0.493364 -0.623073 7.21889 0.141697 -0.476337 
7.33264 0.55365 -0.499583 5.04744 -0.632061 -0.811392 7.44701 0.613813 -0.695605 
2.33229 -1.19256 -1.21303 4.20981 -0.0898266 -1.20002 4.73186 0.0533163 -1.09725 
4.93318 -0.0255961 -1.20691 7.20185 0.295842 -0.893385 7.74642 0.0417358 -0.823394 
2.40239 -1.35436 -1.39499 4.9869 0.411771 -1.30482 8.10048 0.353989 -1.01824 
1.83152 -1.33838 -1.64945 7.96741 -0.622838 -1.15223 2.55556 -1.13811 -1.80169 
2.46657 -1.14946 -1.60734 2.38812 -1.16573 -1.41164 7.97378 -0.564003 -1.12659 
7.9562 -0.493417 -1.08916 7.92732 -0.417266 -1.04574 7.89736 -0.340904 -1.0099 
7.86864 -0.265694 -0.988773 7.83992 -0.190483 -0.967649 7.80986 -0.114075 -0.931823 
7.77847 -0.036469 -0.881286 1.88102 -1.36148 -1.64309 1.93053 -1.38458 -1.63673 
1.98004 -1.40768 -1.63036 2.02888 -1.43018 -1.61665 2.07643 -1.45139 -1.58823 
2.12271 -1.469 -1.53783 2.17177 -1.47448 -1.48071 2.22405 -1.45189 -1.43304 
2.26976 -1.41395 -1.40961 2.33127 -1.38183 -1.39919 8.0797 0.301879 -1.04573 
8.05948 0.249216 -1.08058 8.03629 0.198516 -1.10094 8.00002 0.155649 -1.07835 
7.94372 0.124148 -1.00626 7.88898 0.0924923 -0.919087 7.82087 0.066213 -0.855961 
4.91512 0.384898 -1.30167 4.851 0.355027 -1.28266 4.80026 0.319778 -1.23961 
4.74605 0.286435 -1.18956 4.70962 0.244508 -1.14468 4.695 0.191536 -1.1193 
4.70773 0.125229 -1.10529 5.00421 0.346785 -1.20095 5.02254 0.280168 -1.12672 
5.03578 0.214202 -1.09775 5.03658 0.152614 -1.10511 5.03942 0.0877916 -1.1344 
5.00956 0.029435 -1.16966 5.00169 0.46927 -1.21116 5.01991 0.523729 -1.15424 
5.04453 0.573185 -1.14859 5.08453 0.613445 -1.19301 5.15158 0.639935 -1.26373 
5.23068 0.660222 -1.34776 5.31014 0.680796 -1.41686 5.38693 0.701475 -1.46383 
5.45675 0.715419 -1.48103 5.51801 0.715213 -1.48293 5.58075 0.720178 -1.47765 
5.64051 0.718826 -1.47213 5.70321 0.723692 -1.46685 5.76297 0.72234 -1.46133 
5.82566 0.727206 -1.45605 5.88471 0.726353 -1.44318 5.94459 0.731271 -1.41577 
5.99528 0.722737 -1.36571 6.04177 0.707316 -1.30801 6.09241 0.698682 -1.25795 
6.15146 0.701856 -1.23048 6.20538 0.690129 -1.21718 6.25509 0.669471 -1.20353 
6.30347 0.65001 -1.17518 6.35411 0.641376 -1.12513 6.41133 0.64869 -1.0683 
6.467 0.650731 -1.01866 6.52621 0.656247 -0.983899 6.57823 0.646515 -0.948548 
6.62539 0.630496 -0.898206 6.67536 0.622461 -0.840785 6.73175 0.62803 -0.7839 
6.78235 0.619296 -0.73384 6.82784 0.602274 -0.673614 6.87278 0.583068 -0.605796 
6.92264 0.557299 -0.532021 4.85163 -0.000523588 -1.18152 4.78784 0.0258746 -1.14467 
4.12941 -0.145512 -1.36444 4.06431 -0.174896 -1.47987 4.01215 -0.169259 -1.5348 
3.96368 -0.147203 -1.55342 3.9196 -0.111073 -1.55289 3.88861 -0.050198 -1.5308 
3.88083 0.0144316 -1.46961 3.91985 0.0602713 -1.3728 3.97806 0.0932888 -1.26576 
4.03169 0.101531 -1.17948 4.06688 0.061398 -1.12328 4.10473 0.0133274 -1.11096 
4.15956 -0.0192678 -1.14066 2.43758 -1.37966 -1.28528 2.47014 -1.40452 -1.15345 
2.51874 -1.38933 -1.00104 2.57659 -1.3543 -0.849412 2.63506 -1.31568 -0.705482 
2.68577 -1.27379 -0.577453 2.7207 -1.22511 -0.466324 2.74912 -1.17397 -0.370904 
2.73781 -1.10429 -0.280591 2.36767 -1.27376 -1.30769 7.67876 0.0283386 -0.820964 
7.61626 0.0299324 -0.804367 7.54969 0.0309112 -0.758241 7.48835 0.0490261 -0.690642 
7.42916 0.0758784 -0.608651 7.36693 0.0952788 -0.541237 7.29483 0.106059 -0.496409 
7.22261 0.243245 -0.782758 7.23606 0.201394 -0.643807 7.14966 0.32406 -0.860606 
7.09766 0.366245 -0.784179 7.04621 0.436172 -0.645297 7.26688 0.328749 -0.823016 
7.32117 0.366661 -0.754035 7.34869 0.417358 -0.681045 7.35352 0.479218 -0.596098 
4.94716 -0.104613 -1.13455 4.94695 -0.168527 -1.08458 4.96016 -0.235042 -1.05061 
4.98139 -0.304301 -1.00822 5.0007 -0.371083 -0.926422 5.01544 -0.43372 -0.793126 
4.64426 0.0398735 -0.93992 4.56071 0.0229381 -0.82671 4.48458 0.00166147 -0.787091 
4.42019 -0.0173702 -0.831173 4.36614 -0.0275428 -0.934737 4.2993 -0.0538558 -1.0655 
2.34438 -1.14517 -1.01432 2.36441 -1.11847 -0.820671 2.38497 -1.08691 -0.642286 
2.42054 -1.07133 -0.49109 2.47007 -1.05772 -0.368319 2.51816 -1.06147 -0.281578 
2.56978 -1.06601 -0.224302 2.63483 -1.05013 -0.197323 7.4006 0.57856 -0.599925 
5.04792 -0.567883 -0.719563 7.26853 0.571916 -0.409863 7.20097 0.573573 -0.353939 
7.13863 0.573741 -0.349643 7.06801 0.552771 -0.391642 7.12601 0.129199 -0.386717 
7.05273 0.132749 -0.319023 6.98463 0.134097 -0.2656 6.92345 0.154634 -0.190729 
6.86688 0.196944 -0.0724354 6.8136 0.258285 0.089375 4.9999 -0.413502 -0.460388 
4.99755 -0.34599 -0.316853 5.0086 -0.28588 -0.201352 5.0257 -0.229749 -0.114828 
5.05322 -0.179053 -0.0418475 5.09504 -0.135318 0.0255397 5.1239 -0.0858236 0.0838198 
5.14519 -0.0333733 0.126244 5.16857 0.0172347 0.146625 5.20321 0.0621852 0.161029 
5.26077 0.0947147 0.185976 5.32418 0.113963 0.220743 5.38794 0.117772 0.221733 
5.47712 0.140334 0.145132 5.67834 0.285576 -0.0798043 5.72583 0.347491 -0.146954 
5.76851 0.390215 -0.194329 5.83099 0.420789 -0.214292 5.90107 0.444064 -0.217307 
5.96289 0.447322 -0.211976 6.00681 0.41238 -0.205154 6.05206 0.38025 -0.198441 
6.09925 0.35425 -0.184587 6.14081 0.320318 -0.155678 6.16965 0.265466 -0.103832 
6.19701 0.20947 -0.0445532 6.2307 0.164905 0.00689444 6.27147 0.0474682 0.21416 
6.28704 -0.013424 0.347388 6.31152 -0.0694779 0.428786 6.34646 -0.11543 0.46554 
6.37694 -0.176863 0.480766 6.40321 -0.247236 0.496339 6.42814 -0.316411 0.526613 
6.45534 -0.374761 0.578594 6.4891 -0.417163 0.637347 6.52071 -0.464138 0.696267 
6.55602 -0.505296 0.747582 6.58845 -0.550527 0.806435 6.6272 -0.582108 0.864757 
6.6641 -0.615132 0.915555 6.68159 -0.667802 0.943812 6.32697 0.139016 0.114729 
6.3946 0.170421 0.177992 6.46355 0.200627 0.226543 6.53451 0.229038 0.253037 
6.60679 0.256252 0.26483 6.67975 0.282866 0.269268 5.67581 0.105803 0.0987789 
5.73687 0.0750591 0.167253 3.77976 0.732112 -0.156712 3.7294 0.792267 -0.106471 
3.67765 0.834938 -0.0400045 3.62678 0.879542 0.0413054 3.81374 0.594712 -0.2096 
3.77664 0.540063 -0.215973 3.76549 0.482892 -0.204863 3.7462 0.432287 -0.170151 
3.70309 0.393513 -0.0863265 3.62141 0.366546 0.057708 2.75875 -0.986128 -0.116688 
2.78924 -0.937398 -0.0581976 2.80813 -0.883538 -0.0086408 2.81695 -0.82527 0.0321815 
2.81146 -0.760037 0.0786057 2.82069 -0.701382 0.134362 2.84897 -0.65133 0.20001 
2.90326 -0.613417 0.269001 2.96896 -0.58111 0.332015 3.03598 -0.55 0.380317 
3.09437 -0.515726 0.405196 3.12971 -0.471275 0.412242 3.155 -0.422417 0.410552 
6.76682 0.367578 0.374719 3.61673 0.988299 0.0389938 3.52542 0.913628 0.141284 
3.4875 0.87153 0.163663 3.45823 0.826264 0.209467 3.42946 0.781339 0.270218 
3.40185 0.736156 0.338561 3.38556 0.685409 0.400916 3.39398 0.622265 0.444133 
3.40799 0.554924 0.445908 3.41555 0.489573 0.402169 3.44847 0.415467 0.329092 
3.54508 0.24418 0.224936 3.5735 0.164318 0.211627 3.58819 0.0956703 0.208594 
3.57755 0.0398391 0.209689 3.55671 -0.0113777 0.204508 3.53633 -0.063101 0.191955 
3.52378 -0.118766 0.172968 3.51223 -0.17403 0.176422 3.46175 -0.20998 0.204629 
3.39886 -0.238695 0.268425 3.35521 -0.27639 0.334705 3.3127 -0.315189 0.386249 
3.25022 -0.345829 0.405472 3.16113 -0.307716 0.304757 3.14116 -0.240335 0.23031 
3.11884 -0.170127 0.200177 3.10213 -0.101219 0.207983 3.09558 -0.0380288 0.247013 
3.06959 0.0212547 0.292076 3.02229 0.0586093 0.336985 2.96467 0.0763255 0.375095 
2.89902 0.0792473 0.421146 2.83972 0.0956571 0.466684 2.78452 0.118761 0.504575 
2.7264 0.131629 0.528114 2.65761 0.121881 0.552529 2.58744 0.113231 0.591649 
2.52654 0.12625 0.637319 2.46705 0.140225 0.675563 2.40309 0.138709 0.69228 
2.34193 0.139106 0.694175 2.27492 0.12511 0.689249 2.20788 0.111024 0.684327 
2.14656 0.109068 0.678934 2.07885 0.0955804 0.681368 2.00981 0.0832902 0.698502 
1.94445 0.0848358 0.737227 1.87192 0.0731878 0.783853 1.7958 0.0519099 0.823462 
1.72089 0.027191 0.841078 -0.513922 -0.166158 0.0575348 -0.464897 -0.128212 0.066348 
-0.420967 -0.0893191 0.0895422 -0.367966 -0.0649339 0.137123 -0.314485 -0.0590312 0.201182 
-0.258661 -0.0503837 0.272694 -0.210017 -0.0572213 0.344817 -0.165015 -0.0737873 0.409938 
-0.119455 -0.0931963 0.460411 -0.0719449 -0.114501 0.488831 -0.0231051 -0.137002 0.502549 
0.0264483 -0.160004 0.508908 0.0767308 -0.181459 0.515208 0.12983 -0.194931 0.528576 
0.183844 -0.202442 0.556462 0.223768 -0.2338 0.607398 0.270264 -0.249211 0.665105 
0.331621 -0.235121 0.714281 0.395705 -0.221282 0.74134 0.450501 -0.231156 0.754569 
0.501033 -0.250069 0.768148 0.553717 -0.2604 0.796144 0.611915 -0.253776 0.843153 
0.669586 -0.249751 0.890336 0.741541 -0.229979 0.917624 5.89288 -0.172059 0.936518 
2.04991 -0.480101 0.718159 1.99445 -0.469628 0.712285 1.94329 -0.450026 0.706058 
1.88948 -0.436046 0.700048 1.83352 -0.426639 0.694216 1.79047 -0.389844 0.687322 
1.74522 -0.357714 0.68061 1.62184 -0.355145 0.69908 1.55085 -0.365548 0.738268 
1.49068 -0.350974 0.783877 1.43549 -0.32787 0.821767 1.37881 -0.313947 0.837887 
1.31627 -0.31647 0.839895 1.2566 -0.314919 0.834367 1.19469 -0.31814 0.829024 
1.13923 -0.307658 0.82315 1.08381 -0.297086 0.817272 1.02223 -0.298088 0.816755 
0.964934 -0.28298 0.830234 0.904259 -0.249983 0.866832 1.68238 -0.265317 0.674862 
1.68053 -0.202936 0.691999 1.67194 -0.136541 0.730583 1.66676 -0.0711662 0.784488 
1.92734 1.32622 0.761456 1.89142 1.28232 0.761778 1.86614 1.23347 0.763468 
1.57007 -0.0163625 0.905597 1.50201 -0.0165292 0.959147 1.44896 0.0111307 0.996861 
1.38931 0.0187444 1.01322 1.32975 0.0225399 1.01499 1.26788 0.0194176 1.00964 
1.21237 0.0298003 1.00377 1.15542 0.0391278 1.00532 1.08648 0.0267913 1.02247 
1.01224 0.00475621 1.06231 0.948039 -0.0242635 1.10115 0.909779 -0.0683736 1.10625 
0.878233 -0.127092 1.04102 
LINES 41 464
4 38 39 40 27 
10 37 41 42 43 44 45 46 47 48 32 
12 36 49 50 51 52 53 54 55 56 57 58 33 
9 35 59 60 61 62 63 64 65 32 
9 34 66 67 68 69 70 71 72 29 
8 34 73 74 75 76 77 78 30 
38 34 79 80 81 82 83 84 85 86 87 88 89 90 91 92 93 94 95 96 97 98 99 100 101 102 103 104 105 106 107 108 109 110 111 112 113 114 21 
4 30 115 116 29 
15 28 117 118 119 120 121 122 123 124 125 126 127 128 129 28 
11 33 130 131 132 133 134 135 136 137 138 18 
3 33 139 27 
9 32 140 141 142 143 144 145 146 23 
4 31 147 148 23 
5 31 149 150 151 21 
6 31 152 153 154 155 24 
8 30 156 157 158 159 160 161 22 
8 29 162 163 164 165 166 167 28 
10 27 168 169 170 171 172 173 174 175 18 
3 26 176 24 
3 25 177 22 
6 24 178 179 180 181 21 
8 23 182 183 184 185 186 187 17 
16 22 188 189 190 191 192 193 194 195 196 197 198 199 200 201 15 
15 15 202 203 204 205 206 207 208 209 210 211 212 213 214 20 
17 20 215 216 217 218 219 220 221 222 223 224 225 226 227 228 229 7 
8 20 230 231 232 233 234 235 17 
4 15 236 237 16 
15 18 248 249 250 251 252 253 254 255 256 257 258 259 260 10 
3 17 261 13 
3 14 262 12 
12 12 263 264 265 266 267 268 269 270 271 272 11 
15 11 273 274 275 276 277 278 279 280 281 282 283 284 285 10 
29 10 286 287 288 289 290 291 292 293 294 295 296 297 298 299 300 301 302 303 304 305 306 307 308 309 310 311 312 1 
27 9 313 314 315 316 317 318 319 320 321 322 323 324 325 326 327 328 329 330 331 332 333 334 335 336 337 0 
3 8 338 6 
9 5 339 340 341 342 343 344 345 4 
15 4 346 347 348 349 350 351 352 353 354 355 356 357 358 0 
6 4 359 360 361 362 1 
5 3 363 364 365 2 
15 1 366 367 368 369 370 371 372 373 374 375 376 377 378 0 
13 12 241 240 239 238 19 242 243 244 245 246 247 11 

POINT_DATA 379
SCALARS DY_raw double
LOOKUP_TABLE default
472.139 462.631 399.861 311.929 431.288 601.01 550.446 478.367 472.823 
780.17 570.945 487.099 436.302 568.674 310.67 466.525 472.099 509.976 
563.39 432.373 293.192 387.729 364.194 448.385 359.903 465.252 251.021 
495.192 423.249 469.997 394.854 310.585 447.642 446.013 370.527 398.393 
847.039 459.107 337.729 330.196 345.092 460.932 494.814 522.754 594.35 
711.877 518.204 555.118 425.971 767.41 767.41 651.96 605.669 596.686 
574.323 622.399 615.264 583.036 543.109 366.557 364.715 390.565 396.299 
439.445 389.907 442.974 389.167 395.781 430.26 444.637 473.842 475.658 
456.551 408.057 435.403 434.346 386.491 376.132 382.928 380.882 432.022 
425.455 398.827 341.639 447.812 473.444 441.689 418.129 408.738 408.738 
365.698 359.992 348.365 389.299 396.397 468.228 464.758 490.127 590.161 
608.693 608.693 465.996 451.446 498.211 523.192 494.106 494.106 524.359 
434.708 416.164 447.841 381.04 319.219 323.036 374.735 442.486 454.538 
440.059 465.183 468.252 530.822 578.64 568.002 575.258 606.975 557.086 
481.086 550.939 502.527 422.28 431.76 426.873 453.809 383.072 459.44 
399.379 485.556 442.393 457.852 458.989 477.778 506.353 461.354 457.028 
393.892 402.759 426.852 396.426 443.566 336.978 374.078 402.268 358.86 
336.311 294.091 332.674 387.796 409.691 413.708 485.331 510.009 504.33 
591.14 657.626 597.553 568.41 488.274 394.241 513.293 477.19 510.58 
466.017 571.148 528.857 586.475 519.712 283.531 388.933 378.352 343.048 
344.212 357.367 449.682 449.941 432.995 374.105 400.7 496.069 436.407 
413.33 532.182 550.23 556.975 597.572 541.416 478.067 478.067 449.519 
442.72 432.82 443.418 473.294 478.656 440.716 430.006 454.443 470.18 
481.681 460.474 427.104 422.693 368.949 300.847 325.114 310.941 331.476 
456.956 501.04 517.013 506.073 542.719 418.608 419.111 511.266 485.289 
458.817 444.366 546.393 507.906 531.793 315.833 415.364 513.278 483.302 
522.438 517.14 401.41 423.154 462.445 458.55 411.219 390.053 449.286 
467.005 470.776 450.788 448.999 445.666 501.575 528.649 596.546 564.974 
564.974 663.725 703.3 706.929 653.567 661.313 593.153 553.719 570.945 
514.03 353.822 455.432 470.646 516.23 540.913 554.74 514.018 471.629 
468.883 429.968 467.113 497.541 514.476 511.991 529.807 533.211 467.792 
467.792 480.855 500.152 521.186 520.336 533.739 567.372 624.515 555.231 
576.338 560.209 549.699 516.935 493.015 535.149 525.976 456.605 515.399 
467.665 512.39 543.537 592.561 607.346 598.073 525.785 525.785 565.686 
560.112 560.112 530.199 541.705 576.851 550.276 526.688 694.95 649.21 
523.601 473.495 411.4 445.25 363.631 402.943 368.027 329.723 329.723 
312.383 331.155 338.488 338.488 359.937 386.654 415.006 403.536 403.537 
404.32 423.544 462.123 449.213 468.603 542.26 647.332 647.332 647.247 
542.157 542.157 464.315 431.288 375.154 391.366 432.437 448.285 448.285 
443.4 448.584 448.584 435.445 424.741 410.411 428.055 456.851 346.56 
350.972 367.313 421.334 333.951 370.525 399.861 519.082 576.019 564.919 
587.834 599.77 614.014 635.9 635.9 587.087 550.328 568.701 571 
548.129 
FIELD FieldData 7
DY_minmax 1 379 double
0.370993 0.35504 0.249724 0.102191 0.302452 0.587212 0.502376 0.381442 0.372139 
0.887808 0.536769 0.396092 0.310864 0.53296 0.100079 0.361572 0.370925 0.434476 
0.524093 0.304272 0.0707544 0.229369 0.189881 0.331137 0.182682 0.359438 0 
0.409671 0.288965 0.367398 0.241323 0.0999363 0.32989 0.327158 0.200507 0.247262 
1 0.349127 0.145478 0.13284 0.157833 0.352188 0.409037 0.455914 0.576039 
0.773225 0.448281 0.510215 0.293532 0.866399 0.866399 0.672697 0.59503 0.579958 
0.542437 0.6231 0.611128 0.557055 0.490066 0.193846 0.190755 0.234127 0.243747 
0.316137 0.233023 0.322058 0.231781 0.242878 0.300727 0.324849 0.373849 0.376896 
0.344839 0.263475 0.309357 0.307583 0.227292 0.209911 0.221314 0.21788 0.303684 
0.292665 0.247988 0.152039 0.330176 0.373182 0.319902 0.280373 0.264618 0.264618 
0.192405 0.182831 0.163324 0.232003 0.243912 0.364431 0.358608 0.401172 0.569009 
0.600102 0.600102 0.360686 0.336274 0.414736 0.456649 0.407849 0.407849 0.458608 
0.30819 0.277077 0.330225 0.218145 0.114422 0.120827 0.207567 0.321241 0.341461 
0.317168 0.359322 0.364471 0.46945 0.54968 0.531832 0.544005 0.59722 0.513517 
0.386003 0.503203 0.421977 0.287339 0.303244 0.295045 0.340238 0.221555 0.349686 
0.248914 0.393502 0.321085 0.347022 0.348929 0.380453 0.428396 0.352897 0.345639 
0.239709 0.254587 0.295009 0.24396 0.323053 0.144219 0.206465 0.253762 0.180931 
0.143099 0.0722626 0.136997 0.229481 0.266217 0.272956 0.393126 0.43453 0.425002 
0.570653 0.682202 0.581412 0.532515 0.398064 0.240295 0.44004 0.379466 0.435488 
0.36072 0.537109 0.466153 0.562826 0.45081 0.0545443 0.231389 0.213635 0.154403 
0.156356 0.178427 0.333314 0.333749 0.305317 0.206511 0.251132 0.411142 0.311041 
0.272322 0.471732 0.502014 0.513331 0.581443 0.487225 0.380938 0.380938 0.33304 
0.321632 0.305023 0.322805 0.37293 0.381927 0.318271 0.300302 0.341302 0.367706 
0.387002 0.35142 0.295432 0.288032 0.19786 0.0835982 0.124313 0.100533 0.134987 
0.345518 0.419482 0.446282 0.427926 0.489412 0.281177 0.282021 0.43664 0.393056 
0.348641 0.324395 0.495576 0.431003 0.471079 0.108741 0.275735 0.440015 0.389721 
0.455383 0.446494 0.252323 0.288805 0.354727 0.348192 0.268781 0.233267 0.332649 
0.362378 0.368705 0.335169 0.332168 0.326575 0.42038 0.465805 0.579722 0.526751 
0.526751 0.692436 0.758835 0.764923 0.675393 0.688388 0.574029 0.507867 0.536769 
0.441277 0.172479 0.342961 0.368487 0.444968 0.486381 0.509581 0.441257 0.370136 
0.365529 0.300238 0.36256 0.413611 0.442025 0.437857 0.467748 0.473458 0.363699 
0.363699 0.385615 0.417992 0.453284 0.451857 0.474345 0.530774 0.626649 0.510404 
0.545817 0.518756 0.501122 0.446151 0.406019 0.476711 0.46132 0.344928 0.443574 
0.363485 0.438526 0.490784 0.573036 0.597843 0.582285 0.460999 0.460999 0.527946 
0.518593 0.518593 0.468406 0.48771 0.546678 0.50209 0.462515 0.744825 0.668082 
0.457335 0.373268 0.269084 0.325877 0.188937 0.254896 0.196313 0.132047 0.132047 
0.102953 0.134449 0.146752 0.146752 0.182739 0.227564 0.275135 0.255889 0.255891 
0.257205 0.289459 0.354187 0.332527 0.36506 0.488642 0.664932 0.664932 0.664789 
0.488469 0.488469 0.357866 0.302452 0.20827 0.23547 0.30438 0.33097 0.33097 
0.322773 0.331471 0.331471 0.309427 0.291467 0.267424 0.297028 0.345341 0.160296 
0.167698 0.195114 0.285751 0.139139 0.200504 0.249724 0.449754 0.545283 0.526659 
0.565106 0.585133 0.60903 0.64575 0.64575 0.563852 0.502178 0.533004 0.536862 
0.498489 
WidthEq 1 379 double
1.79972 1.75799 1.42717 2.15645 1.71305 1 1.72956 1.47991 1.89164 
1.33103 3.17628 2.72088 2.56121 1.96515 2.68108 2.50109 2.42072 2.19822 
2.52892 2.5759 2.67736 2.79172 3.73614 2.55568 2.53546 2.38604 1.66767 
3.42887 3.19745 2.34423 3.09755 2.53029 1.87181 4.01309 3.10371 1.60168 
1.76468 1.57157 3.09766 4.03184 3.76288 1.61996 1.50689 1.44095 1.37113 
1.17829 1.66641 1.6169 2.00948 1.99403 1.99403 2.28339 2.37645 2.42434 
2.51761 2.47913 2.71646 3.08938 3.2302 1.70825 1.79927 1.87946 1.91386 
1.8542 2.14026 1.99558 2.95503 2.73303 2.36188 2.39746 2.28524 2.12619 
2.42168 3.02306 2.96948 2.90609 3.00147 3.12515 3.26688 3.21496 3.11676 
3.01372 2.48065 2.63439 1.73345 1.6696 1.62123 1.69297 1.97863 1.97863 
2.02427 2.09844 2.03189 1.8839 1.7129 1.69234 1.50487 1.43069 1.38472 
1.43462 1.43462 1.80628 1.89391 1.90024 1.92706 1.89706 1.89706 1.83348 
1.87418 2.04285 2.02436 2.27357 2.75212 2.84117 2.78359 2.89062 2.70651 
3.01421 2.80498 2.92242 2.81283 2.64356 2.70884 2.61509 2.65688 2.87839 
3.05463 2.86224 2.99307 3.25402 3.42887 3.26181 3.36247 3.26544 2.99073 
2.96573 2.74436 3.03266 2.91264 4.00757 1.83041 1.55046 1.70377 1.78162 
2.10497 2.32523 2.48365 2.41589 2.48071 2.3654 2.37608 2.4332 2.61342 
2.78308 2.83749 2.85884 3.361 3.45905 3.34156 2.92244 2.87725 2.78014 
1.98066 1.76321 1.81301 2.07398 2.6165 3.21912 3.51943 3.09539 3.19825 
3.06575 2.73749 2.56743 2.36515 2.63232 2.05674 3.55868 2.4838 2.32061 
2.5923 2.82469 2.47092 2.36489 2.39418 2.37088 2.3393 2.0628 3.38762 
3.24809 2.61728 2.34813 2.01406 1.87477 1.98923 2.20011 2.20011 2.34088 
2.39906 2.41611 2.33328 2.29506 2.39715 2.5226 2.35985 2.24266 2.08743 
1.86872 1.98396 2.0288 2.18175 2.31623 2.62346 2.58245 2.65105 2.4854 
2.15161 1.94176 1.59793 1.49178 1.36756 1.55401 1.60879 1.48895 1.57623 
1.74505 1.80207 1.61788 1.65361 1.49995 2.60061 2.33971 2.06952 2.1572 
2.31134 2.37288 2.81463 2.76185 2.37708 2.37957 2.53531 2.78986 2.63235 
2.60119 2.54786 2.40614 2.46254 2.65176 2.77524 2.76632 2.5764 2.58465 
2.58465 2.23829 1.98811 1.97716 2.19708 2.37143 2.57283 3.10957 3.17628 
2.14332 2.57262 2.46103 2.40298 2.05649 1.99629 1.89106 1.87334 2.05838 
2.09837 2.3819 2.564 2.88991 2.9573 3.02601 3.02484 2.99833 3.0676 
3.0676 2.97065 3.04382 3.03429 3.14614 3.18165 3.17446 2.87785 2.9427 
2.63696 2.40025 2.23122 2.11947 1.98645 1.94493 1.82343 1.80088 1.72585 
1.77136 1.70739 1.6687 1.51784 1.48515 1.44128 1.39331 1.39331 1.33371 
1.25271 1.25271 1.2011 1.28228 1.36262 1.5039 1.41102 1.6236 1.94976 
2.53124 2.7007 2.68272 2.57096 2.51849 2.45233 2.43776 2.44954 2.44954 
2.39229 2.11716 2.03192 2.03192 2.052 2.01977 1.99276 1.94986 1.83901 
1.83394 1.66127 1.55372 1.66102 1.7285 1.69347 1.15531 1.15531 1.16279 
1.31157 1.31157 1.56902 1.71305 1.89096 1.77174 1.7239 1.66564 1.66564 
1.72889 1.64654 1.64654 1.67984 1.65795 1.73714 1.82428 1.85446 1.86328 
1.90987 1.88975 1.78801 2.16891 1.78757 1.42717 1.5062 1.52024 1.51388 
1.39282 1.48562 1.41109 1.30107 1.30107 1.36878 1.49191 1.54125 1.60256 
1.60327 
rRFP 1 379 double
6980.51 6870.14 5995.27 7923.91 6751.31 4865.59 6794.96 6134.74 7223.59 
5741.02 10620.9 9416.58 8994.31 7417.99 9311.31 8835.32 8622.78 8034.36 
8908.93 9033.17 9301.47 9603.9 12101.5 8979.7 8926.22 8531.06 6631.28 
11288.9 10676.9 8420.49 10412.7 8912.54 7171.15 12833.9 10429 6456.78 
6887.83 6377.15 10413 12883.5 12172.2 6505.11 6206.09 6031.7 5847.06 
5337.1 6627.95 6497.02 7535.22 7494.37 7494.37 8259.6 8505.69 8632.35 
8879 8777.25 9404.88 10391.1 10763.5 6738.6 6979.31 7191.37 7282.35 
7124.59 7881.07 7498.47 10035.8 9448.7 8467.16 8561.27 8264.48 7843.88 
8625.31 10215.7 10074 9906.38 10158.6 10485.7 10860.5 10723.2 10463.5 
10191 8781.27 9187.84 6805.25 6636.38 6508.48 6698.2 7453.63 7453.63 
7574.33 7770.48 7594.49 7203.12 6750.91 6696.52 6200.75 6004.58 5883.02 
6014.96 6014.96 6997.85 7229.6 7246.33 7317.25 7237.93 7237.93 7069.77 
7177.41 7623.47 7574.57 8233.63 9499.2 9734.68 9582.42 9865.46 9378.56 
10192.3 9638.98 9949.56 9659.73 9212.09 9384.74 9136.8 9247.32 9833.11 
10299.2 9790.41 10136.4 10826.5 11288.9 10847.1 11113.3 10856.7 10130.2 
10064.1 9478.67 10241.1 9923.7 12819.3 7061.67 6321.32 6726.75 6932.63 
7787.75 8370.26 8789.2 8610 8781.43 8476.49 8504.73 8655.79 9132.38 
9581.06 9724.95 9781.41 11109.4 11368.7 11058 9949.6 9830.09 9573.3 
7459.02 6883.94 7015.65 7705.8 9140.53 10734.2 11528.4 10407 10679 
10328.6 9460.49 9010.75 8475.81 9182.38 7660.22 11632.2 8789.6 8358.02 
9076.52 9691.1 8755.54 8475.12 8552.6 8490.98 8407.47 7676.23 11179.8 
10810.8 9142.6 8430.8 7547.33 7178.98 7481.67 8039.36 8039.36 8411.64 
8565.49 8610.58 8391.54 8290.47 8560.44 8892.2 8461.8 8151.88 7741.38 
7162.99 7467.73 7586.33 7990.8 8346.44 9158.93 9050.48 9231.91 8793.83 
7911.09 7356.14 6446.85 6166.14 5837.62 6330.7 6475.57 6158.65 6389.48 
6835.93 6986.72 6499.62 6594.11 6187.73 9098.52 8408.53 7694.01 7925.89 
8333.51 8496.26 9664.49 9524.93 8507.38 8513.95 8925.83 9598.98 9182.46 
9100.05 8959 8584.23 8733.38 9233.79 9560.32 9536.73 9034.48 9056.3 
9056.3 8140.33 7478.72 7449.75 8031.35 8492.44 9025.04 10444.5 10620.9 
7889.17 9024.49 8729.37 8575.85 7659.54 7500.35 7222.07 7175.19 7664.54 
7770.3 8520.11 9001.7 9863.59 10041.8 10223.5 10220.4 10150.3 10333.5 
10333.5 10077.1 10270.6 10245.4 10541.2 10635.1 10616.1 9831.69 10003.2 
9194.64 8568.64 8121.64 7826.11 7474.32 7364.53 7043.2 6983.57 6785.14 
6905.49 6736.33 6634.01 6235.04 6148.6 6032.58 5905.72 5905.72 5748.1 
5533.91 5533.91 5397.4 5612.11 5824.57 6198.19 5952.57 6514.74 7377.28 
8915.06 9363.21 9315.65 9020.1 8881.33 8706.37 8667.83 8698.99 8698.99 
8547.58 7820 7594.57 7594.57 7647.67 7562.43 7491.02 7377.57 7084.42 
7071.01 6614.36 6329.94 6613.69 6792.15 6699.51 5276.32 5276.32 5296.09 
5689.57 5689.57 6370.4 6751.31 7221.79 6906.52 6780 6625.91 6625.91 
6793.19 6575.4 6575.4 6663.48 6605.59 6815 7045.44 7125.26 7148.6 
7271.79 7218.6 6949.54 7956.86 6948.37 5995.27 6204.26 6241.41 6224.58 
5904.44 6149.84 5952.75 5661.79 5661.79 5840.84 6166.48 6296.96 6459.09 
6460.98 
rGFP 1 379 double
3219.78 3183.36 2940.73 3042.72 3108.88 2971.07 3322.09 3078 3264.47 
3408.49 4183.54 3695.4 3487.52 3487.59 3202.99 3536.88 3512.88 3491.1 
3794.83 3483.81 3155.04 3452.49 3730.74 3515.99 3282.58 3480.17 2788.68 
4068.01 3723.38 3471.84 3593.14 3155.93 3207.96 4159.95 3520.07 3008.16 
3864.81 3091.58 3416.23 3701.36 3668.6 3116.75 3115.69 3123.32 3184.99 
3208.86 3233.6 3267.63 3226.04 3900.3 3900.3 3858.74 3809.4 3816.63 
3815.98 3913.07 4041.4 4171.28 4124.41 2996.23 3026.28 3104.11 3128.52 
3184.88 3204.56 3254.05 3520.06 3451.74 3386.28 3436.06 3452.9 3381.4 
3475.68 3603.64 3662.98 3632.31 3530.1 3545.53 3621.04 3594.58 3716.57 
3652.26 3359.41 3270.07 3146.32 3160.52 3086.14 3077.94 3178.8 3178.8 
3110.33 3125.48 3077.9 3103.46 3049.05 3162.46 3069.46 3071.28 3187.27 
3243.3 3243.3 3211.78 3225.06 3316.78 3378.28 3307.41 3307.41 3331.46 
3184.78 3220.22 3276.65 3236.38 3248.59 3287.86 3413.17 3649.12 3600.27 
3696.49 3674.89 3738.49 3863.17 3899.73 3908.69 3874.41 3982.72 3973.57 
3839.6 3946.98 3874.16 3744.17 3850.51 3762.44 3895.98 3620.96 3744.12 
3554.51 3702.6 3711.69 3703.62 4209.49 3244.59 3155.14 3156.1 3184.31 
3199.19 3306.57 3430.21 3327.78 3470.42 3167.15 3258.9 3348.86 3307.91 
3306.04 3204.54 3321.12 3673.44 3787.2 3752.49 3788.41 3837.48 3772.17 
3540.91 3529.59 3453.43 3548.93 3647.63 3639.17 4176.56 3847.15 4003.02 
3798.75 3933.57 3727.86 3757.16 3738.11 2953.21 3754.15 3309.81 3166.14 
3262.36 3379.51 3481.19 3434.12 3406.73 3257.02 3307.42 3393.35 3848.44 
3712.59 3762.93 3662.07 3491.84 3490.37 3447.06 3421.86 3421.86 3422.33 
3432.17 3415.8 3404.68 3456.3 3517.47 3481.81 3384.81 3389.22 3351.53 
3270.19 3283.62 3236.57 3292.27 3224.63 3159.32 3209.65 3194.38 3193.91 
3353.25 3342.96 3196.21 3125.01 3112.26 3020.58 3044.32 3131.31 3134.99 
3170.72 3170.84 3254.06 3209.94 3167.72 3191.42 3341.89 3432.3 3412.64 
3577.59 3597.17 3499.88 3538.75 3469.33 3461.21 3412.63 3458.25 3552.74 
3584.83 3569.53 3454.72 3475.74 3551.86 3762.05 3832.47 3907 3830.32 
3830.32 3855.67 3768.3 3767.77 3806 3938.32 3896.14 4091.89 4183.54 
3471.79 3280.31 3490.89 3501.01 3431.68 3449.88 3419.11 3332.99 3340.85 
3353.95 3394.2 3567.74 3807.91 3891.52 3919.35 3972.64 3968.8 3805.06 
3805.06 3798.51 3892.43 3951.49 4007.11 4068.23 4171.16 4167.32 4003.94 
3889.84 3714.7 3596.56 3465.69 3349.41 3410.89 3329.14 3192.35 3259.56 
3198.46 3244.91 3277.06 3269.47 3272.06 3232.05 3102.64 3102.64 3124.52 
3071.72 3071.72 3006.88 3064.68 3156.09 3197.62 3113.23 3498.38 3635.86 
3695.42 3648.83 3473.73 3514.78 3285.86 3358.21 3267.22 3177.73 3177.73 
3117.37 3071.17 3057.84 3057.84 3108.65 3151.01 3197.07 3156.9 3112.17 
3111.56 3073.68 3088.07 3116.21 3180.04 3288.36 3117.93 3117.93 3122.67 
3081.14 3081.14 3098.58 3108.88 3079.46 3063.46 3115.54 3116.74 3116.74 
3136.65 3108.67 3108.67 3101.54 3074.26 3083 3150.95 3217.27 3015.8 
3040.37 3064.19 3123.41 3094.37 3032.4 2940.73 3151.9 3245.75 3225.28 
3188.81 3261.09 3236.49 3197.41 3197.41 3173.65 3191.1 3246.57 3285.12 
3248.86 
bkstRFP 1 379 double
4759.49 4649.12 3774.25 5702.89 4530.29 2644.57 4573.94 3913.72 5002.57 
3520 8399.88 7195.56 6773.29 5196.97 7090.29 6614.3 6401.76 5813.34 
6687.91 6812.15 7080.45 7382.88 9880.48 6758.68 6705.2 6310.04 4410.26 
9067.88 8455.88 6199.47 8191.68 6691.52 4950.13 10612.9 8207.98 4235.76 
4666.81 4156.13 8191.98 10662.5 9951.18 4284.09 3985.07 3810.68 3626.04 
3116.08 4406.93 4276 5314.2 5273.35 5273.35 6038.58 6284.67 6411.33 
6657.98 6556.23 7183.86 8170.08 8542.48 4517.58 4758.29 4970.35 5061.33 
4903.57 5660.05 5277.45 7814.78 7227.68 6246.14 6340.25 6043.46 5622.86 
6404.29 7994.68 7852.98 7685.36 7937.58 8264.68 8639.48 8502.18 8242.48 
7969.98 6560.25 6966.82 4584.23 4415.36 4287.46 4477.18 5232.61 5232.61 
5353.31 5549.46 5373.47 4982.1 4529.89 4475.5 3979.73 3783.56 3662 
3793.94 3793.94 4776.83 5008.58 5025.31 5096.23 5016.91 5016.91 4848.75 
4956.39 5402.45 5353.55 6012.61 7278.18 7513.66 7361.4 7644.44 7157.54 
7971.28 7417.96 7728.54 7438.71 6991.07 7163.72 6915.78 7026.3 7612.09 
8078.18 7569.39 7915.38 8605.48 9067.88 8626.08 8892.28 8635.68 7909.18 
7843.08 7257.65 8020.08 7702.68 10598.3 4840.65 4100.3 4505.73 4711.61 
5566.73 6149.24 6568.18 6388.98 6560.41 6255.47 6283.71 6434.77 6911.36 
7360.04 7503.93 7560.39 8888.38 9147.68 8836.98 7728.58 7609.07 7352.28 
5238 4662.92 4794.63 5484.78 6919.51 8513.18 9307.38 8185.98 8457.98 
8107.58 7239.47 6789.73 6254.79 6961.36 5439.2 9411.18 6568.58 6137 
6855.5 7470.08 6534.52 6254.1 6331.58 6269.96 6186.45 5455.21 8958.78 
8589.78 6921.58 6209.78 5326.31 4957.96 5260.65 5818.34 5818.34 6190.62 
6344.47 6389.56 6170.52 6069.45 6339.42 6671.18 6240.78 5930.86 5520.36 
4941.97 5246.71 5365.31 5769.78 6125.42 6937.91 6829.46 7010.89 6572.81 
5690.07 5135.12 4225.83 3945.12 3616.6 4109.68 4254.55 3937.63 4168.46 
4614.91 4765.7 4278.6 4373.09 3966.71 6877.5 6187.51 5472.99 5704.87 
6112.49 6275.24 7443.47 7303.91 6286.36 6292.93 6704.81 7377.96 6961.44 
6879.03 6737.98 6363.21 6512.36 7012.77 7339.3 7315.71 6813.46 6835.28 
6835.28 5919.31 5257.7 5228.73 5810.33 6271.42 6804.02 8223.48 8399.88 
5668.15 6803.47 6508.35 6354.83 5438.52 5279.33 5001.05 4954.17 5443.52 
5549.28 6299.09 6780.68 7642.57 7820.78 8002.48 7999.38 7929.28 8112.48 
8112.48 7856.08 8049.58 8024.38 8320.18 8414.08 8395.08 7610.67 7782.18 