# vtk DataFile Version 3.0
vtk output
ASCII
DATASET POLYDATA
POINTS 407 float
1.36309 -0.610039 0.590845 0.852263 -0.563291 0.512787 1.89682 -0.446168 0.567706 
2.2171 -0.303881 0.727063 0.152349 -0.345358 0.263285 2.4763 -0.261971 0.567333 
-0.584041 0.184789 0.206957 -0.0277599 -0.46237 -0.333262 -0.478915 0.103519 -0.064647 
-0.291557 -0.26964 -0.506659 -0.498314 0.05816 -0.339505 3.03901 0.260938 0.298225 
0.351228 -0.56228 -0.96149 -0.174272 -0.454982 -0.842653 -0.703314 0.0819604 -1.01176 
-0.849532 0.576454 -0.805053 -0.170719 1.1517 -0.291214 -0.709299 1.13634 -0.656673 
-0.884248 1.49156 -0.223581 -0.596707 0.250117 -1.68621 -0.413285 0.252199 -1.96813 
6.75454 0.64446 -0.341522 6.20729 1.39298 0.00637825 2.56415 -0.0432731 -1.93056 
0.246299 0.0217586 -2.37938 6.5384 1.01636 -0.810035 7.2199 0.874807 -1.07894 
-0.323497 1.99357 -2.1975 -0.295931 1.94771 -2.21222 -0.272565 1.89325 -2.21549 
-0.262927 1.82258 -2.20524 -0.276884 1.73469 -2.19318 -0.293745 1.64213 -2.17577 
-0.299534 1.5545 -2.15286 -0.315188 1.46585 -2.14164 -0.329544 1.38115 -2.13655 
-0.331577 1.30541 -2.13204 -0.349862 1.21751 -2.12089 -0.384314 1.12564 -2.09783 
-0.430856 1.03674 -2.05753 -0.466914 0.944154 -2.03526 -0.495023 0.851896 -2.029 
-0.519361 0.762871 -2.02881 -0.540432 0.661711 -1.99995 -0.555085 0.543182 -1.92722 
-0.580288 0.399752 -1.81906 7.18669 0.859637 -1.13152 7.16405 0.840815 -1.2021 
7.14123 0.833908 -1.28295 7.12249 0.826929 -1.37193 7.09577 0.831492 -1.45518 
7.06894 0.836209 -1.53834 7.0482 0.832301 -1.62577 7.01595 0.8537 -1.70829 
6.9751 0.914908 -1.78492 6.94361 1.00405 -1.86842 6.90005 1.08988 -1.95664 
6.85285 1.16071 -2.01947 6.81496 1.20535 -2.01665 6.77651 1.22279 -1.95989 
6.73309 1.22117 -1.87171 6.68834 1.21896 -1.78418 6.63687 1.21377 -1.7 
6.58014 1.19951 -1.60489 6.55169 1.17976 -1.45958 6.53545 1.14394 -1.26837 
6.52696 1.08799 -1.0467 6.60656 0.916019 -0.693166 6.66455 0.821102 -0.580925 
6.71634 0.724899 -0.464856 6.49021 1.03289 -0.696284 6.44626 1.03686 -0.595668 
6.41452 1.04628 -0.509833 6.39943 1.07192 -0.436889 6.37649 1.10636 -0.392745 
6.34784 1.145 -0.364999 6.31898 1.18691 -0.34414 6.29002 1.22878 -0.323327 
6.26116 1.2707 -0.302469 6.2326 1.30942 -0.274649 6.21028 1.34144 -0.222983 
6.20518 1.36819 -0.126337 0.21725 0.0635902 -2.35862 0.186596 0.104709 -2.33865 
0.147407 0.145407 -2.32971 0.0898162 0.184666 -2.34347 0.0345975 0.235086 -2.3764 
-0.00680012 0.295022 -2.40923 -0.0537992 0.349093 -2.43806 -0.100175 0.389969 -2.43948 
-0.159679 0.405952 -2.40898 -0.225936 0.389255 -2.32043 -0.315247 0.331416 -2.17077 
2.51839 -0.0636001 -1.95333 2.47264 -0.0839268 -1.97609 2.42694 -0.104337 -1.9989 
2.3809 -0.130081 -2.01626 2.33753 -0.17132 -2.02514 2.29824 -0.235931 -2.02135 
2.24967 -0.292968 -2.0057 2.19585 -0.342386 -1.98626 2.1423 -0.386388 -1.97224 
2.08638 -0.432784 -1.9513 2.02295 -0.474128 -1.91976 1.94492 -0.500205 -1.87253 
1.86588 -0.524812 -1.82457 1.79518 -0.555489 -1.7877 1.72056 -0.565979 -1.75657 
1.65159 -0.557282 -1.72979 1.59435 -0.54156 -1.696 1.52338 -0.538567 -1.65542 
1.45111 -0.539526 -1.6087 1.39122 -0.53161 -1.56261 1.32262 -0.517456 -1.54118 
1.24982 -0.498431 -1.5354 1.18512 -0.472435 -1.53237 1.13169 -0.444916 -1.51703 
1.06401 -0.432272 -1.49638 0.988095 -0.44671 -1.45912 0.914743 -0.485198 -1.40993 
0.830734 -0.520084 -1.34281 0.742847 -0.543379 -1.27798 0.656816 -0.560664 -1.21785 
0.579898 -0.571478 -1.15758 0.515439 -0.575468 -1.0903 0.437945 -0.576289 -1.02671 
6.12359 1.44652 -0.00373045 6.06958 1.49993 -0.0165814 6.01862 1.54686 -0.0329605 
5.97446 1.5989 -0.0535618 5.91504 1.64072 -0.075021 5.84874 1.67948 -0.0999075 
5.78672 1.7134 -0.109096 5.73882 1.7536 -0.11127 5.68945 1.79651 -0.120948 
5.65658 1.85686 -0.142753 5.62354 1.9204 -0.171499 5.56916 1.96927 -0.205238 
5.50632 1.99432 -0.229258 5.44725 1.99925 -0.247543 5.37887 2.01164 -0.254048 
5.30625 2.03016 -0.257503 5.23894 2.04099 -0.264779 5.18584 2.03129 -0.282262 
5.13907 2.01244 -0.304297 5.09427 1.99072 -0.327751 5.05479 1.96132 -0.355027 
5.02329 1.92038 -0.38804 4.98381 1.89098 -0.415316 4.93907 1.86918 -0.438811 
4.89338 1.84877 -0.461618 4.84762 1.82844 -0.484383 4.80186 1.80812 -0.507149 
4.75617 1.78771 -0.529955 4.71143 1.76591 -0.553451 4.67195 1.73651 -0.580727 
4.64045 1.69557 -0.613736 4.60097 1.66616 -0.641016 4.55623 1.64437 -0.664511 
4.51053 1.62396 -0.687318 4.46472 1.60371 -0.710042 4.41795 1.58486 -0.732077 
4.36461 1.56966 -0.744193 4.30066 1.55819 -0.738279 4.23982 1.52474 -0.719006 
4.17762 1.48741 -0.693552 4.10749 1.46175 -0.662286 4.04201 1.43821 -0.637616 
3.97616 1.42813 -0.595415 3.92872 1.43966 -0.544354 3.89262 1.46814 -0.506829 
3.85755 1.51741 -0.509393 3.81387 1.57295 -0.536586 3.78277 1.63409 -0.557505 
3.7561 1.68709 -0.555887 3.72835 1.73287 -0.541255 3.6994 1.77474 -0.520442 
3.67044 1.81661 -0.499629 3.64148 1.85849 -0.478816 3.61253 1.90036 -0.458003 
3.58357 1.94223 -0.43719 3.55461 1.9841 -0.416377 3.52566 2.02598 -0.395565 
3.4967 2.06785 -0.374752 3.46774 2.10972 -0.353939 3.43878 2.15159 -0.333126 
3.40853 2.18952 -0.306178 3.37558 2.21951 -0.267014 3.33723 2.237 -0.210206 
3.28935 2.24687 -0.151349 3.2317 2.25578 -0.104145 3.19885 2.28582 -0.0649349 
3.18942 2.33299 -0.0276267 3.16868 2.37852 -0.00272436 3.13132 2.41666 0.0139082 
3.07824 2.44781 0.0227174 3.02653 2.47621 0.0389905 2.95954 2.49108 0.0612171 
2.88857 2.49407 0.101795 2.82738 2.49803 0.15403 2.75479 2.50031 0.193805 
2.67788 2.51077 0.211093 2.60357 2.52913 0.21612 2.53877 2.55508 0.219102 
2.48659 2.58663 0.228358 2.42179 2.61258 0.23134 2.34878 2.63488 0.230232 
2.27576 2.65718 0.229124 2.21106 2.68317 0.232151 2.16048 2.71544 0.242206 
2.1056 2.7458 0.250122 2.0551 2.7781 0.260218 1.99201 2.80481 0.264048 
1.92883 2.83148 0.267833 1.87681 2.86311 0.277172 1.81363 2.88977 0.280956 
1.75053 2.91648 0.284782 1.70005 2.94879 0.294883 1.64652 2.98301 0.296622 
1.60085 3.02564 0.28755 1.55027 3.06615 0.249231 1.50153 3.09395 0.194163 
1.44731 3.12098 0.1464 1.39278 3.13081 0.114343 1.33203 3.13798 0.0971505 
1.27367 3.13589 0.0834484 1.21258 3.13773 0.0717025 1.15947 3.12803 0.0542199 
1.10637 3.11833 0.0367375 1.04664 3.12404 0.0188148 0.991885 3.12837 -0.00787916 
0.939957 3.13443 -0.0418059 0.896179 3.11707 -0.0711945 0.834873 3.11341 -0.0775809 
0.771987 3.10038 -0.0724358 0.731723 3.06047 -0.088752 0.697226 3.01804 -0.114408 
0.673978 2.96517 -0.15335 0.655147 2.90591 -0.195468 0.630659 2.849 -0.228317 
0.594692 2.79705 -0.24252 0.557495 2.72941 -0.240242 0.51526 2.66322 -0.229133 
0.476989 2.59714 -0.226083 0.433673 2.55581 -0.235004 0.387693 2.52998 -0.252406 
0.343011 2.50811 -0.275944 0.30359 2.47862 -0.303261 0.273108 2.43621 -0.337004 
0.239962 2.39765 -0.368833 0.210496 2.35376 -0.403306 0.176051 2.31126 -0.428999 
0.143032 2.26087 -0.450523 0.10079 2.21799 -0.460215 0.06075 2.17775 -0.476686 
0.0330426 2.11968 -0.502027 0.00494054 2.05635 -0.521876 -0.0337323 1.99667 -0.523738 
-0.0705953 1.93437 -0.526894 -0.112895 1.89158 -0.536545 -0.1526 1.85667 -0.558458 
-0.183024 1.81418 -0.592243 -0.216228 1.7757 -0.62403 -0.24671 1.73329 -0.657773 
-0.286131 1.7038 -0.68509 -0.330871 1.68201 -0.708586 -0.37651 1.66151 -0.731434 
-0.42125 1.63971 -0.75493 -0.460671 1.61023 -0.782248 -0.493834 1.55972 -0.80388 
-0.539137 1.48572 -0.789511 -0.604521 1.34537 -0.732607 6.28012 1.28355 0.148207 
6.33135 1.18969 0.250761 6.36205 1.11422 0.29816 6.39751 1.06172 0.307675 
6.44786 1.02598 0.304289 6.48965 0.993179 0.283078 6.53403 0.968266 0.249604 
6.5933 0.960073 0.203203 6.63965 0.94952 0.143588 6.66809 0.92763 0.081847 
6.67842 0.887591 0.0314328 6.69715 0.844543 -0.00125206 6.71319 0.793564 -0.021708 
6.71533 0.733039 -0.0423124 6.72179 0.674382 -0.0607874 6.72918 0.632344 -0.113122 
6.74998 0.619633 -0.206363 -0.489678 0.267424 -1.891 -0.546767 0.265561 -1.79692 
-0.404274 0.0863322 -1.80156 -0.392525 -0.0586577 -1.6508 -0.357229 -0.168344 -1.52304 
-0.311698 -0.245956 -1.4172 -0.267983 -0.292735 -1.33069 -0.22124 -0.337893 -1.25144 
-0.187101 -0.376469 -1.15273 -0.170991 -0.418102 -1.01506 -0.649351 0.185592 -1.48239 
-0.68162 0.129509 -1.2569 -0.574697 1.12172 -0.592851 -0.490763 1.11877 -0.559093 
-0.418241 1.11265 -0.556629 -0.347809 1.11509 -0.566984 -0.292161 1.13276 -0.561726 
-0.245384 1.15161 -0.539695 -0.205843 1.15762 -0.491664 -0.179068 1.15299 -0.408463 
-0.78209 1.03264 -0.73881 -0.817208 0.956388 -0.795307 -0.826935 0.896464 -0.835924 
-0.821054 0.840919 -0.861469 -0.823212 0.771746 -0.870648 -0.827477 0.684793 -0.846987 
-0.917924 1.37805 -0.187429 -0.946464 1.28043 -0.175775 -0.969471 1.20391 -0.194091 
-0.993753 1.14688 -0.226978 -1.02181 1.11 -0.265599 -1.02938 1.07387 -0.317285 
-1.00367 1.056 -0.385965 -0.956476 1.05824 -0.47295 -0.869376 1.08486 -0.571587 
-0.847663 0.566352 -0.927471 -0.841248 0.544787 -1.0205 -0.820325 0.512823 -1.07243 
-0.80299 0.465787 -1.09902 -0.800539 0.402032 -1.11269 -0.78965 0.330725 -1.09961 
-0.771844 0.254466 -1.07035 -0.745947 0.171712 -1.03759 -0.805078 0.46734 -0.669024 
-0.762353 0.374302 -0.567744 -0.723234 0.303252 -0.515717 -0.666489 0.256835 -0.488833 
-0.608875 0.210168 -0.461927 -0.562278 0.141223 -0.415912 -0.657217 0.0165083 -0.850269 
-0.622116 -0.0264069 -0.7273 -0.587472 -0.0441629 -0.644911 -0.552674 -0.0524658 -0.574295 
-0.523513 -0.0478438 -0.502511 -0.508169 -0.0112132 -0.422017 0.266193 -0.517791 -0.989636 
0.199016 -0.478192 -1.00522 0.147631 -0.441113 -1.00417 0.0819228 -0.417774 -0.997093 
0.00362266 -0.4113 -0.973715 -0.0826813 -0.425225 -0.920431 -0.164456 -0.409362 -0.775434 
-0.167059 -0.375997 -0.70084 -0.193492 -0.356592 -0.631312 -0.228541 -0.337641 -0.572862 
-0.261301 -0.307565 -0.533607 0.329684 -0.607515 -0.720788 0.287561 -0.64439 -0.547656 
0.243025 -0.651438 -0.4483 0.198221 -0.63229 -0.403709 0.146653 -0.600463 -0.394147 
0.108762 -0.555823 -0.391332 0.0708707 -0.511178 -0.388527 0.0179204 -0.483335 -0.37287 
3.01583 0.184674 0.280033 2.98287 0.110897 0.279262 2.92905 0.0614735 0.298703 
2.86001 0.0340496 0.329068 2.79397 0.00812181 0.35208 2.72385 -0.0177414 0.383221 
2.66137 -0.0604791 0.414071 2.60162 -0.118802 0.45337 2.54023 -0.186399 0.504241 
-0.484863 0.0846695 -0.194348 -0.422869 0.0298767 0.0161457 -0.37137 -0.0323034 0.0675512 
-0.334287 -0.0840441 0.0778969 -0.293401 -0.123988 0.0698002 -0.231825 -0.151369 0.065217 
-0.168734 -0.178078 0.0613869 -0.116691 -0.209585 0.0521307 -0.0542672 -0.237931 0.0560562 
0.00764798 -0.261475 0.0808515 0.0539522 -0.277052 0.134306 0.097693 -0.3004 0.200118 
-0.492314 0.108499 0.0520344 -0.521423 0.119982 0.133774 -0.553877 0.146824 0.179964 
2.47502 -0.276732 0.450201 2.46494 -0.313703 0.370602 2.43813 -0.373081 0.34461 
2.39086 -0.426162 0.354135 2.3298 -0.46512 0.378768 2.25572 -0.479431 0.407554 
2.17928 -0.496143 0.443244 2.10988 -0.522876 0.473988 2.03535 -0.533327 0.505163 
1.96937 -0.519928 0.526655 1.92756 -0.487246 0.547783 2.3899 -0.275943 0.620579 
2.3035 -0.289909 0.673817 0.919678 -0.574285 0.519984 0.980028 -0.575062 0.53226 
1.04744 -0.586055 0.539457 1.11481 -0.596973 0.546692 1.17419 -0.596349 0.559664 
1.23635 -0.599745 0.570638 1.29573 -0.599121 0.58361 
LINES 26 458
20 27 28 29 30 31 32 33 34 35 36 37 38 39 40 41 42 43 44 45 19 
23 26 46 47 48 49 50 51 52 53 54 55 56 57 58 59 60 61 62 63 64 65 66 25 
14 25 70 71 72 73 74 75 76 77 78 79 80 81 22 
13 24 82 83 84 85 86 87 88 89 90 91 92 20 
35 23 93 94 95 96 97 98 99 100 101 102 103 104 105 106 107 108 109 110 111 112 113 114 115 116 117 118 119 120 121 122 123 124 125 12 
148 22 126 127 128 129 130 131 132 133 134 135 136 137 138 139 140 141 142 143 144 145 146 147 148 149 150 151 152 153 154 155 156 157 158 159 160 161 162 163 164 165 166 167 168 169 170 171 172 173 174 175 176 177 178 179 180 181 182 183 184 185 186 187 188 189 190 191 192 193 194 195 196 197 198 199 200 201 202 203 204 205 206 207 208 209 210 211 212 213 214 215 216 217 218 219 220 221 222 223 224 225 226 227 228 229 230 231 232 233 234 235 236 237 238 239 240 241 242 243 244 245 246 247 248 249 250 251 252 253 254 255 256 257 258 259 260 261 262 263 264 265 266 267 268 269 270 271 17 
4 20 289 290 19 
10 20 291 292 293 294 295 296 297 298 13 
4 19 299 300 14 
10 17 301 302 303 304 305 306 307 308 16 
8 17 309 310 311 312 313 314 15 
11 18 315 316 317 318 319 320 321 322 323 17 
10 15 324 325 326 327 328 329 330 331 14 
8 15 332 333 334 335 336 337 10 
8 14 338 339 340 341 342 343 10 
8 12 344 345 346 347 348 349 13 
7 13 350 351 352 353 354 9 
10 12 355 356 357 358 359 360 361 362 7 
11 11 363 364 365 366 367 368 369 370 371 5 
3 10 372 8 
13 8 373 374 375 376 377 378 379 380 381 382 383 4 
5 8 384 385 386 6 
13 5 387 388 389 390 391 392 393 394 395 396 397 2 
4 5 398 399 3 
9 1 400 401 402 403 404 405 406 0 
23 25 67 68 69 21 288 287 286 285 284 283 282 281 280 279 278 277 276 275 274 273 272 22 

POINT_DATA 407
SCALARS DY_raw double
LOOKUP_TABLE default
220.339 209.214 194.65 187.66 249.281 200.95 182.483 248.96 210.85 
342.749 221.482 134.699 311.163 373.937 248.537 242.607 239.263 222.045 
113.219 237.444 213.067 257.749 143.099 191.947 435.766 173.207 218.034 
186.58 184.485 179.027 190.479 206.887 231.47 242.978 239.498 225.359 
231.798 221.239 196.235 198.243 183.847 186.726 200.916 197.68 190.072 
203.515 205.466 186.42 214.4 213.479 201.739 230.347 250.434 260.725 
217.547 221.374 217.941 179.748 145.13 157.381 161.722 157.548 171.028 
142.895 145.171 159.396 175.551 187.857 209.191 239.344 182.982 184.438 
193.183 215.713 227.482 227.482 197.441 193.068 193.068 171.593 158.823 
142.228 499.803 408.23 298.27 346.204 227.818 212.288 200.14 183.466 
166.277 186.715 189.15 183.085 183.085 207.87 219.073 219.073 234.762 
230.033 250.357 231.776 237.069 266.005 232.845 244.833 220.57 210.285 
188.677 197.482 214.465 211.466 226.615 243.683 210.444 217.341 198.65 
189.92 193.954 198.723 201.004 208.185 235.993 210.571 245.559 252.066 
155.291 158.409 149.53 168.006 196.155 196.155 281.184 314.686 327.802 
321.108 289.94 268.249 270.907 232.639 215.56 230.69 203.427 219.125 
230.279 230.279 230.362 244.357 239.277 239.277 241.897 265.101 252.078 
303.682 257.859 230.485 230.485 220.302 237.877 274.854 272.661 272.661 
261.923 200.356 179.628 172.568 186.128 182.24 185.598 175.593 182.587 
182.587 198.374 189.398 225.501 256.957 256.957 281.778 279.901 279.901 
254.016 225.326 225.326 185.051 185.051 164.293 175.179 175.179 217.035 
267.323 301.548 250.186 235.272 235.272 202.879 183.066 213.492 233.627 
233.627 267.903 318.709 422.801 344.443 279.819 318.211 322.28 264.472 
279.313 327.03 316.926 241.982 253.172 307.189 303.533 336.135 336.135 
365.759 329.625 329.625 300.424 247.469 205.926 205.926 181.714 214.887 
198.958 225.364 239.459 214.487 198.697 185.47 173.499 159.523 159.523 
171.223 195.939 194.495 228.716 232.425 236.964 254.373 254.373 292.811 
273.024 305.758 276.432 250.995 250.995 233.753 208.827 208.827 195.132 
190.229 209.326 189.486 190.956 190.956 204.596 221.137 209.417 219.345 
219.345 206.815 181.119 181.119 171.401 172.475 152.848 152.848 139.98 
149.03 168.997 168.847 200.006 268.075 252.248 252.248 264.491 253.107 
231.645 222.212 199.615 199.615 239.719 233.127 233.127 276.226 266.32 
280.383 188.015 183.89 240.432 216.081 214.515 209.814 230.385 180.716 
187.014 284.553 221.1 237.404 246.023 278.005 237.379 200.675 200.675 
192.057 195.27 205.236 206.674 212.434 216.095 226.615 226.615 236.863 
127.363 167.617 203.722 245.45 249.558 234.217 220.055 215.757 208.207 
228.594 193.738 188.524 208.314 214.331 222.529 227.643 233.111 261.356 
247.409 209.952 190.486 195.41 197.631 241.961 239.815 241.754 256.432 
272.916 267.552 306.256 307.976 291.357 243.436 252.111 293.11 360.004 
347.525 328.164 341.972 346.251 304.488 304.724 289.198 261.257 255.428 
247.799 240.002 238.658 150.619 188.223 205.642 217.366 191.469 191.469 
187.206 171.6 191.433 211.982 206.013 231.589 251.251 251.251 269.263 
257.076 249.074 232.645 204.272 225.704 246.194 190.651 204.31 192.02 
195.262 180.161 177.716 188.855 197.312 198.395 215.474 221.185 213.352 
209.208 194.085 219.782 209.556 228.931 230.581 209.859 209.859 192.367 
191.744 198.314 
FIELD FieldData 7
DY_minmax 1 407 double
0.277093 0.248316 0.210642 0.192562 0.35196 0.226939 0.17917 0.35113 0.252547 
0.593739 0.28005 0.0555634 0.512033 0.674414 0.350036 0.334696 0.326045 0.281506 
0 0.321339 0.258283 0.373865 0.0772925 0.203651 0.834352 0.155175 0.271132 
0.189768 0.184349 0.170229 0.199853 0.242297 0.305888 0.335656 0.326653 0.29008 
0.306735 0.279422 0.214743 0.219937 0.182698 0.190145 0.22685 0.218481 0.1988 
0.233573 0.238622 0.189354 0.261731 0.25935 0.228981 0.302981 0.354943 0.381563 
0.269871 0.279771 0.270891 0.172095 0.0825453 0.114237 0.125466 0.114668 0.149539 
0.0767652 0.0826524 0.119449 0.161239 0.193071 0.248257 0.326256 0.18046 0.184226 
0.206847 0.265128 0.295571 0.295571 0.217861 0.20655 0.20655 0.151 0.117966 
0.0750395 1 0.763124 0.478683 0.602676 0.29644 0.256268 0.224844 0.181712 
0.137249 0.190117 0.196417 0.180726 0.180726 0.244839 0.273818 0.273818 0.314402 
0.302169 0.354744 0.306679 0.320371 0.395221 0.309443 0.340453 0.277692 0.251086 
0.195193 0.217969 0.261898 0.254142 0.293328 0.337478 0.251499 0.26934 0.22099 
0.198406 0.208842 0.221178 0.227078 0.245654 0.317588 0.251828 0.342332 0.359165 
0.108831 0.116894 0.093927 0.141721 0.214536 0.214536 0.434485 0.521148 0.555076 
0.537759 0.457134 0.401024 0.407902 0.30891 0.264731 0.303869 0.233347 0.273954 
0.302806 0.302806 0.303021 0.339223 0.326082 0.326082 0.332859 0.392882 0.359194 
0.492683 0.37415 0.30334 0.30334 0.276998 0.32246 0.418111 0.412439 0.412439 
0.384662 0.225402 0.171784 0.153522 0.188598 0.17854 0.187228 0.161347 0.179439 
0.179439 0.220276 0.197056 0.290447 0.371815 0.371815 0.436022 0.431166 0.431166 
0.364209 0.289993 0.289993 0.185813 0.185813 0.132115 0.160276 0.160276 0.268547 
0.39863 0.487162 0.3543 0.315721 0.315721 0.23193 0.180678 0.259382 0.311466 
0.311466 0.400132 0.531554 0.800815 0.598121 0.430955 0.530266 0.540792 0.391255 
0.429645 0.553077 0.526941 0.333078 0.362024 0.501755 0.492296 0.576631 0.576631 
0.65326 0.55979 0.55979 0.484256 0.347273 0.239811 0.239811 0.17718 0.262991 
0.221785 0.290092 0.326553 0.261957 0.221111 0.186897 0.15593 0.119777 0.119777 
0.150043 0.213978 0.210242 0.298764 0.308358 0.320099 0.365131 0.365133 0.464562 
0.413377 0.498051 0.422192 0.356393 0.356393 0.311791 0.247316 0.247316 0.211888 
0.199206 0.248606 0.197284 0.201086 0.201086 0.236369 0.279159 0.248841 0.274523 
0.274523 0.24211 0.175642 0.175642 0.150502 0.153281 0.102512 0.102512 0.0692254 
0.0926348 0.144285 0.143895 0.224496 0.400576 0.359636 0.359636 0.391305 0.361856 
0.30634 0.281939 0.223486 0.223486 0.327224 0.310173 0.310173 0.42166 0.396035 
0.432413 0.193479 0.182808 0.32907 0.266078 0.262028 0.249868 0.30308 0.174598 
0.190891 0.4432 0.279063 0.321237 0.343533 0.426262 0.321171 0.226227 0.226227 
0.203935 0.212247 0.238027 0.241747 0.256646 0.266116 0.29333 0.29333 0.319838 
0.0365883 0.140714 0.23411 0.34205 0.352675 0.312993 0.276359 0.265243 0.245712 
0.298447 0.208283 0.194795 0.245987 0.261554 0.282758 0.295987 0.310131 0.383196 
0.347119 0.250225 0.199872 0.212607 0.218354 0.333024 0.327474 0.33249 0.370458 
0.413099 0.399221 0.49934 0.503789 0.4608 0.336839 0.35928 0.465334 0.638374 
0.606095 0.55601 0.59173 0.602797 0.494766 0.495379 0.455217 0.382938 0.367861 
0.348125 0.327958 0.324481 0.0967443 0.194018 0.239076 0.269402 0.202415 0.202415 
0.191386 0.151017 0.202321 0.255476 0.240037 0.306195 0.357057 0.357057 0.403649 
0.372123 0.351424 0.308926 0.235533 0.290972 0.343974 0.200298 0.235632 0.20384 
0.212224 0.173162 0.166838 0.195652 0.217529 0.22033 0.26451 0.279283 0.259021 
0.248301 0.209182 0.275652 0.2492 0.299319 0.303587 0.249985 0.249985 0.204737 
0.203125 0.22012 
WidthEq 1 407 double
1.13225 1.0385 1.4786 1.32207 1.25496 1.73461 1.69188 1.84113 1.93023 
1.55169 1.94503 1.95168 1.74857 1.7957 3.76869 3.53217 2.48103 2.84794 
1 4.35581 4.63079 2.66235 3.11839 3.13789 1.54998 4.26224 2.58051 
2.56833 3.58705 3.88595 3.78099 3.91686 3.87652 3.58246 3.74801 3.86343 
3.58898 3.50295 3.40673 3.0565 2.98285 3.0339 3.12882 3.56115 4.86395 
4.94175 2.89784 3.00412 3.26614 3.44632 3.52865 3.26955 3.33372 3.45271 
4.18737 4.55243 4.6707 5.14669 5.33901 5.23296 4.55769 4.40799 4.23228 
3.87843 4.14448 4.09294 4.12819 3.74651 2.99563 2.70806 3.84163 3.75204 
3.36427 2.76538 2.53141 2.53141 2.58584 2.57148 2.57148 2.78856 2.88043 
3.12835 1.48634 1.99706 2.8502 2.5941 3.20567 3.21435 3.16823 3.04536 
3.2797 3.37444 4.01352 3.65704 3.65704 3.81286 3.61765 3.61765 3.44425 
3.27975 3.15045 3.03737 2.8821 2.75976 2.83339 2.69657 2.81339 2.77718 
2.83345 2.65527 2.55879 2.73471 2.64289 2.54806 2.67301 2.59034 2.39909 
2.25674 2.14066 2.11415 2.06374 2.21058 2.09739 2.20452 2.03222 1.96202 
3.20584 3.02344 2.92851 2.36413 2.05062 2.05062 1.83005 1.68892 1.7826 
1.9372 2.02059 2.14666 2.29945 2.53973 2.6317 2.4783 2.48737 2.37165 
2.06605 2.06605 1.98383 1.71503 1.60065 1.60065 1.54384 1.49637 1.5442 
1.57203 1.83057 1.9662 1.9662 1.99244 1.97417 1.8858 1.93133 1.93133 
1.95271 1.98057 2.08726 2.23204 2.33785 2.65057 2.59619 2.42948 2.15425 
2.15425 1.96865 2.02024 1.85755 1.4209 1.4209 1.33942 1.30142 1.30142 
1.38215 1.457 1.457 1.63786 1.63786 1.77555 1.89845 1.89845 1.82712 
1.78084 1.67943 1.95878 2.03182 2.03182 2.22482 2.21214 2.06649 1.87234 
1.87234 1.76216 1.63252 1.29966 1.50878 1.59781 1.36318 1.27563 1.55513 
1.59599 1.37058 1.35028 1.685 1.58525 1.28191 1.46514 1.34654 1.34654 
1.22649 1.46211 1.46211 1.56455 1.63402 1.66166 1.66166 1.70328 1.65268 
1.77203 1.72538 1.61835 1.76336 1.7811 1.87318 1.94421 2.1064 2.1064 
2.00445 1.88369 1.99737 1.83222 1.64018 1.6018 1.49658 1.53204 1.4496 
1.63872 1.56352 1.61092 1.66107 1.66107 1.68349 1.79861 1.79861 1.78392 
1.76587 1.69854 1.65917 1.5779 1.5779 1.64519 1.61153 1.65774 1.66354 
1.66354 1.78643 2.03782 2.03782 2.05862 2.05751 2.0621 2.0621 2.13136 
2.44037 2.68803 3.04033 2.67887 2.15331 2.31557 2.31557 2.27667 2.22882 
2.37125 2.39658 2.37216 2.37216 2.26753 2.22334 2.22334 2.32205 2.36253 
2.47525 5.30011 5.54077 4.18225 4.42742 3.85255 3.4481 2.9949 3.21355 
2.87528 2.09504 4.49013 4.07082 2.88371 2.75186 2.93316 3.02684 3.02684 
3.05737 2.91042 2.72865 3.27157 3.18715 3.13597 3.2962 3.2962 3.50096 
1.42175 1.45719 1.54126 1.39722 1.3907 1.58972 1.89525 2.23547 2.63487 
3.6046 3.68771 4.03848 3.73681 3.97902 3.89909 3.85876 3.82552 3.24882 
3.05881 2.75391 2.59908 2.47797 2.25905 3.54094 2.99242 2.68392 2.23099 
2.00024 1.93065 1.69515 1.60921 1.59666 1.94721 2.14191 1.96929 1.8185 
1.84343 1.771 1.71736 1.64773 1.54006 1.56699 1.76979 2.02379 2.04734 
2.07547 1.95831 1.88378 2.28417 2.51621 2.40004 2.30436 2.08226 2.08226 
1.90122 1.76002 1.66815 1.8787 2.01258 1.83488 1.50626 1.50626 1.37401 
1.42467 1.4362 1.47052 1.47146 1.42412 1.35897 2.07756 2.03347 1.89469 
1.80475 1.793 1.65376 1.55468 1.5441 1.50603 1.48676 1.55783 1.64488 
1.70892 1.6806 1.68171 1.47621 1.08696 1.11878 1.2181 1.2181 1.24938 
1.2162 1.19951 
rRFP 1 407 double
2883.17 2829.31 3082.15 2992.22 2953.67 3229.23 3204.68 3290.43 3341.62 
3124.14 3350.12 3353.94 3237.25 3264.33 4397.83 4261.95 3658.06 3868.85 
2807.19 4735.14 4893.12 3762.23 4024.23 4035.43 3123.16 4681.38 3715.21 
3708.21 4293.48 4465.2 4404.9 4482.96 4459.78 4290.84 4385.95 4452.26 
4294.59 4245.16 4189.88 3988.67 3946.36 3975.69 4030.22 4278.6 5027.07 
5071.77 3897.52 3958.58 4109.11 4212.63 4259.93 4111.07 4147.94 4216.3 
4638.37 4848.1 4916.05 5189.51 5300 5239.07 4851.12 4765.12 4664.17 
4460.88 4613.73 4584.12 4604.37 4385.09 3953.7 3788.49 4439.74 4388.27 
4165.49 3821.42 3687 3687 3718.27 3710.02 3710.02 3834.74 3887.52 
4029.95 3086.6 3380.01 3870.15 3723.02 4074.37 4079.36 4052.86 3982.27 
4116.9 4171.33 4538.49 4333.69 4333.69 4423.21 4311.06 4311.06 4211.44 
4116.93 4042.65 3977.68 3888.48 3818.19 3860.49 3781.89 3849 3828.2 
3860.53 3758.16 3702.73 3803.8 3751.05 3696.57 3768.35 3720.86 3610.98 
3529.2 3462.51 3447.28 3418.32 3502.68 3437.65 3499.2 3400.21 3359.88 
4074.47 3969.68 3915.14 3590.9 3410.78 3410.78 3284.06 3202.98 3256.8 
3345.62 3393.53 3465.96 3553.74 3691.78 3744.62 3656.49 3661.7 3595.22 
3419.65 3419.65 3372.41 3217.98 3152.27 3152.27 3119.63 3092.36 3119.84 
3135.83 3284.36 3362.28 3362.28 3377.36 3366.86 3316.09 3342.25 3342.25 
3354.53 3370.54 3431.83 3515.01 3575.8 3755.46 3724.22 3628.44 3470.32 
3470.32 3363.69 3393.33 3299.86 3049 3049 3002.19 2980.36 2980.36 
3026.74 3069.74 3069.74 3173.65 3173.65 3252.75 3323.36 3323.36 3282.38 
3255.79 3197.53 3358.02 3399.98 3399.98 3510.86 3503.58 3419.9 3308.36 
3308.36 3245.06 3170.58 2979.35 3099.49 3150.64 3015.84 2965.54 3126.12 
3149.59 3020.09 3008.43 3200.73 3143.42 2969.15 3074.42 3006.28 3006.28 
2937.31 3072.68 3072.68 3131.53 3171.44 3187.32 3187.32 3211.23 3182.16 
3250.73 3223.93 3162.44 3245.75 3255.94 3308.84 3349.65 3442.83 3442.83 
3384.26 3314.88 3380.19 3285.31 3174.98 3152.93 3092.48 3112.85 3065.49 
3174.14 3130.94 3158.17 3186.98 3186.98 3199.86 3266 3266 3257.56 
3247.19 3208.51 3185.89 3139.2 3139.2 3177.86 3158.52 3185.07 3188.4 
3188.4 3259 3403.43 3403.43 3415.38 3414.74 3417.38 3417.38 3457.17 
3634.7 3776.98 3979.38 3771.72 3469.78 3563 3563 3540.65 3513.16 
3594.99 3609.54 3595.51 3595.51 3535.4 3510.01 3510.01 3566.72 3589.98 
3654.74 5277.65 5415.91 4635.43 4776.28 4446.01 4213.65 3953.28 4078.9 
3884.56 3436.3 4812.31 4571.41 3889.4 3813.65 3917.81 3971.63 3971.63 
3989.17 3904.75 3800.32 4112.23 4063.73 4034.33 4126.38 4126.38 4244.02 
3049.49 3069.85 3118.15 3035.4 3031.65 3145.99 3321.52 3516.98 3746.44 
4303.56 4351.31 4552.83 4379.52 4518.67 4472.75 4449.58 4430.48 4099.16 
3990 3814.83 3725.88 3656.3 3530.53 4266.99 3951.86 3774.62 3514.41 
3381.84 3341.86 3206.56 3157.19 3149.98 3351.37 3463.23 3364.06 3277.43 
3291.75 3250.14 3219.32 3179.32 3117.46 3132.93 3249.44 3395.37 3408.9 
3425.06 3357.75 3314.93 3544.96 3678.27 3611.53 3556.56 3428.96 3428.96 
3324.95 3243.83 3191.05 3312.01 3388.93 3286.84 3098.04 3098.04 3022.06 
3051.17 3057.79 3077.51 3078.05 3050.85 3013.42 3426.26 3400.93 3321.2 
3269.53 3262.78 3182.78 3125.86 3119.78 3097.91 3086.84 3127.67 3177.68 
3214.47 3198.2 3198.84 3080.78 2857.15 2875.43 2932.49 2932.49 2950.46 
2931.4 2921.81 
rGFP 1 407 double
2657.86 2625.65 2696.19 2656.48 2721.22 2756.95 2717.12 2866.75 2815.37 
2940.22 2839.17 2671.27 2952.47 3079.86 3345.04 3265.31 3002 3040.75 
2521.6 3442.64 3395.05 3094.6 2854.62 3010.69 3083.81 3146.63 2971.02 
2887.58 3070.14 3104.07 3128.58 3218.73 3305.68 3278.84 3306.02 3279.04 
3240.3 3183.37 3076.9 3014.31 2956.77 2974.89 3037.01 3112.35 3332.88 
3414.1 3003.79 2968.41 3108.64 3144.1 3120.25 3161.51 3243.26 3308.59 
3319.33 3416.17 3426.32 3333.49 3183.23 3231.95 3145.46 3102.85 3132.22 
2962.59 3010.04 3060.78 3133.09 3112.19 3035.04 3056.54 3111.33 3100.4 
3058.3 3004.91 2984.23 2984.23 2918.93 2904.85 2904.85 2886.88 2865.86 
2853.32 3151.26 3223.64 3258.51 3306.47 3138.69 3090.75 3042.47 2967.1 
2953.72 3038.44 3167.54 3077.93 3077.93 3200.96 3200.91 3200.91 3216.96 
3162.83 3197.12 3112.37 3091.64 3142.49 3068.12 3068.59 3028.93 2992.38 
2942.99 2932.75 2957.15 2986.68 3007.3 3029.3 2970.9 2971.37 2884.96 
2836.98 2823.57 2828.51 2823.2 2868.59 2903.35 2872.59 2907.41 2902.94 
2906.22 2887.32 2846.28 2805.57 2810.62 2810.62 2922.96 2939.86 2992.72 
3030.43 2994.23 2984.22 3031.32 2999.22 2975.67 2980.1 2914.38 2928.07 
2884.15 2884.15 2865.38 2827.46 2791.38 2791.38 2781.83 2805.07 2797.64 
2885.78 2880.41 2861.56 2861.56 2847.32 2877.99 2926.7 2934.98 2934.98 
2919.84 2805.2 2783.31 2793.56 2843.52 2891.42 2890.23 2834.98 2801.72 
2801.72 2798.91 2791.01 2827.26 2773.49 2773.49 2785.8 2772.65 2772.65 
2759.47 2736.68 2736.68 2711.47 2711.47 2700.09 2740.95 2740.95 2804.93 
2884.44 2914.81 2898.44 2886.41 2886.41 2859.75 2813.35 2849.56 2845.81 
2845.81 2880.47 2928.68 2957.88 2928.07 2855.48 2842.16 2819.49 2819.67 
2854.16 2856.6 2836.32 2816.12 2809.72 2802.17 2853.1 2861 2861 
2856.98 2890.33 2890.33 2878.41 2812.75 2750.56 2750.56 2717.89 2763.52 
2760.94 2797.22 2795.91 2786.6 2762.28 2755.8 2745.7 2744.4 2744.4 
2751.59 2777.47 2796.86 2827.44 2789.6 2787.95 2789.07 2798.09 2832.84 
2855.79 2886.44 2853.69 2825.3 2825.3 2801.9 2783.98 2783.98 2756.48 
2744.3 2763.93 2722.77 2709.69 2709.69 2744.98 2764.75 2755.54 2773.27 
2773.27 2777.84 2777.47 2777.47 2761.23 2763.25 2723.57 2723.57 2706.73 
2772.07 2862.65 2921.73 2944.17 2985.63 2992.48 2992.48 3010.54 2972.51 
2957.67 2940.93 2881.9 2881.9 2951.95 2926.7 2926.7 3049.79 3037.57 
3102.4 3404.88 3427.27 3413.93 3365.06 3234.81 3131.84 3098.36 2989.12 
2946.1 3004.53 3401.15 3374.81 3117.84 3173.41 3104.65 3015.79 3015.79 
2995.57 2976.7 2968.4 3084.53 3085.44 3086.05 3155.35 3155.35 3237.63 
2589.46 2652.63 2722.37 2751.33 2755.44 2780.72 2825.44 2890.7 2956.98 
3232.37 3122.83 3169.73 3186.81 3261.21 3276.04 3286.8 3300.15 3257.48 
3165.16 2986.57 2903.47 2892.6 2854.84 3265.15 3126.01 3057.23 2980.48 
2954.28 2924.93 2927.53 2903.98 2873.58 2882.4 2948.38 2985.6 3063.05 
3049.02 2989.56 2995.67 2978.91 2877.31 2885.88 2920.2 2937.11 2931.33 
2922.68 2878.38 2857.96 2752.42 2881.99 2901.93 2909.27 2807.07 2807.07 
2764.3 2710.4 2727.72 2806.63 2823 2833.32 2786.83 2786.83 2778.35 
2774.63 2766.1 2750.49 2708.96 2729.81 2742.95 2804.47 2823.84 2772.2 
2760.78 2731.41 2702.28 2701.99 2713.05 2707.17 2728.74 2752.95 2759.32 
2765.9 2734.56 2777.99 2717.73 2657.22 2666.35 2664.01 2664.01 2648.72 
2641.58 2646.26 
bkstRFP 1 407 double
650.491 596.631 849.471 759.541 720.991 996.551 972.001 1057.75 1108.94 
891.461 1117.44 1121.26 1004.57 1031.65 2165.15 2029.27 1425.38 1636.17 
574.511 2502.46 2660.44 1529.55 1791.55 1802.75 890.481 2448.7 1482.53 
1475.53 2060.8 2232.52 2172.22 2250.28 2227.1 2058.16 2153.27 2219.58 