# vtk DataFile Version 3.0
vtk output
ASCII
DATASET POLYDATA
POINTS 336 float
0.328606 1.65823 0.556684 1.64674 1.26042 0.33993 3.8362 0.381843 0.0799007 
3.42978 -0.710008 -0.307148 5.61323 0.94483 -0.173358 3.59319 -0.450113 -0.463351 
1.90503 0.598053 -0.42887 -0.774469 -0.337153 -0.603684 3.0047 -1.04354 -0.931359 
3.77229 -0.280776 -0.835606 2.03199 0.546203 -0.883671 4.79397 0.0335218 -0.952319 
1.67752 0.56688 -0.98203 6.27643 0.450118 -1.03646 5.92166 -0.108366 -1.13615 
6.12417 0.513557 -1.0321 5.82016 -0.0660727 -1.13324 3.01725 -0.487376 -1.3001 
1.87871 -0.626734 -1.56547 2.08031 -0.559326 -1.75023 1.8934 0.695724 -1.56179 
1.34186 0.760187 -1.63921 0.20492 -0.422511 -1.93177 2.30302 -0.441853 -1.92645 
1.56737 -0.488484 -1.96029 0.885562 -0.162319 -2.06923 0.353857 -0.394862 -1.9896 
0.777878 0.667336 -1.94408 -0.248516 0.596121 -2.05978 1.60177 1.03603 -2.127 
0.00384048 0.642383 -2.246 0.840087 0.0922067 -2.50387 0.869509 0.636758 -2.42936 
0.180317 0.36711 -2.48497 0.542223 0.956311 -2.58277 0.101635 0.349563 -2.89561 
0.130272 0.362796 -2.68998 0.599408 0.991342 -2.57526 0.635185 1.03529 -2.56713 
0.671063 1.0792 -2.559 0.73013 1.11345 -2.55154 0.800105 1.14315 -2.54439 
0.87186 1.17211 -2.53729 0.943717 1.20103 -2.5302 1.01557 1.22995 -2.5231 
1.08739 1.25877 -2.51602 1.15846 1.28583 -2.50924 1.225 1.30213 -2.5043 
1.28185 1.29546 -2.50329 1.33797 1.28703 -2.50257 1.39888 1.28948 -2.49248 
1.45337 1.27568 -2.47016 1.50223 1.24647 -2.42042 1.54476 1.2002 -2.34357 
1.57579 1.12463 -2.24169 0.571137 0.870093 -2.40011 0.610449 0.809721 -2.23305 
0.656563 0.764718 -2.10086 0.710588 0.720923 -2.0082 0.472613 0.926314 -2.49994 
0.41138 0.914569 -2.45897 0.355727 0.894151 -2.47916 0.312967 0.862662 -2.53062 
0.264473 0.830366 -2.5749 0.219121 0.789157 -2.57545 0.155985 0.745374 -2.51703 
0.0814135 0.696372 -2.39982 0.230286 0.344106 -2.48674 0.276463 0.31211 -2.49004 
0.316866 0.266413 -2.49569 0.363826 0.236273 -2.49868 0.419193 0.226078 -2.49827 
0.485916 0.243326 -2.50067 0.557783 0.273801 -2.51584 0.631184 0.309445 -2.55265 
0.70479 0.34637 -2.59675 0.776351 0.382898 -2.63349 0.83612 0.420597 -2.64797 
0.870358 0.466795 -2.6483 0.891529 0.517246 -2.62718 0.899188 0.57665 -2.56641 
0.149888 0.436464 -2.47528 0.115403 0.495687 -2.45981 0.0743115 0.537706 -2.42476 
0.0377076 0.587819 -2.35078 0.805353 0.646025 -2.2177 0.86227 -0.0263396 -2.28647 
-0.0525325 0.649684 -2.2394 -0.115554 0.639681 -2.21322 -0.178578 0.627122 -2.14995 
1.66323 1.04232 -2.15381 1.70887 1.00905 -2.15733 1.7542 0.971984 -2.11646 
1.80029 0.933662 -2.03073 1.84088 0.879229 -1.9027 1.8698 0.794558 -1.7423 
1.54244 1.00065 -2.12715 1.49456 0.955915 -2.10083 1.43286 0.906958 -2.01566 
1.37375 0.844026 -1.85506 0.959597 -0.186803 -2.19289 1.01852 -0.208271 -2.25411 
1.06546 -0.243825 -2.23044 1.10736 -0.292089 -2.14891 1.16018 -0.315472 -2.04563 
1.21086 -0.342935 -1.95805 1.25513 -0.384553 -1.8879 1.29416 -0.437585 -1.83473 
1.34332 -0.465557 -1.7923 1.40319 -0.466104 -1.77521 1.45927 -0.473077 -1.79678 
1.51314 -0.482228 -1.86376 0.288934 -0.395906 -1.95961 0.246975 -0.490654 -2.04087 
0.299146 -0.509684 -2.11696 0.351077 -0.486882 -2.13654 0.369971 -0.445342 -2.08689 
0.809833 0.688524 -1.7096 0.843515 0.708334 -1.52527 0.898961 0.724019 -1.39581 
0.965596 0.739231 -1.29601 1.03366 0.75382 -1.20877 1.09857 0.763205 -1.15996 
1.15534 0.757405 -1.17631 1.21102 0.753022 -1.27499 1.2719 0.75523 -1.43748 
0.425713 -0.365944 -1.98251 0.49757 -0.337025 -1.97541 0.569427 -0.308107 -1.96832 
0.641512 -0.278409 -1.9661 0.714962 -0.2461 -1.97841 0.794429 -0.207931 -2.01462 
2.22984 -0.47646 -1.89696 2.15561 -0.515617 -1.83823 0.132049 -0.391351 -1.86456 
0.0675967 -0.38199 -1.82042 -0.000862862 -0.401222 -1.79838 -0.0729596 -0.4324 -1.77833 
-0.146625 -0.469182 -1.73421 -0.221084 -0.509378 -1.66814 -0.295331 -0.55009 -1.58715 
-0.36474 -0.578817 -1.5116 -0.423493 -0.581755 -1.43917 -0.477633 -0.57375 -1.36488 
-0.530592 -0.563454 -1.28267 -0.5799 -0.545008 -1.19158 -0.62239 -0.50988 -1.10513 
-0.666116 -0.477681 -1.01919 -0.703816 -0.43221 -0.915968 -0.738963 -0.383235 -0.774593 
1.42479 0.744204 -1.57619 1.48019 0.705196 -1.50524 1.5317 0.67605 -1.4154 
1.57626 0.631697 -1.29817 1.62827 0.603343 -1.15067 1.92917 0.617916 -1.35131 
1.9873 0.574762 -1.12213 1.81523 0.638045 -1.37105 1.74155 0.591025 -1.17849 
2.10762 -0.640677 -1.69439 2.13567 -0.720269 -1.63825 2.16826 -0.789104 -1.58026 
2.2103 -0.836009 -1.51103 2.25353 -0.880622 -1.43388 2.29521 -0.929401 -1.34995 
2.34839 -0.949892 -1.2762 2.39655 -0.980767 -1.22676 2.43686 -1.02821 -1.21018 
2.48355 -1.05949 -1.20585 2.5381 -1.07164 -1.20577 2.59819 -1.07114 -1.19601 
2.64819 -1.0956 -1.17551 2.68849 -1.14459 -1.13667 2.73827 -1.17189 -1.08472 
2.80449 -1.16254 -1.02837 2.88983 -1.12214 -0.979617 2.01034 -0.590418 -1.66008 
1.94657 -0.604743 -1.59711 3.02985 -0.562714 -1.24385 3.0212 -0.627951 -1.1943 
3.01112 -0.691915 -1.15023 3.01404 -0.766886 -1.10178 3.00792 -0.871845 -1.02643 
5.87091 -0.0872192 -1.1347 5.75927 -0.117031 -1.03836 5.72042 -0.174678 -0.958711 
5.68378 -0.230749 -0.893739 5.63539 -0.279427 -0.843049 5.59991 -0.330988 -0.807348 
5.56522 -0.379137 -0.793589 5.51878 -0.419893 -0.794104 5.48656 -0.465328 -0.802335 
5.4618 -0.513867 -0.81078 5.42771 -0.558522 -0.818958 5.36877 -0.592707 -0.826405 
5.29958 -0.620553 -0.833238 5.23318 -0.636806 -0.838166 5.17734 -0.627229 -0.846199 
5.12664 -0.604436 -0.866989 5.07822 -0.574698 -0.909117 5.03494 -0.531742 -0.964011 
5.00232 -0.462999 -1.02201 4.97427 -0.383405 -1.07816 4.94669 -0.303192 -1.12669 
4.91837 -0.226294 -1.15326 4.88872 -0.155082 -1.14325 4.85776 -0.089559 -1.09668 
4.82599 -0.0274498 -1.02816 5.80221 -0.014708 -1.03589 5.81072 0.033114 -0.983139 
5.84184 0.0827505 -0.996795 5.89199 0.131944 -1.05484 5.93827 0.186493 -1.13469 
5.98842 0.235686 -1.19274 6.01991 0.286418 -1.21372 6.031 0.336911 -1.18296 
6.02573 0.390476 -1.12981 6.03614 0.437514 -1.07712 6.06745 0.479583 -1.04694 
6.17493 0.49241 -1.03355 6.22568 0.471264 -1.03501 6.09188 0.573392 -0.948952 
6.05929 0.631986 -0.858495 6.02546 0.686651 -0.753705 5.98776 0.732122 -0.650476 
5.94324 0.760907 -0.542595 5.90022 0.793761 -0.44152 5.85065 0.811069 -0.34311 
5.79799 0.822594 -0.268203 5.74548 0.835977 -0.215513 5.69471 0.855568 -0.1918 
5.64902 0.888192 -0.180874 1.74389 0.568002 -0.789429 1.8172 0.576254 -0.605463 
1.98424 0.56289 -0.650263 3.70741 -0.340052 -0.682147 3.65596 -0.399939 -0.558292 
3.10847 -1.0926 -0.734578 3.16766 -1.09666 -0.56992 3.18631 -1.06468 -0.459257 
3.22313 -1.03092 -0.394538 3.26366 -0.992695 -0.364626 3.30948 -0.954175 -0.349474 
3.33246 -0.904895 -0.340978 3.34138 -0.849752 -0.332079 3.37657 -0.805554 -0.323933 
3.40689 -0.759331 -0.315647 1.86674 0.670128 -0.319023 1.84243 0.729085 -0.220716 
1.83476 0.778971 -0.135724 1.81552 0.834244 -0.057807 1.79833 0.890282 0.0102983 
1.80317 0.939635 0.0631525 1.80871 0.992442 0.0940678 1.79133 1.05605 0.11834 
1.76273 1.12296 0.150215 1.73081 1.18545 0.203783 1.69373 1.23494 0.270151 
3.60618 -0.514384 -0.472878 3.5865 -0.56629 -0.474159 3.53936 -0.610498 -0.452734 
3.49219 -0.660932 -0.394779 3.53296 -0.458373 -0.369293 3.46497 -0.490291 -0.279206 
3.40601 -0.534882 -0.213254 3.38416 -0.588259 -0.199845 3.4001 -0.648767 -0.238685 
3.80971 0.317914 0.16652 3.7725 0.257909 0.268359 3.71365 0.215233 0.387109 
3.64986 0.190513 0.523481 3.58353 0.164222 0.667021 3.5282 0.164279 0.815056 
3.48747 0.201048 0.939324 3.44952 0.246937 1.0276 3.40755 0.285352 1.08457 
3.37069 0.335883 1.1436 3.33279 0.383428 1.20964 3.28428 0.405285 1.2788 
3.22783 0.407819 1.35216 3.16844 0.402859 1.43176 3.12107 0.425902 1.52364 
3.07608 0.455614 1.60165 3.03457 0.495104 1.6588 2.98795 0.525024 1.67678 
2.93894 0.550822 1.67151 2.8936 0.586332 1.6529 2.85354 0.633358 1.65126 
2.80784 0.665982 1.66218 2.76166 0.696432 1.68775 2.72155 0.741802 1.70836 
2.67968 0.783511 1.72083 2.64037 0.832294 1.7195 2.59577 0.869569 1.70118 
2.55192 0.910157 1.6609 2.51345 0.96401 1.61537 2.46913 1.00397 1.56748 
2.42074 1.0338 1.52537 2.37289 1.0659 1.46862 2.32932 1.10919 1.39876 
2.29165 1.168 1.30903 2.24434 1.20394 1.21539 2.18738 1.217 1.11785 
2.13478 1.23886 1.04433 2.08614 1.26911 0.98727 2.04155 1.30793 0.946693 
2.00356 1.3624 0.908778 1.96402 1.4127 0.877674 1.92977 1.47452 0.863538 
1.89451 1.53344 0.85643 1.84908 1.56875 0.837779 1.79535 1.58588 0.793486 
1.731 1.57887 0.730059 1.66205 1.56091 0.664762 1.59186 1.53901 0.613816 
1.52132 1.51423 0.592403 1.45425 1.49565 0.602097 1.39607 1.49664 0.637656 
1.3389 1.50051 0.666198 1.27768 1.49683 0.663411 1.22267 1.50991 0.633452 
1.16792 1.52413 0.596175 1.10754 1.52395 0.571462 1.05247 1.53538 0.563746 
1.0012 1.55581 0.557565 0.950463 1.57851 0.536761 0.89672 1.59562 0.492476 
0.837394 1.6 0.438495 0.782911 1.61536 0.393911 0.727634 1.6273 0.371269 
0.666717 1.62485 0.36118 0.611392 1.63514 0.360782 0.5599 1.65453 0.361936 
0.508799 1.67434 0.370673 0.456207 1.68908 0.40107 0.397757 1.68737 0.466196 

LINES 35 407
3 35 36 33 
20 34 37 38 39 40 41 42 43 44 45 46 47 48 49 50 51 52 53 54 29 
6 34 55 56 57 58 27 
10 34 59 60 61 62 63 64 65 66 30 
6 33 81 82 83 84 30 
3 31 86 25 
5 30 87 88 89 28 
8 29 90 91 92 93 94 95 20 
6 29 96 97 98 99 21 
14 25 100 101 102 103 104 105 106 107 108 109 110 111 24 
3 22 112 26 
6 22 113 114 115 116 26 
11 27 117 118 119 120 121 122 123 124 125 21 
8 26 126 127 128 129 130 131 25 
4 23 132 133 19 
18 22 134 135 136 137 138 139 140 141 142 143 144 145 146 147 148 149 7 
7 21 150 151 152 153 154 12 
4 20 157 158 12 
19 19 159 160 161 162 163 164 165 166 167 168 169 170 171 172 173 174 175 8 
4 19 176 177 18 
7 17 178 179 180 181 182 8 
3 16 183 14 
26 16 184 185 186 187 188 189 190 191 192 193 194 195 196 197 198 199 200 201 202 203 204 205 206 207 11 
13 16 208 209 210 211 212 213 214 215 216 217 218 15 
4 15 219 220 13 
13 15 221 222 223 224 225 226 227 228 229 230 231 4 
4 12 232 233 6 
4 9 235 236 5 
12 8 237 238 239 240 241 242 243 244 245 246 3 
13 6 247 248 249 250 251 252 253 254 255 256 257 1 
6 5 258 259 260 261 3 
7 5 262 263 264 265 266 3 
71 2 267 268 269 270 271 272 273 274 275 276 277 278 279 280 281 282 283 284 285 286 287 288 289 290 291 292 293 294 295 296 297 298 299 300 301 302 303 304 305 306 307 308 309 310 311 312 313 314 315 316 317 318 319 320 321 322 323 324 325 326 327 328 329 330 331 332 333 334 335 0 
18 33 67 68 69 70 71 72 73 74 75 76 77 78 79 80 32 85 27 
6 20 155 156 10 234 6 

POINT_DATA 336
SCALARS DY_raw double
LOOKUP_TABLE default
65.3652 40.0019 37.2729 69.107 58.2566 42.555 38.1539 39.3588 48.96 
102.027 29.5951 79.3839 32.4618 94.7949 82.1375 44.9043 39.6268 23.2793 
46.9314 30.7374 34.7057 37.8141 45.577 48.1978 57.6749 36.3116 48.4895 
33.6772 206.153 34.2775 30.6652 37.1004 36.383 34.3912 23.4549 39.4143 
31.6198 24.6381 35.114 40.334 41.8536 40.9171 37.1678 45.3318 38.0135 
38.0135 33.5464 31.4684 31.4684 32.1418 30.4514 33.7541 32.9574 34.7434 
32.5121 30.5061 25.0912 26.8269 30.5892 28.8891 34.4217 41.9035 39.0555 
38.3643 32.5683 31.6002 25.7337 37.8532 37.7176 37.2747 37.5612 37.5612 
37.7776 41.8015 45.5036 47.3637 48.6624 49.2512 46.1324 43.4901 41.9138 
31.8625 27.853 26.7589 29.7038 35.7575 34.4464 28.4876 31.2221 44.1397 
33.5819 34.5541 34.651 34.1896 36.0258 36.9528 33.2612 33.0574 37.6187 
38.6621 41.5254 42.6947 46.7554 57.5311 63.841 60.1216 61.5136 47.8232 
48.3361 48.3361 57.8003 57.2726 38.9249 41.5172 43.1504 43.3808 41.5617 
32.4757 35.1173 42.7153 47.9869 51.8841 47.1412 42.9708 41.1372 33.8803 
48.4895 57.6254 56.4577 51.5438 42.4753 35.7254 32.7965 34.0264 46.5058 
45.5484 44.5376 46.8933 59.1828 45.163 52.8537 63.8488 67.8548 43.6229 
36.0975 46.7729 34.6285 32.1917 35.408 34.5133 39.7694 43.5566 44.3552 
38.8177 32.1958 33.2609 31.9337 34.2604 36.4782 33.8698 38.7015 44.8047 
46.4609 58.9101 48.2514 53.5723 53.5885 56.276 56.276 47.6604 43.4716 
46.5258 44.548 50.0897 49.2803 49.7202 34.4813 39.9764 24.5313 27.2096 
35.6031 39.3682 46.1206 47.1849 46.6943 61.8652 57.4524 60.3407 59.6346 
61.6159 61.6159 62.0638 47.4699 47.4699 41.7742 40.3988 41.69 41.69 
37.3409 40.327 45.5486 46.4488 57.266 61.5894 59.1331 63.8231 64.958 
69.935 50.3669 59.1115 65.6662 55.1119 60.8322 46.7954 45.5999 45.5999 
44.0005 48.3577 42.9833 71.9725 71.9725 45.8712 53.8316 46.7036 48.6785 
59.2594 55.093 60.8719 78.216 69.3176 61.8054 64.016 37.7633 31.065 
28.4781 59.9369 45.5237 50.1394 43.6125 46.489 48.6068 66.6318 63.9928 
63.9928 65.5605 59.0197 59.0197 40.5702 39.988 48.0729 57.8044 55.2227 
53.8789 40.0106 34.7374 32.1898 34.0505 34.6017 48.0494 51.0991 62.7274 
57.3784 55.2784 63.9935 56.4257 55.1034 68.5795 38.0306 34.0777 27.7974 
28.9903 33.0703 36.7037 42.178 34.8443 34.1917 34.9195 32.459 36.6045 
38.7673 40.4567 45.9327 48.1232 55.9117 55.9117 53.46 49.9958 43.472 
46.412 42.4901 42.9314 43.9552 43.9552 43.5897 44.0437 40.9124 48.234 
50.4519 40.9232 41.2168 38.4013 38.5185 45.4355 43.8881 42.4356 40.6939 
40.6939 34.0355 34.5459 29.5743 29.9365 27.3175 29.4285 40.0245 37.9273 
47.4206 54.0795 56.2066 71.0621 68.6646 78.3702 71.6353 65.0611 69.8421 
69.7567 77.2335 61.1494 53.4915 58.7023 52.4653 52.0157 52.0157 47.9262 
49.3003 49.6699 51.9805 
FIELD FieldData 7
DY_minmax 1 336 double
0.230136 0.0914434 0.0765203 0.250597 0.191264 0.105404 0.0813382 0.0879265 0.140428 
0.430614 0.0345365 0.306794 0.0502121 0.391066 0.321852 0.118251 0.0893923 0 
0.129336 0.0407825 0.0624826 0.0794797 0.12193 0.13626 0.188084 0.0712641 0.137856 
0.0568581 1 0.0601408 0.0403879 0.0755772 0.0716541 0.0607624 0.000960121 0.0882302 
0.0456081 0.00743032 0.0647153 0.0932594 0.101569 0.0964479 0.0759455 0.120589 0.0805701 
0.0805701 0.056143 0.0447801 0.0447801 0.0484621 0.0392187 0.057279 0.0529222 0.0626884 
0.0504874 0.0395181 0.00990798 0.0193994 0.0399721 0.0306759 0.0609292 0.101842 0.0862681 
0.0824888 0.0507944 0.0455008 0.013421 0.0796938 0.078952 0.0765302 0.0780968 0.0780968 
0.0792801 0.101284 0.121528 0.1317 0.138801 0.142021 0.124966 0.110518 0.101898 
0.0469349 0.0250098 0.0190274 0.0351307 0.0682339 0.0610642 0.0284802 0.0434332 0.11407 
0.0563371 0.0616534 0.0621833 0.05966 0.0697012 0.0747703 0.0545833 0.053469 0.0784113 
0.084117 0.0997744 0.106168 0.128373 0.187298 0.221802 0.201463 0.209075 0.134212 
0.137017 0.137017 0.18877 0.185884 0.0855541 0.0997295 0.10866 0.10992 0.0999727 
0.0502882 0.0647333 0.106281 0.135107 0.156418 0.130483 0.107678 0.0976517 0.0579688 
0.137856 0.187813 0.181428 0.154557 0.104969 0.0680583 0.0520423 0.0587677 0.127008 
0.121773 0.116246 0.129127 0.196329 0.119665 0.16172 0.221844 0.24375 0.111244 
0.0700931 0.128469 0.0620603 0.0487351 0.0663228 0.0614302 0.0901722 0.110881 0.115248 
0.0849676 0.0487579 0.0545816 0.0473242 0.0600475 0.0721751 0.0579115 0.0843323 0.117706 
0.126763 0.194838 0.136554 0.16565 0.165738 0.180435 0.180435 0.133322 0.110416 
0.127118 0.116303 0.146606 0.14218 0.144585 0.0612553 0.0913038 0.00684594 0.0214919 
0.0673897 0.0879783 0.124902 0.130722 0.128039 0.210998 0.186867 0.202661 0.1988 
0.209634 0.209634 0.212083 0.13228 0.13228 0.101135 0.0936137 0.100674 0.100674 
0.0768926 0.0932209 0.121774 0.126696 0.185848 0.20949 0.196058 0.221704 0.22791 
0.255125 0.148122 0.19594 0.231782 0.174069 0.205349 0.128592 0.122055 0.122055 
0.113309 0.137135 0.107747 0.266267 0.266267 0.123538 0.167068 0.12809 0.138889 
0.196749 0.173965 0.205566 0.300408 0.251749 0.210671 0.222759 0.0792024 0.0425742 
0.0284281 0.200453 0.121638 0.146878 0.111187 0.126917 0.138497 0.237063 0.222632 
0.222632 0.231204 0.195438 0.195438 0.0945508 0.0913673 0.135578 0.188792 0.174675 
0.167326 0.0914911 0.0626558 0.0487248 0.0588994 0.0619135 0.135449 0.152126 0.215712 
0.186463 0.174979 0.222636 0.181253 0.174022 0.247713 0.0806636 0.0590483 0.0247062 
0.0312291 0.0535398 0.0734081 0.103343 0.0632405 0.0596715 0.0636516 0.050197 0.0728657 
0.0846922 0.0939302 0.123875 0.135853 0.178442 0.178442 0.165036 0.146093 0.110419 
0.126495 0.10505 0.107462 0.113061 0.113061 0.111062 0.113545 0.0964224 0.136458 
0.148587 0.0964813 0.0980865 0.0826908 0.0833318 0.121156 0.112694 0.104752 0.0952275 
0.0952275 0.0588178 0.0616087 0.0344227 0.0364034 0.0220819 0.0336256 0.0915668 0.080099 
0.132011 0.168423 0.180055 0.261289 0.248178 0.301251 0.264423 0.228474 0.254617 
0.25415 0.295035 0.207083 0.165208 0.193702 0.159596 0.157138 0.157138 0.134775 
0.142289 0.14431 0.156945 
WidthEq 1 336 double
8.64379 18.0082 17.7269 12.9449 14.1334 19.2876 32.131 11.9565 23.2247 
3.07637 37.2755 9.08942 29.593 8.33349 10.2127 27.2204 21.057 34.825 
19.2354 26.247 25.7327 36.3514 17.0938 8.11455 10.7409 22.0913 14.5655 
32.6201 1 26.1706 18.9072 20.5152 24.724 18.4461 24.6675 9.38956 
12.5558 24.7796 19.7603 17.1005 17.638 17.4273 18.0894 17.6457 18.478 
18.478 19.3968 20.4374 20.4374 19.6322 22.8096 21.6588 22.666 22.1358 
25.362 24.8777 30.3354 30.6916 32.1232 24.0797 19.7902 16.2044 15.8816 
15.9425 18.7168 19.6617 23.4954 15.8521 16.652 18.5752 19.0967 19.0967 
20.2049 20.5031 19.5636 18.0261 17.8859 17.666 18 19.2136 20.5186 
18.3847 21.9676 23.9734 21.8014 26.3151 22.7221 17.2929 15.9696 6.83519 
25.5147 24.5384 23.2378 24.5321 21.7395 21.8734 28.0923 29.929 30.3369 
33.5505 19.5491 16.478 14.1073 11.8217 11.4809 12.6138 13.3673 17.318 
17.3896 17.3896 13.4335 11.3929 17.9981 14.6704 12.8463 12.9961 15.0416 
36.4809 34.6109 30.0933 28.0923 25.5331 25.9725 29.057 30.5109 38.4877 
14.5655 13.3751 13.4128 15.1885 18.7554 22.6854 20.4645 19.9667 17.319 
17.8086 17.1658 17.0358 15.0445 18.3171 17.5056 15.6133 16.0237 22.3697 
25.0652 22.2948 22.7738 21.4563 19.9309 17.245 34.0793 29.1851 25.9188 
26.3693 25.6003 25.1377 27.2272 27.695 26.0696 24.4331 21.914 18.2421 
18.3833 16.0662 19.6399 17.5727 18.3006 19.9444 19.9444 22.6249 23.9116 
23.2098 22.6965 20.2663 21.2716 21.8236 27.9468 25.1754 35.1247 32.1542 
28.6274 26.1397 24.6071 18.9845 19.8695 18.2015 18.9009 18.1382 18.2624 
17.7424 17.7424 17.1928 21.1092 21.1092 23.9048 24.0082 24.0135 24.0135 
24.2252 21.5254 19.1629 19.1551 18.7066 19.6583 19.8975 20.3659 18.3876 
16.7646 20.3354 18.4374 17.0159 19.2204 18.1097 20.9739 22.2808 22.2808 
26.3659 25.0788 27.8004 13.5969 13.5969 28.0353 24.6999 27.5437 30.1764 
27.3316 28.4099 25.7308 20.4833 20.8115 18.0942 14.2615 27.7071 35.0836 
42.8608 8.29628 14.7917 21.5611 25.2015 24.4181 21.7569 16.334 14.8236 
14.8236 13.9188 14.3519 14.3519 29.5829 29.811 25.3572 21.4524 21.8753 
21.2837 25.0459 26.2378 27.7129 27.5689 22.7308 17.5882 16.3475 13.1315 
14.7492 17.0309 14.5998 14.1484 14.058 13.1319 19.2412 22.2378 26.9792 
29.3572 29.4906 27.4485 25.8927 31.0875 31.2349 29.7419 27.7018 26.2083 
23.5147 18.8526 18.0097 15.5317 14.0976 14.0976 13.9613 14.9763 15.8144 
15.4775 17.2982 17.0643 15.8642 15.8642 15.6689 16.392 17.3388 15.4688 
14.0029 17.507 17.6245 18.0068 16.6336 15.9149 15.4988 16.9879 20.0367 
20.0367 22.1319 21.7216 22.3847 21.5002 20.361 20.117 14.7965 15.028 
12.5109 11.5346 11.6839 10.0358 11.2006 9.8608 10.4611 11.5384 10.7453 
10.3117 9.31996 10.5007 11.4166 10.1189 12.5529 13.6477 13.6477 15.883 
16.1121 15.0367 14.0034 
rRFP 1 336 double
2375.84 2569.59 2563.77 2464.83 2489.42 2596.06 2861.79 2444.38 2677.52 
2260.65 2968.23 2385.06 2809.28 2369.42 2408.3 2760.19 2632.67 2917.53 
2594.98 2740.05 2729.41 2949.11 2550.67 2364.89 2419.23 2654.07 2498.36 
2871.91 2217.69 2738.47 2588.19 2621.46 2708.54 2578.65 2707.37 2391.27 
2456.78 2709.69 2605.84 2550.81 2561.93 2557.57 2571.27 2562.09 2579.31 
2579.31 2598.32 2619.85 2619.85 2603.19 2668.93 2645.12 2665.96 2654.99 
2721.74 2711.72 2824.64 2832.01 2861.63 2695.21 2606.46 2532.27 2525.59 
2526.85 2584.25 2603.8 2683.12 2524.98 2541.53 2581.32 2592.11 2592.11 
2615.04 2621.21 2601.77 2569.96 2567.06 2562.51 2569.42 2594.53 2621.53 
2577.38 2651.51 2693.01 2648.07 2741.46 2667.12 2554.79 2527.41 2338.42 
2724.9 2704.7 2677.79 2704.57 2646.79 2649.56 2778.23 2816.23 2824.67 
2891.16 2601.47 2537.93 2488.88 2441.59 2434.54 2457.98 2473.57 2555.31 
2556.79 2556.79 2474.94 2432.72 2569.38 2500.53 2462.79 2465.89 2508.21 
2951.79 2913.1 2819.63 2778.23 2725.28 2734.37 2798.19 2828.27 2993.31 
2498.36 2473.73 2474.51 2511.25 2585.05 2666.36 2620.41 2610.11 2555.33 
2565.46 2552.16 2549.47 2508.27 2575.98 2559.19 2520.04 2528.53 2659.83 
2715.6 2658.28 2668.19 2640.93 2609.37 2553.8 2902.1 2800.84 2733.26 
2742.58 2726.67 2717.1 2760.33 2770.01 2736.38 2702.52 2650.4 2574.43 
2577.35 2529.41 2603.35 2560.58 2575.64 2609.65 2609.65 2665.11 2691.73 
2677.21 2666.59 2616.31 2637.11 2648.53 2775.22 2717.88 2923.73 2862.27 
2789.3 2737.83 2706.12 2589.79 2608.1 2573.59 2588.06 2572.28 2574.85 
2564.09 2564.09 2552.72 2633.75 2633.75 2691.59 2693.73 2693.84 2693.84 
2698.22 2642.36 2593.48 2593.32 2584.04 2603.73 2608.68 2618.37 2577.44 
2543.86 2617.74 2578.47 2549.06 2594.67 2571.69 2630.95 2657.99 2657.99 
2742.51 2715.88 2772.19 2478.32 2478.32 2777.05 2708.04 2766.88 2821.35 
2762.49 2784.8 2729.37 2620.8 2627.59 2571.37 2492.07 2770.26 2922.88 
3083.79 2368.65 2503.04 2643.1 2718.42 2702.21 2647.15 2534.95 2503.7 
2503.7 2484.98 2493.94 2493.94 2809.07 2813.79 2721.64 2640.85 2649.6 
2637.36 2715.2 2739.86 2770.38 2767.4 2667.3 2560.9 2535.23 2468.69 
2502.16 2549.37 2499.07 2489.73 2487.86 2468.7 2595.1 2657.1 2755.2 
2804.4 2807.16 2764.91 2732.72 2840.2 2843.25 2812.36 2770.15 2739.25 
2683.52 2587.06 2569.62 2518.35 2488.68 2488.68 2485.86 2506.86 2524.2 
2517.23 2554.9 2550.06 2525.23 2525.23 2521.19 2536.15 2555.74 2517.05 
2486.72 2559.22 2561.65 2569.56 2541.15 2526.28 2517.67 2548.48 2611.56 
2611.56 2654.91 2646.42 2660.14 2641.84 2618.27 2613.22 2503.14 2507.93 
2455.85 2435.65 2438.74 2404.64 2428.74 2401.02 2413.44 2435.73 2419.32 
2410.35 2389.83 2414.26 2433.21 2406.36 2456.72 2479.37 2479.37 2525.62 
2530.36 2508.11 2486.73 
rGFP 1 336 double
2804.73 2960.09 2900.46 3134.31 3063.09 3060.51 3465.65 2710.32 3376.81 
2553.6 3342.9 2961.28 3200.37 3029.7 3078.57 3462.04 3074.15 3050.43 
3142.47 3046.49 3132.8 3614.32 3018.81 2630.83 2859.21 3041.9 2946 
3338.28 2445.88 3136.79 2819.52 3000.85 3139.26 2874.11 2818.3 2609.81 
2636.74 2850.25 2933.59 2929.46 2977.94 2952.8 2912.07 3039.64 2942.14 
2942.14 2890.42 2882.86 2882.86 2870.74 2934.31 2970.8 2986.74 3008.8 
3064.3 2998.65 3000.88 3063.09 3222.35 2935.37 2920.94 2918.75 2859.99 
2851.35 2849.3 2861.04 2844.35 2839.78 2867.8 2932.11 2957.02 2957.02 
3003.02 3096.79 3129.94 3093.51 3110.1 3109.8 3070.11 3075.33 3099.74 
2825.51 2851.59 2881.23 2887.31 3180.69 3022.42 2732.36 2738.33 2541.43 
3096.56 3087.63 3044.94 3078.47 3022.91 3048.01 3174.11 3229.1 3380.96 
3536.86 3051.51 2943.25 2899.32 2919.84 2972.68 2998.09 3062 3067.93 
3080.27 3080.27 3016.19 2892.23 2940.3 2848.8 2794.05 2803.51 2864.88 
3424.47 3455.17 3525.17 3587.79 3564.49 3464.1 3488.33 3494.86 3543.7 
2946 3010.47 2996.98 3022.6 3036.37 3050.17 2910.89 2919.12 3045.16 
3050.88 3004.25 3038.59 3130.1 3066.98 3164.96 3236.62 3327.01 3215.56 
3144.52 3282.52 3028.35 2930.44 2945.44 2834.91 3595.04 3510.93 3389.36 
3263.32 3063.95 3075.83 3109.19 3188.57 3190.7 3067.27 3087.83 3057.06 
3093.83 3186.19 3187.38 3181.14 3220.43 3362.12 3362.12 3318.04 3279.2 
3319.58 3250.81 3254.86 3288 3324.8 3203.37 3246.15 3101.38 3114.63 
3258.95 3268.8 3374.62 3135.51 3167.52 3365.77 3325.63 3334.2 3328.8 
3332.94 3332.94 3306.78 3241.78 3241.78 3238.33 3209.63 3240.85 3240.85 
3144.32 3107.78 3112.57 3129.46 3310.98 3450.47 3416.33 3539.54 3434.15 
3412.16 3263.96 3329.59 3357.1 3299 3341.38 3221.21 3255.73 3255.73 
3399.84 3452.48 3434.68 3218.33 3218.33 3525.74 3569.36 3526.12 3708.67 
3859.38 3804.91 3806.01 3841.85 3682.33 3358.05 3152.69 3286.04 3329.6 
3460.32 2736.98 2913.1 3320.79 3338.83 3374.9 3297.26 3328.09 3188.33 
3188.33 3152.25 3086.77 3086.77 3439.91 3431.81 3458.72 3479.77 3447.74 
3386.47 3241.83 3151.16 3131.8 3178.46 3026.25 3084.83 3075.07 3063.43 
3086.01 3181.17 3174.02 3038.06 3014.37 3140.31 2971.48 2997.54 2989.68 
3090.8 3214.99 3247.19 3331.83 3322.95 3307.7 3278.3 3138.9 3199.07 
3151.33 3002.44 3066.96 2987.16 3027.95 3027.95 2986.1 2988.48 2927.21 
2958.07 2974.73 2972.32 2937.04 2937.04 2922.73 2961.69 2949.1 2985.85 
2946.2 2956.17 2966.15 2931.21 2880.43 2962.83 2919.94 2960.62 3055.1 
3055.1 2993 2990.12 2901.74 2883.37 2795.94 2831.74 2831.95 2809.7 
2833 2863.51 2896.44 2952.89 3008.81 3012.52 2989.11 2990.43 2990.2 
2959.04 2959.54 2881.84 2850.42 2833.73 2898.32 2949.62 2949.62 3000.94 
3034.06 2986.6 2967.63 
bkstRFP 1 336 double
178.84 372.59 366.77 267.83 292.42 399.06 664.79 247.38 480.52 
63.65 771.23 188.06 612.28 172.42 211.3 563.19 435.67 720.53 
397.98 543.05 532.41 752.11 353.67 167.89 222.23 457.07 301.36 
674.91 20.69 541.47 391.19 424.46 511.54 381.65 510.37 194.27 
259.78 512.69 408.84 353.81 364.93 360.57 374.27 365.09 382.31 
382.31 401.32 422.85 422.85 406.19 471.93 448.12 468.96 457.99 
524.74 514.72 627.64 635.01 664.63 498.21 409.46 335.27 328.59 
329.85 387.25 406.8 486.12 327.98 344.53 384.32 395.11 395.11 
418.04 424.21 404.77 372.96 370.06 365.51 372.42 397.53 424.53 
380.38 454.51 496.01 451.07 544.46 470.12 357.79 330.41 141.42 
527.9 507.7 480.79 507.57 449.79 452.56 581.23 619.23 627.67 
694.16 404.47 340.93 291.88 244.59 237.54 260.98 276.57 358.31 
359.79 359.79 277.94 235.72 372.38 303.53 265.79 268.89 311.21 
754.79 716.1 622.63 581.23 528.28 537.37 601.19 631.27 796.31 
301.36 276.73 277.51 314.25 388.05 469.36 423.41 413.11 358.33 
368.46 355.16 352.47 311.27 378.98 362.19 323.04 331.53 462.83 
518.6 461.28 471.19 443.93 412.37 356.8 705.1 603.84 536.26 
545.58 529.67 520.1 563.33 573.01 539.38 505.52 453.4 377.43 
380.35 332.41 406.35 363.58 378.64 412.65 412.65 468.11 494.73 
480.21 469.59 419.31 440.11 451.53 578.22 520.88 726.73 665.27 
592.3 540.83 509.12 392.79 411.1 376.59 391.06 375.28 377.85 
367.09 367.09 355.72 436.75 436.75 494.59 496.73 496.84 496.84 
501.22 445.36 396.48 396.32 387.04 406.73 411.68 421.37 380.44 
346.86 420.74 381.47 352.06 397.67 374.69 433.95 460.99 460.99 
545.51 518.88 575.19 281.32 281.32 580.05 511.04 569.88 624.35 
565.49 587.8 532.37 423.8 430.59 374.37 295.07 573.26 725.88 
886.79 171.65 306.04 446.1 521.42 505.21 450.15 337.95 306.7 
306.7 287.98 296.94 296.94 612.07 616.79 524.64 443.85 452.6 
440.36 518.2 542.86 573.38 570.4 470.3 363.9 338.23 271.69 
305.16 352.37 302.07 292.73 290.86 271.7 398.1 460.1 558.2 
607.4 610.16 567.91 535.72 643.2 646.25 615.36 573.15 542.25 
486.52 390.06 372.62 321.35 291.68 291.68 288.86 309.86 327.2 
320.23 357.9 353.06 328.23 328.23 324.19 339.15 358.74 320.05 
289.72 362.22 364.65 372.56 344.15 329.28 320.67 351.48 414.56 
414.56 457.91 449.42 463.14 444.84 421.27 416.22 306.14 310.93 
258.85 238.65 241.74 207.64 231.74 204.02 216.44 238.73 222.32 
213.35 192.83 217.26 236.21 209.36 259.72 282.37 282.37 328.62 
333.36 311.11 289.73 
bkstGFP 1 336 double
565.003 720.363 660.733 894.583 823.363 820.783 1225.92 470.593 1137.08 
313.873 1103.17 721.553 960.643 789.973 838.843 1222.31 834.423 810.703 
902.743 806.763 893.073 1374.59 779.083 391.103 619.483 802.173 706.273 
1098.55 206.153 897.063 579.793 761.123 899.533 634.383 578.573 370.083 
397.013 610.523 693.863 689.733 738.213 713.073 672.343 799.913 702.413 
702.413 650.693 643.133 643.133 631.013 694.583 731.073 747.013 769.073 
824.573 758.923 761.153 823.363 982.623 695.643 681.213 679.023 620.263 
611.623 609.573 621.313 604.623 600.053 628.073 692.383 717.293 717.293 
763.293 857.063 890.213 853.783 870.373 870.073 830.383 835.603 860.013 
585.783 611.863 641.503 647.583 940.963 782.693 492.633 498.603 301.703 
856.833 847.903 805.213 838.743 783.183 808.283 934.383 989.373 1141.23 
1297.13 811.783 703.523 659.593 680.113 732.953 758.363 822.273 828.203 
840.543 840.543 776.463 652.503 700.573 609.073 554.323 563.783 625.153 
1184.74 1215.44 1285.44 1348.06 1324.76 1224.37 1248.6 1255.13 1303.97 
706.273 770.743 757.253 782.873 796.643 810.443 671.163 679.393 805.433 
811.153 764.523 798.863 890.373 827.253 925.233 996.893 1087.28 975.833 
904.793 1042.79 788.623 690.713 705.713 595.183 1355.31 1271.2 1149.63 
1023.59 824.223 836.103 869.463 948.843 950.973 827.543 848.103 817.333 
854.103 946.463 947.653 941.413 980.703 1122.39 1122.39 1078.31 1039.47 
1079.85 1011.08 1015.13 1048.27 1085.07 963.643 1006.42 861.653 874.903 
1019.22 1029.07 1134.89 895.783 927.793 1126.04 1085.9 1094.47 1089.07 
1093.21 1093.21 1067.05 1002.05 1002.05 998.603 969.903 1001.12 1001.12 
904.593 868.053 872.843 889.733 1071.25 1210.74 1176.6 1299.81 1194.42 
1172.43 1024.23 1089.86 1117.37 1059.27 1101.65 981.483 1016 1016 
1160.11 1212.75 1194.95 978.603 978.603 1286.01 1329.63 1286.39 1468.94 
1619.65 1565.18 1566.28 1602.12 1442.6 1118.32 912.963 1046.31 1089.87 
1220.59 497.253 673.373 1081.06 1099.1 1135.17 1057.53 1088.36 948.603 
948.603 912.523 847.043 847.043 1200.18 1192.08 1218.99 1240.04 1208.01 
1146.74 1002.1 911.433 892.073 938.733 786.523 845.103 835.343 823.703 
846.283 941.443 934.293 798.333 774.643 900.583 731.753 757.813 749.953 
851.073 975.263 1007.46 1092.1 1083.22 1067.97 1038.57 899.173 959.343 
911.603 762.713 827.233 747.433 788.223 788.223 746.373 748.753 687.483 
718.343 735.003 732.593 697.313 697.313 683.003 721.963 709.373 746.123 
706.473 716.443 726.423 691.483 640.703 723.103 680.213 720.893 815.373 
815.373 753.273 750.393 662.013 643.643 556.213 592.013 592.223 569.973 
593.273 623.783 656.713 713.163 769.083 772.793 749.383 750.703 750.473 
719.313 719.813 642.113 610.693 594.003 658.593 709.893 709.893 761.213 
794.333 746.873 727.903 
tubeWidth 1 336 double
0.129826 0.193462 0.218664 0.194063 0.110062 0.230775 0.26493 0.230448 0.113054 
0.0196959 0.23276 0.134738 0.154966 0.0097731 0.150241 0.195656 0.262812 0.285253 
0.244415 0.263186 0.15844 0.204567 0.243932 0.117037 0.148585 0.209142 0.198991 
0.260267 0.0235785 0.165306 0.253616 0.13523 0.15645 0.148925 0.250762 0.011567 