# vtk DataFile Version 3.0
vtk output
ASCII
DATASET POLYDATA
POINTS 212 float
-0.0788481 0.01381 0.549142 1.61161 -0.525264 0.853515 0.592979 -0.338324 0.646779 
0.20044 0.134151 0.504042 -0.884075 -0.323178 0.323878 0.0636555 -0.181199 0.234581 
-0.622116 -0.16996 -0.0549718 -0.0603095 0.864645 -0.645449 2.59093 1.8432 -0.765775 
4.48166 0.215192 -0.6394 4.23008 0.130243 -0.666727 5.14608 0.618836 -0.778847 
4.71847 0.379153 -0.820127 4.06635 0.29394 -0.898281 3.96802 0.01457 -0.895615 
2.92454 1.56005 -1.11187 5.78595 0.251879 -0.879625 5.11028 0.770151 -0.993492 
3.78578 -0.280602 -1.10464 3.79113 -0.221422 -1.03987 3.82232 -0.161484 -0.979334 
3.86709 -0.1018 -0.932027 3.91657 -0.0432199 -0.906492 5.13896 0.722254 -0.890041 
5.14646 0.67161 -0.819051 5.73088 0.263274 -0.887232 5.67523 0.289792 -0.895735 
5.61977 0.311153 -0.903932 5.56404 0.339596 -0.912548 5.50758 0.36339 -0.913525 
5.44952 0.404519 -0.908174 5.39015 0.45601 -0.896072 5.3317 0.507104 -0.891301 
5.27271 0.548731 -0.878616 5.21151 0.57635 -0.843009 2.97914 1.56044 -1.10496 
3.03421 1.54904 -1.09735 3.09033 1.51063 -1.08814 3.14691 1.46033 -1.07824 
3.20357 1.40811 -1.06821 3.26012 1.35577 -1.0582 3.31487 1.30335 -1.0484 
3.35972 1.25047 -1.03984 3.38954 1.19689 -1.03315 3.43438 1.14401 -1.02459 
3.48902 1.09158 -1.01481 3.54366 1.03916 -1.00504 3.5884 0.986269 -0.99649 
3.61631 0.932602 -0.990038 3.64933 0.879173 -0.982948 3.67714 0.825501 -0.976508 
3.71996 0.772526 -0.968201 3.76278 0.71955 -0.959893 3.79057 0.665878 -0.953455 
3.8236 0.612449 -0.946365 3.8514 0.558776 -0.939926 3.89422 0.505802 -0.931618 
3.93715 0.452831 -0.923298 3.96687 0.399248 -0.91662 4.01171 0.346367 -0.90806 
4.01567 -0.0181126 -0.820492 4.06324 -0.0241087 -0.754307 4.11233 -0.00591448 -0.704201 
4.16668 0.0480651 -0.677798 3.96598 0.0694372 -0.898848 3.96587 0.124393 -0.901843 
3.97756 0.179898 -0.903368 4.0161 0.236647 -0.901553 4.1191 0.242911 -0.851428 
4.17214 0.189763 -0.774522 4.77291 0.383717 -0.813464 4.8279 0.397848 -0.814732 
4.88315 0.428519 -0.824332 4.93953 0.453745 -0.840973 4.99378 0.486848 -0.843363 
5.04636 0.515701 -0.830774 5.09641 0.562286 -0.804515 4.30986 0.147034 -0.65751 
4.37328 0.156632 -0.64998 4.42859 0.173727 -0.643888 2.53587 1.8545 -0.773377 
2.48029 1.87908 -0.781765 2.4253 1.88844 -0.789252 2.37071 1.88784 -0.796149 
2.31618 1.88542 -0.802939 2.26166 1.88289 -0.809722 2.20714 1.88036 -0.816506 
2.15262 1.87783 -0.823289 2.09809 1.8753 -0.830072 2.04357 1.87277 -0.836856 
1.98905 1.87024 -0.843639 1.93453 1.86771 -0.850423 1.88001 1.86518 -0.857206 
1.82549 1.86266 -0.863989 1.77097 1.86013 -0.870773 1.71551 1.858 -0.870216 
1.6582 1.85666 -0.854988 1.59809 1.85652 -0.817749 1.53705 1.85677 -0.773159 
1.47694 1.85663 -0.73592 1.41963 1.85519 -0.720685 1.36425 1.85113 -0.720014 
1.31019 1.83671 -0.726094 1.25579 1.80747 -0.723933 1.19902 1.79231 -0.707887 
1.13852 1.77863 -0.662482 1.07582 1.75104 -0.594163 1.01105 1.7295 -0.511494 
0.948343 1.70202 -0.443181 0.887774 1.69016 -0.397885 0.830613 1.68487 -0.382422 
0.774772 1.6692 -0.3737 0.719907 1.62857 -0.363511 0.664113 1.58824 -0.345975 
0.609275 1.57035 -0.344486 0.556233 1.55339 -0.357779 0.506571 1.52022 -0.392195 
0.456706 1.49221 -0.426907 0.407115 1.45723 -0.461216 0.354462 1.4303 -0.473919 
0.300213 1.39731 -0.471536 0.243834 1.37197 -0.454888 0.188659 1.33927 -0.445167 
0.13515 1.31081 -0.450416 0.0852037 1.26423 -0.476661 0.0402495 1.20647 -0.524096 
0.00631093 1.14695 -0.577529 -0.0116502 1.0884 -0.621495 -0.0361664 1.02894 -0.643814 
-0.0490591 0.959091 -0.649143 -0.128491 0.855638 -0.750829 -0.183602 0.847073 -0.824651 
-0.23329 0.829054 -0.859892 -0.273426 0.785739 -0.870118 -0.29806 0.732115 -0.862857 
-0.329497 0.677127 -0.841435 -0.356794 0.623546 -0.797133 -0.391954 0.570041 -0.746343 
-0.422096 0.516769 -0.694939 -0.468139 0.462318 -0.65297 -0.525017 0.407805 -0.604892 
-0.582717 0.353695 -0.54946 -0.629642 0.300527 -0.485231 -0.650762 0.248996 -0.410346 
-0.662704 0.198333 -0.326852 -0.681741 0.147781 -0.236804 -0.703933 0.0962012 -0.162042 
-0.693293 0.0448208 -0.105564 -0.683944 -0.00838426 -0.0790613 -0.678898 -0.0626704 -0.0679969 
-0.662908 -0.11689 -0.0630273 -0.0546814 0.777157 -0.535308 -0.0448585 0.714094 -0.440909 
-0.012628 0.663 -0.359265 0.019826 0.613403 -0.285164 0.0265007 0.563163 -0.20681 
0.0215093 0.513263 -0.115005 0.0245588 0.464617 -0.00729715 0.055274 0.416815 0.0964065 
0.100492 0.368362 0.179546 0.148235 0.31878 0.24313 0.184014 0.267795 0.312751 
0.194698 0.208947 0.39955 -0.562431 -0.20588 -0.0753589 -0.50225 -0.207563 -0.11249 
-0.443193 -0.180419 -0.151337 -0.386878 -0.153468 -0.168081 -0.337671 -0.108629 -0.134356 
-0.29432 -0.0646241 -0.0512276 -0.252839 -0.0498203 0.0938154 -0.190943 -0.0424636 0.29793 
-0.679694 -0.211537 -0.0226346 -0.742445 -0.237847 0.0455991 -0.811124 -0.276575 0.166105 
-0.00969545 -0.121979 0.394791 0.108209 -0.228359 0.340006 0.156486 -0.277002 0.416064 
0.210274 -0.326106 0.447994 0.267328 -0.365012 0.449866 0.325263 -0.379537 0.435576 
0.38126 -0.39134 0.435844 0.435322 -0.415109 0.456452 0.485597 -0.41947 0.505448 
0.536593 -0.397047 0.570527 0.0752971 -0.116016 0.385813 0.0353975 -0.0519984 0.491692 
0.27741 0.1108 0.549965 0.336193 0.0700045 0.59703 0.375132 0.0207083 0.647024 
0.387933 -0.0310901 0.693825 0.400356 -0.0828289 0.743079 0.439798 -0.134413 0.7783 
0.494385 -0.18879 0.778204 0.54959 -0.253953 0.728923 0.0878485 0.0681088 0.533953 
0.671805 -0.39866 0.69246 0.733613 -0.441585 0.732545 0.786481 -0.463773 0.772863 
0.836308 -0.487798 0.827845 0.884781 -0.494592 0.886718 0.933865 -0.493526 0.937752 
0.986061 -0.501803 0.967256 1.04164 -0.526286 0.975638 1.09849 -0.536552 0.968461 
1.15595 -0.539067 0.953461 1.2128 -0.549234 0.946268 1.27017 -0.572568 0.939863 
1.32748 -0.571232 0.924626 1.38568 -0.545625 0.893244 1.4444 -0.533295 0.862637 
1.50164 -0.530034 0.847295 1.55709 -0.527793 0.846732 
LINES 20 253
6 18 19 20 21 22 14 
4 17 23 24 11 
12 16 25 26 27 28 29 30 31 32 33 34 11 
27 15 35 36 37 38 39 40 41 42 43 44 45 46 47 48 49 50 51 52 53 54 55 56 57 58 59 13 
6 14 60 61 62 63 10 
6 14 64 65 66 67 13 
4 13 68 69 10 
9 12 70 71 72 73 74 75 76 11 
5 10 77 78 79 9 
52 8 80 81 82 83 84 85 86 87 88 89 90 91 92 93 94 95 96 97 98 99 100 101 102 103 104 105 106 107 108 109 110 111 112 113 114 115 116 117 118 119 120 121 122 123 124 125 126 127 128 129 7 
23 7 130 131 132 133 134 135 136 137 138 139 140 141 142 143 144 145 146 147 148 149 150 6 
14 7 151 152 153 154 155 156 157 158 159 160 161 162 3 
10 6 163 164 165 166 167 168 169 170 0 
5 6 171 172 173 4 
3 0 174 5 
11 5 175 176 177 178 179 180 181 182 183 2 
4 5 184 185 0 
10 3 186 187 188 189 190 191 192 193 2 
3 0 194 3 
19 2 195 196 197 198 199 200 201 202 203 204 205 206 207 208 209 210 211 1 

POINT_DATA 212
SCALARS DY_raw double
LOOKUP_TABLE default
29.1117 24.5618 26.98 30.6234 0 18.8515 23.628 36.9925 34.5991 
91.5732 56.4928 34.3418 53.4597 53.8273 54.1943 28.5505 25.724 32.4776 
56.7308 56.9698 52.7766 57.0639 59.5452 38.8307 33.6596 25.724 23.5287 
25.8409 25.8409 35.9403 36.7001 40.9014 34.6353 26.6734 27.7815 27.8 
27.8 28.1665 28.5395 28.5395 29.009 26.5821 28.8852 30.0205 35.3489 
35.3489 32.6385 40.102 44.259 48.534 51.4574 58.8989 60.7215 61.2911 
66.5548 71.8826 77.3359 61.7618 52.464 53.7847 58.6478 55.7731 57.325 
60.0365 59.3037 59.3037 53.1132 55.1354 49.7384 47.7041 45.497 42.7016 
42.7016 37.0457 39.527 32.223 27.8822 64.4918 56.1517 63.2241 28.2646 
25.8567 25.8567 28.1984 28.1984 31.284 31.6478 31.6478 37.6156 39.465 
39.465 45.3617 42.4544 42.4544 33.6085 33.6085 29.3396 27.4746 31.3488 
33.0783 34.3875 37.4694 33.343 29.405 29.405 26.1142 25.5202 31.288 
29.8418 32.6869 28.4846 24.8727 24.8727 26.0045 26.8249 27.9256 24.835 
19.9512 19.6351 17.3224 19.2845 36.0165 45.9949 52.1355 42.2288 30.7135 
25.8256 33.4877 35.7614 41.011 34.9916 33.4666 31.1582 34.4137 45.1483 
45.1483 43.9785 55.9377 56.8692 47.7841 31.6787 32.0146 28.5547 28.064 
26.5464 24.6363 23.9892 23.6663 23.512 24.5731 18.8965 40.1036 40.1174 
38.7832 36.1562 39.1188 35.8061 25.7898 32.4062 23.6371 22.4633 22.6652 
28.8388 23.628 27.7894 41.4916 33.017 33.2425 24.5612 30.5393 40.0359 
19.885 16.0332 17.7301 25.6196 26.1808 28.0029 29.5753 30.9331 32.4745 
26.5002 32.1548 29.5441 29.1076 24.0125 28.5724 36.6682 43.3703 52.2748 
52.2748 45.2098 41.9221 39.7773 33.8547 27.5039 24.2709 24.5367 25.4731 
23.9454 26.8491 29.9555 29.9555 35.0378 42.1635 52.6479 49.9113 33.1453 
33.1453 29.0661 28.6379 28.6379 24.648 
FIELD FieldData 7
DY_minmax 1 212 double
0.317906 0.26822 0.294628 0.334415 0 0.205863 0.258023 0.403966 0.37783 
1 0.616915 0.37502 0.583793 0.587806 0.591814 0.311778 0.280912 0.354663 
0.619514 0.622123 0.576333 0.62315 0.650248 0.42404 0.36757 0.280912 0.256938 
0.282188 0.282188 0.392476 0.400773 0.446653 0.378225 0.29128 0.30338 0.303583 
0.303583 0.307585 0.311658 0.311658 0.316784 0.290282 0.315433 0.327831 0.386018 
0.386018 0.356419 0.437923 0.483318 0.530002 0.561926 0.64319 0.663093 0.669312 
0.726793 0.784974 0.844526 0.674453 0.572918 0.587341 0.640447 0.609055 0.626002 
0.655613 0.64761 0.64761 0.580008 0.602091 0.543155 0.520939 0.496838 0.466312 
0.466312 0.404547 0.431644 0.351882 0.30448 0.704266 0.613189 0.690422 0.308656 
0.282361 0.282361 0.307933 0.307933 0.341629 0.345601 0.345601 0.410771 0.430966 
0.430966 0.49536 0.463611 0.463611 0.367012 0.367012 0.320395 0.300029 0.342336 
0.361223 0.37552 0.409175 0.364114 0.321109 0.321109 0.285173 0.278686 0.341673 
0.325879 0.356949 0.311058 0.271615 0.271615 0.283975 0.292934 0.304953 0.271204 
0.217872 0.21442 0.189165 0.210591 0.393308 0.502275 0.569332 0.461148 0.335398 
0.282021 0.365693 0.390522 0.447849 0.382116 0.365462 0.340254 0.375805 0.49303 
0.49303 0.480255 0.610852 0.621024 0.521813 0.345939 0.349607 0.311824 0.306465 
0.289892 0.269034 0.261967 0.258441 0.256757 0.268344 0.206354 0.43794 0.438092 
0.423521 0.394834 0.427186 0.39101 0.281631 0.353883 0.258123 0.245304 0.247509 
0.314926 0.258023 0.303467 0.453098 0.360553 0.363015 0.268214 0.333496 0.437201 
0.217149 0.175086 0.193616 0.279772 0.2859 0.305798 0.322969 0.337796 0.354629 
0.289388 0.351138 0.322629 0.317861 0.262222 0.312018 0.400425 0.473614 0.570852 
0.570852 0.493701 0.457799 0.434377 0.369701 0.300349 0.265044 0.267947 0.278173 
0.261489 0.293198 0.32712 0.32712 0.38262 0.460435 0.574927 0.545043 0.361954 
0.361954 0.317408 0.312733 0.312733 0.269162 
WidthEq 1 212 double
5.86534 2.85851 4.9544 6.44539 1 6.62335 4.91324 4.20707 2.46307 
2.47682 4.96806 5.5067 3.70541 5.34822 4.7446 3.80309 7.88951 5.36 
3.68935 3.73444 4.14824 4.42276 4.21108 5.24404 5.76894 7.88951 7.63069 
7.4448 7.4448 5.87892 5.57655 5.30715 5.80275 6.35351 5.98924 4.88848 
4.88848 5.91589 6.10102 6.10102 5.97677 5.73845 5.76765 5.65579 5.71984 
5.71984 5.14363 4.82469 4.6499 4.02604 4.04995 3.51823 3.4179 3.32593 
3.3676 3.06319 2.87499 3.52839 4.39006 4.4284 4.5272 4.41072 4.28051 
4.72479 5.12228 5.12228 5.00478 5.4261 5.54863 5.44838 4.66228 5.68081 
5.68081 6.2431 6.08419 6.69584 6.67774 4.53608 4.33985 3.75126 4.48476 
5.18589 5.18589 5.05064 5.05064 4.64358 3.92887 3.92887 3.87738 3.86799 
3.86799 3.80343 3.80762 3.80762 3.96448 3.96448 4.14696 4.94057 4.8726 
4.85484 4.77295 4.57706 4.87328 5.1379 5.1379 5.53531 5.80403 5.24609 
5.96747 5.62702 5.68483 5.84698 5.84698 5.12527 5.14559 4.8375 5.04611 
4.40475 4.63914 4.16455 4.54043 4.96772 4.53898 4.37418 4.72308 4.73896 
5.05081 5.00213 4.89215 4.87089 4.77201 5.45111 6.20126 6.02639 5.42191 
5.42191 4.67706 3.7481 4.07215 4.43139 5.25779 5.40628 5.85262 5.60755 
5.47118 4.87858 4.63709 4.58458 4.84263 5.12023 5.65238 4.09914 3.67022 
3.55025 3.23098 3.36897 3.30279 3.64213 3.77799 4.57459 5.27171 6.17599 
6.66151 4.91324 4.3495 2.75766 2.85065 2.8241 3.14602 3.95064 4.27991 
4.96303 3.34993 2.07275 6.47238 7.87448 7.09248 6.4547 5.35317 4.97805 
4.63581 4.65281 4.6879 4.82589 7.35949 6.75476 6.10093 4.96883 3.75305 
3.75305 3.46341 3.16181 3.66792 4.32909 6.9281 4.94296 4.88003 4.75442 
4.26095 3.80087 2.95005 2.95005 2.83494 3.16506 2.88976 3.31108 4.49808 
4.49808 5.21501 5.03074 5.03074 3.81897 
rRFP 1 212 double
2934.14 2582.01 2827.46 3002.07 2364.36 3022.91 2822.64 2739.94 2535.7 
2537.31 2829.06 2892.14 2681.19 2873.58 2802.89 2692.63 3171.19 2874.96 
2679.31 2684.59 2733.05 2765.2 2740.41 2861.38 2922.85 3171.19 3140.88 
3119.11 3119.11 2935.73 2900.32 2868.77 2926.81 2991.31 2948.65 2819.74 
2819.74 2940.06 2961.74 2961.74 2947.19 2919.28 2922.7 2909.6 2917.1 
2917.1 2849.62 2812.27 2791.8 2718.74 2721.54 2659.27 2647.52 2636.75 
2641.63 2605.98 2583.94 2660.46 2761.37 2765.86 2777.43 2763.79 2748.54 
2800.57 2847.12 2847.12 2833.36 2882.7 2897.05 2885.31 2793.25 2912.53 
2912.53 2978.38 2959.77 3031.4 3029.28 2778.47 2755.49 2686.56 2772.46 
2854.57 2854.57 2838.73 2838.73 2791.06 2707.36 2707.36 2701.33 2700.23 
2700.23 2692.67 2693.16 2693.16 2711.53 2711.53 2732.9 2825.84 2817.88 
2815.8 2806.21 2783.27 2817.96 2848.95 2848.95 2895.49 2926.96 2861.62 
2946.1 2906.23 2913 2931.99 2931.99 2847.47 2849.85 2813.77 2838.2 
2763.09 2790.54 2734.96 2778.98 2829.02 2778.81 2759.51 2800.37 2802.23 
2838.75 2833.05 2820.17 2817.68 2806.1 2885.63 2973.48 2953 2882.21 
2882.21 2794.98 2686.19 2724.14 2766.21 2862.99 2880.38 2932.65 2903.95 
2887.98 2818.58 2790.3 2784.15 2814.37 2846.88 2909.2 2727.3 2677.07 
2663.02 2625.63 2641.79 2634.04 2673.78 2689.69 2782.98 2864.62 2970.52 
3027.38 2822.64 2756.62 2570.2 2581.09 2577.98 2615.68 2709.91 2748.47 
2828.47 2639.56 2489.99 3005.23 3169.43 3077.85 3003.16 2874.16 2830.23 
2790.15 2792.14 2796.25 2812.41 3109.12 3038.3 2961.73 2829.15 2686.77 
2686.77 2652.85 2617.53 2676.8 2754.23 3058.6 2826.12 2818.75 2804.04 
2746.25 2692.37 2592.73 2592.73 2579.25 2617.91 2585.67 2635.01 2774.02 
2774.02 2857.98 2836.4 2836.4 2694.49 
rGFP 1 212 double
2651.68 2551.14 2614.6 2678.31 2480.93 2605.79 2597.02 2636.56 2566.15 
2707.74 2761.59 2670.04 2679.02 2768.81 2738.06 2589.51 2683.88 2655.01 
2690.23 2693.68 2699.86 2733.31 2731.68 2684.56 2675.11 2683.88 2660.47 
2673.31 2673.31 2692.22 2685.59 2698 2681.91 2650.4 2647.32 2616.83 
2616.83 2647.56 2655.05 2655.05 2654.31 2633.47 2647.53 2650.72 2683.12 
2683.12 2648.81 2674.41 2686.73 2676.33 2689.33 2688.15 2688.47 2684.78 
2705.06 2701.12 2703.27 2698.85 2711.25 2719.11 2746.44 2726.93 2726.31 
2764.59 2784.7 2784.7 2746.75 2780.1 2756.91 2740.84 2693.05 2723.51 
2723.51 2712.21 2721.42 2696.69 2667.12 2773.47 2724.62 2718.1 2607.69 
2615.02 2615.02 2623.35 2623.35 2626.2 2605.27 2605.27 2626.78 2633.58 
2633.58 2653.46 2642.58 2642.58 2614.17 2614.17 2602.6 2616.67 2633.68 
2641.52 2645.06 2652.43 2643.42 2632.01 2632.01 2625.48 2629.05 2645.07 
2659.01 2664.86 2642.86 2626.36 2626.36 2614.21 2618.96 2616.02 2606.25 
2568.81 2572.02 2553.07 2568.49 2659.85 2689.7 2708.98 2680.38 2626.48 
2611.37 2648.44 2655.88 2680.69 2647.91 2663.36 2674.15 2688.32 2725.72 
2725.72 2686.62 2690.59 2712.51 2692.68 2647.49 2654.01 2648.05 2638.3 
2626.17 2601.12 2592.17 2589.43 2594.79 2606.75 2587.74 2645.32 2628.17 
2618.62 2597.75 2612.72 2599.19 2574.86 2603.36 2589.06 2599.35 2620.91 
2673.04 2597.02 2601.8 2595.35 2575.05 2574.81 2558.2 2601.58 2652.28 
2579.62 2534.64 2517.68 2646.75 2687.09 2679.54 2671.83 2646.52 2642.59 
2603.78 2630.54 2619.43 2621.4 2657.65 2673.93 2704.64 2696.43 2677.12 
2677.12 2637.51 2613.48 2626.83 2627.49 2671.48 2600.9 2600.67 2602.04 
2582.96 2582.98 2569.3 2569.3 2580.26 2614.38 2633.07 2646.19 2630.02 
2630.02 2632.51 2625 2625 2575.06 
bkstRFP 1 212 double
686.89 334.76 580.21 754.82 117.11 775.66 575.39 492.69 288.45 
290.06 581.81 644.89 433.94 626.33 555.64 445.38 923.94 627.71 
432.06 437.34 485.8 517.95 493.16 614.13 675.6 923.94 893.63 
871.86 871.86 688.48 653.07 621.52 679.56 744.06 701.4 572.49 
572.49 692.81 714.49 714.49 699.94 672.03 675.45 662.35 669.85 
669.85 602.37 565.02 544.55 471.49 474.29 412.02 400.27 389.5 
394.38 358.73 336.69 413.21 514.12 518.61 530.18 516.54 501.29 
553.32 599.87 599.87 586.11 635.45 649.8 638.06 546 665.28 
665.28 731.13 712.52 784.15 782.03 531.22 508.24 439.31 525.21 
607.32 607.32 591.48 591.48 543.81 460.11 460.11 454.08 452.98 
452.98 445.42 445.91 445.91 464.28 464.28 485.65 578.59 570.63 
568.55 558.96 536.02 570.71 601.7 601.7 648.24 679.71 614.37 
698.85 658.98 665.75 684.74 684.74 600.22 602.6 566.52 590.95 
515.84 543.29 487.71 531.73 581.77 531.56 512.26 553.12 554.98 
591.5 585.8 572.92 570.43 558.85 638.38 726.23 705.75 634.96 
634.96 547.73 438.94 476.89 518.96 615.74 633.13 685.4 656.7 
640.73 571.33 543.05 536.9 567.12 599.63 661.95 480.05 429.82 
415.77 378.38 394.54 386.79 426.53 442.44 535.73 617.37 723.27 
780.13 575.39 509.37 322.95 333.84 330.73 368.43 462.66 501.22 
581.22 392.31 242.74 757.98 922.18 830.6 755.91 626.91 582.98 
542.9 544.89 549 565.16 861.87 791.05 714.48 581.9 439.52 
439.52 405.6 370.28 429.55 506.98 811.35 578.87 571.5 556.79 
499 445.12 345.48 345.48 332 370.66 338.42 387.76 526.77 
526.77 610.73 589.15 589.15 447.24 
bkstGFP 1 212 double
170.75 70.21 133.67 197.38 0 124.86 116.09 155.63 85.22 
226.81 280.66 189.11 198.09 287.88 257.13 108.58 202.95 174.08 
209.3 212.75 218.93 252.38 250.75 203.63 194.18 202.95 179.54 
192.38 192.38 211.29 204.66 217.07 200.98 169.47 166.39 135.9 
135.9 166.63 174.12 174.12 173.38 152.54 166.6 169.79 202.19 
202.19 167.88 193.48 205.8 195.4 208.4 207.22 207.54 203.85 
224.13 220.19 222.34 217.92 230.32 238.18 265.51 246 245.38 
283.66 303.77 303.77 265.82 299.17 275.98 259.91 212.12 242.58 
242.58 231.28 240.49 215.76 186.19 292.54 243.69 237.17 126.76 
134.09 134.09 142.42 142.42 145.27 124.34 124.34 145.85 152.65 
152.65 172.53 161.65 161.65 133.24 133.24 121.67 135.74 152.75 
160.59 164.13 171.5 162.49 151.08 151.08 144.55 148.12 164.14 
178.08 183.93 161.93 145.43 145.43 133.28 138.03 135.09 125.32 
87.88 91.09 72.14 87.56 178.92 208.77 228.05 199.45 145.55 
130.44 167.51 174.95 199.76 166.98 182.43 193.22 207.39 244.79 
244.79 205.69 209.66 231.58 211.75 166.56 173.08 167.12 157.37 
145.24 120.19 111.24 108.5 113.86 125.82 106.81 164.39 147.24 
137.69 116.82 131.79 118.26 93.93 122.43 108.13 118.42 139.98 
192.11 116.09 120.87 114.42 94.12 93.88 77.27 120.65 171.35 
98.69 53.71 36.75 165.82 206.16 198.61 190.9 165.59 161.66 
122.85 149.61 138.5 140.47 176.72 193 223.71 215.5 196.19 
196.19 156.58 132.55 145.9 146.56 190.55 119.97 119.74 121.11 
102.03 102.05 88.37 88.37 99.33 133.45 152.14 165.26 149.09 
149.09 151.58 144.07 144.07 94.13 
tubeWidth 1 212 double
0.11633 0.272887 0.263499 0.17605 0.0636051 0.220048 0.250699 0.0458827 0.167169 
0.161897 0.199742 0.24672 0.133277 0.221342 0.189663 0.170246 0.331469 0.205304 
0.275295 0.267709 0.25298 0.222781 0.223229 0.297206 0.234058 0.301063 0.257546 
0.204042 0.196694 0.173183 0.195065 0.232125 0.2511 0.271193 0.240262 0.228837 
0.257063 0.242912 0.244812 0.274195 0.238833 0.236986 0.262018 0.225911 0.208172 
0.233281 0.2751 0.252693 0.224022 0.213683 0.189842 0.217217 0.207576 0.184871 
0.201767 0.177096 0.191784 0.163505 0.170468 0.215335 0.182174 0.186308 0.199218 
0.18912 0.132881 0.102407 0.105248 0.187113 0.118566 0.196622 0.223444 0.299609 
0.272537 0.246502 0.232279 0.248909 0.299848 0.213771 0.227713 0.178232 0.264879 
0.267005 0.278098 0.237849 0.213126 0.208627 0.205767 0.210324 0.215919 0.218662 
0.219514 0.217379 0.21549 0.206954 0.203889 0.205814 0.219317 0.252952 0.242174 
0.226973 0.232819 0.229785 0.247965 0.239994 0.241107 0.268422 0.254312 0.24786 
0.280176 0.240954 0.272833 0.292228 0.275995 0.261196 0.253792 0.256412 0.262261 
0.224917 0.225163 0.235779 0.243691 0.222002 0.239502 0.243066 0.230352 0.238736 
0.239705 0.233024 0.238089 0.176644 0.225023 0.234494 0.243203 0.227323 0.20879 
0.195681 0.232688 0.217718 0.176056 0.210508 0.255354 0.285188 0.254004 0.261999 
0.275589 0.244327 0.253348 0.192532 0.180582 0.187176 0.211566 0.143314 0.167819 
0.211421 0.243488 0.215891 0.219185 0.170782 0.243287 0.217937 0.218784 0.233955 
0.20872 0.258874 0.215434 0.183187 0.153569 0.148537 0.128296 0.247381 0.194384 
0.291233 0.2502 0.164813 0.138112 0.279175 0.249051 0.229731 0.245433 0.218157 
0.192379 0.186439 0.191861 0.213508 0.152053 0.126731 0.240716 0.222882 0.141865 
0.107817 0.128565 0.164637 0.182978 0.196065 0.196719 0.263779 0.254922 0.272651 
0.272305 0.232376 0.218085 0.188098 0.182592 0.214058 0.235876 0.254916 0.2742 
0.304015 0.27549 0.287772 0.30345 0.309446 
