# vtk DataFile Version 3.0
vtk output
ASCII
DATASET POLYDATA
POINTS 263 float
1.33013 0.864019 2.2443 0.799102 0.719174 2.19373 1.16068 -1.54936 1.96341 
2.44181 -1.58325 0.630897 4.06662 -0.221363 0.485039 1.97653 -1.78579 0.174807 
3.40292 -0.00398447 -0.0377581 3.46492 0.128175 -0.119797 -0.250285 1.14226 -0.381256 
-0.337395 0.946557 -0.341567 3.2673 -0.810974 -0.439284 1.17622 1.5751 -0.509413 
2.24189 1.66587 -0.833621 0.778973 -0.597521 -1.18144 0.0856425 -0.628451 -1.22977 
1.24803 -0.439601 -1.33508 0.894008 -0.536162 -1.36879 0.472292 -0.41739 -1.5038 
2.53077 -0.402617 -1.65126 0.659268 0.110417 -1.8345 0.604776 0.044776 -1.80055 
0.566805 -0.0345347 -1.7596 0.528446 -0.100289 -1.72462 0.484198 -0.152042 -1.678 
0.448404 -0.220301 -1.62372 0.437165 -0.308107 -1.56257 0.745628 0.104417 -1.85199 
0.814256 0.0664546 -1.82939 0.859177 0.019888 -1.78687 0.91591 -0.0216361 -1.73556 
0.980505 -0.0594224 -1.6908 1.03486 -0.102413 -1.63233 1.06501 -0.155959 -1.56168 
1.09412 -0.211186 -1.47635 1.14571 -0.256587 -1.40339 1.19852 -0.300983 -1.35266 
1.22908 -0.359761 -1.33485 2.46167 -0.392602 -1.59486 2.40267 -0.404259 -1.55517 
2.34983 -0.423495 -1.5458 2.29843 -0.440266 -1.55847 2.24418 -0.443708 -1.59224 
2.18078 -0.423833 -1.624 2.11738 -0.403958 -1.65575 2.06214 -0.408941 -1.67482 
2.0096 -0.424845 -1.68 1.95265 -0.435633 -1.66249 1.88813 -0.433234 -1.62158 
1.82498 -0.436352 -1.57373 1.75972 -0.43206 -1.53266 1.69729 -0.430922 -1.5067 
1.62938 -0.41582 -1.47953 1.56118 -0.404059 -1.43782 1.50171 -0.416539 -1.39077 
1.44692 -0.439038 -1.35202 1.39274 -0.458716 -1.33533 1.33015 -0.463621 -1.33245 
0.359925 -0.453533 -1.42698 0.287706 -0.495315 -1.35118 0.239047 -0.548009 -1.29001 
0.188999 -0.584096 -1.24799 0.137177 -0.607939 -1.23161 0.582968 -0.503724 -1.44056 
0.661088 -0.54944 -1.37042 0.719235 -0.567628 -1.28354 0.945877 -0.53683 -1.29829 
1.00355 -0.548211 -1.24355 1.05761 -0.542086 -1.21696 1.11186 -0.520719 -1.23346 
1.17323 -0.487896 -1.2781 2.18387 1.63749 -0.743449 2.12415 1.62157 -0.68188 
2.06125 1.62391 -0.655813 2.00462 1.61636 -0.65285 1.94796 1.6089 -0.649879 
1.88483 1.61387 -0.631005 1.82219 1.61147 -0.590517 1.75716 1.61315 -0.542247 
1.69812 1.60159 -0.502552 1.64051 1.59249 -0.484893 1.57833 1.5991 -0.480707 
1.51854 1.60163 -0.484293 1.45684 1.60906 -0.487455 1.40065 1.60242 -0.491833 
1.34451 1.5957 -0.496219 1.2835 1.60133 -0.499537 1.22806 1.5928 -0.504079 
1.14584 1.50884 -0.541195 1.11186 1.45175 -0.572184 1.07137 1.40717 -0.587262 
1.03471 1.34879 -0.588693 0.995761 1.29215 -0.575143 0.945161 1.26723 -0.566271 
0.889554 1.25709 -0.563532 0.84906 1.2105 -0.571365 0.815807 1.14545 -0.580791 
0.779578 1.08799 -0.589562 0.733565 1.05545 -0.596179 0.683209 1.03397 -0.601841 
0.63219 1.01418 -0.607356 0.581795 0.992803 -0.613008 0.535038 0.962155 -0.619462 
0.493804 0.917442 -0.627131 0.447007 0.886897 -0.633576 0.395868 0.867411 -0.639065 
0.339285 0.85976 -0.636111 0.272556 0.873883 -0.616445 0.204401 0.885542 -0.574742 
0.144924 0.873062 -0.527696 0.0901897 0.85054 -0.488948 0.0368815 0.830483 -0.472236 
-0.0197785 0.823026 -0.469266 -0.0862075 0.841019 -0.466571 -0.158994 0.869398 -0.448194 
-0.2406 0.902736 -0.404927 1.10322 1.60316 -0.481124 1.02998 1.62778 -0.4383 
0.960603 1.64052 -0.389075 0.901526 1.62906 -0.349371 0.847555 1.61069 -0.332513 
0.791082 1.60072 -0.322339 0.727989 1.60558 -0.303474 0.665353 1.60319 -0.262986 
0.600357 1.60476 -0.214725 0.542024 1.59141 -0.175184 0.488796 1.57115 -0.15849 
0.437181 1.55084 -0.15663 0.386082 1.53125 -0.162128 0.335024 1.51156 -0.167635 
0.284627 1.49018 -0.173287 0.237871 1.45954 -0.179741 0.196637 1.41482 -0.18741 
0.14988 1.38417 -0.193864 0.0994845 1.3628 -0.199516 0.0484654 1.343 -0.205031 
-0.00193029 1.32163 -0.210684 -0.0486868 1.29098 -0.217137 -0.0896437 1.24672 -0.229718 
-0.135901 1.21652 -0.256004 -0.188662 1.18821 -0.307405 -0.293603 1.04482 -0.365081 
3.23434 -0.884879 -0.419807 3.20038 -0.960324 -0.385633 3.16481 -1.03572 -0.336615 
3.12465 -1.1035 -0.272099 3.07751 -1.15958 -0.184331 3.0328 -1.23203 -0.0608785 
2.98552 -1.30607 0.0920958 2.92975 -1.35848 0.246939 2.87641 -1.40689 0.365049 
2.83498 -1.47349 0.437078 2.7984 -1.54428 0.479075 2.75454 -1.59653 0.522674 
2.6953 -1.60961 0.569668 2.63701 -1.62307 0.6092 2.57873 -1.63046 0.627006 
2.51217 -1.6127 0.632156 -0.436913 0.976308 -0.289908 -0.495655 1.01284 -0.237333 
-0.493368 1.0682 -0.198636 -0.461786 1.12289 -0.178023 -0.411878 1.15628 -0.205916 
-0.344064 1.1662 -0.275104 3.43688 0.0527251 -0.0814994 3.3342 -0.0125272 0.00538911 
3.27165 -0.0256757 0.0334775 3.22279 -0.057552 0.0416937 3.1856 -0.113697 0.0367378 
3.14955 -0.171314 0.0279608 3.11038 -0.216027 0.0204251 3.08615 -0.271301 0.0126751 
3.08133 -0.329797 0.00582134 3.07234 -0.39172 -0.00168635 3.06748 -0.450114 -0.00853131 
3.04251 -0.503495 -0.0161177 2.99786 -0.536272 -0.0152018 2.94736 -0.561146 -0.00631887 
2.89921 -0.594361 0.00925537 2.85754 -0.639988 0.00892701 2.81197 -0.671614 -0.0050311 
2.76785 -0.700867 -0.0410339 2.72926 -0.744187 -0.0782426 2.68875 -0.782608 -0.115038 
2.64921 -0.82757 -0.137569 2.60367 -0.859288 -0.151535 2.55766 -0.891828 -0.158152 
2.51673 -0.939349 -0.158644 2.47407 -0.984499 -0.151511 2.43646 -1.04453 -0.138254 
2.39869 -1.10214 -0.132209 2.35243 -1.13812 -0.124284 2.30574 -1.17503 -0.109028 
2.26678 -1.23772 -0.0737517 2.23164 -1.31219 -0.0320639 2.19765 -1.38754 0.00211899 
2.16398 -1.45965 0.0217511 2.12667 -1.5225 0.0421843 2.08289 -1.57292 0.0785212 
2.04416 -1.63823 0.121001 2.00954 -1.71198 0.155321 4.03831 -0.280698 0.409347 
3.99928 -0.324932 0.379469 3.94269 -0.336621 0.396904 3.88999 -0.362312 0.427968 
3.84737 -0.409573 0.442328 3.80444 -0.452009 0.442276 3.76387 -0.49841 0.434461 
3.71597 -0.528191 0.435502 3.65985 -0.541077 0.452833 3.59682 -0.542463 0.493408 
3.54313 -0.569695 0.53918 3.50339 -0.630397 0.574628 3.46937 -0.699592 0.587092 
3.43223 -0.7588 0.59301 3.38432 -0.794626 0.615779 3.32968 -0.8235 0.676228 
3.27244 -0.853872 0.766227 3.21516 -0.884141 0.856236 3.15931 -0.911944 0.924197 
3.10488 -0.937283 0.970122 3.05046 -0.962622 1.01605 2.99603 -0.987961 1.06198 
2.9416 -1.0133 1.10791 2.88765 -1.03782 1.14648 2.83322 -1.06316 1.19241 
2.77923 -1.08757 1.231 2.72557 -1.10876 1.25504 2.67035 -1.1199 1.25769 
2.61231 -1.12789 1.27544 2.56293 -1.16811 1.3275 2.50929 -1.20765 1.4167 
2.45216 -1.24033 1.51392 2.39469 -1.26808 1.59672 2.33449 -1.28483 1.66564 
2.26921 -1.28659 1.72844 2.20879 -1.30071 1.79017 2.1484 -1.31494 1.85189 
2.08379 -1.3184 1.91455 2.0277 -1.34358 1.97532 1.97714 -1.38283 2.03488 
1.91617 -1.39556 2.09673 1.85692 -1.41065 2.15096 1.79796 -1.42241 2.19064 
1.73597 -1.41833 2.20203 1.68034 -1.42434 2.19029 1.62632 -1.43039 2.16371 
1.57057 -1.43409 2.14474 1.52524 -1.4643 2.1235 1.47439 -1.48044 2.10346 
1.41552 -1.47415 2.07795 1.36107 -1.48112 2.0587 1.31022 -1.49728 2.03867 
1.26003 -1.51512 2.01848 1.21035 -1.53224 1.99095 0.837089 0.79858 2.10797 
0.876813 0.86543 2.0508 0.920382 0.912326 2.02899 0.961392 0.959642 2.02947 
1.00838 0.987677 2.04311 1.06243 0.993638 2.06968 1.12559 0.970321 2.11597 
1.19265 0.935018 2.16865 1.26089 0.898748 2.21382 
LINES 14 287
22 18 37 38 39 40 41 42 43 44 45 46 47 48 49 50 51 52 53 54 55 56 15 
7 17 57 58 59 60 61 14 
5 17 62 63 64 13 
7 16 65 66 67 68 69 15 
19 12 70 71 72 73 74 75 76 77 78 79 80 81 82 83 84 85 86 11 
30 11 87 88 89 90 91 92 93 94 95 96 97 98 99 100 101 102 103 104 105 106 107 108 109 110 111 112 113 114 9 
27 11 115 116 117 118 119 120 121 122 123 124 125 126 127 128 129 130 131 132 133 134 135 136 137 138 139 8 
3 8 140 9 
18 10 141 142 143 144 145 146 147 148 149 150 151 152 153 154 155 156 3 
8 9 157 158 159 160 161 162 8 
56 4 200 201 202 203 204 205 206 207 208 209 210 211 212 213 214 215 216 217 218 219 220 221 222 223 224 225 226 227 228 229 230 231 232 233 234 235 236 237 238 239 240 241 242 243 244 245 246 247 248 249 250 251 252 253 2 
11 1 254 255 256 257 258 259 260 261 262 0 
20 17 25 24 23 22 21 20 19 26 27 28 29 30 31 32 33 34 35 36 15 
40 7 163 6 164 165 166 167 168 169 170 171 172 173 174 175 176 177 178 179 180 181 182 183 184 185 186 187 188 189 190 191 192 193 194 195 196 197 198 199 5 

POINT_DATA 263
SCALARS DY_raw double
LOOKUP_TABLE default
59.5203 0 42.2549 145.565 205.682 92.0296 107.286 95.0406 45.8487 
92.0994 102.793 52.6822 77.6829 96.3443 72.9582 76.9954 71.1922 63.7307 
129.918 70.5759 66.2063 68.1647 64.9015 54.0555 63.0791 62.4997 76.7945 
88.5916 102.765 105.43 87.3631 100.859 93.4949 88.9253 84.1231 82.2076 
75.1216 128.834 139.986 114.394 113.816 113.816 104.634 106.926 104.087 
97.9764 100.712 98.2952 83.5272 83.5272 92.6091 92.7817 84.7275 80.0504 
77.6291 80.8208 88.9475 65.5974 78.9024 84.3827 84.6393 68.8383 62.3425 
80.3296 105.818 55.0048 57.8165 54.8377 61.4845 69.3223 100.021 90.0552 
101.116 82.9966 59.0936 59.0936 62.4291 70.4207 77.1987 78.0668 86.2582 
86.5901 77.002 72.5644 68.0449 61.1069 61.1069 50.3789 59.2676 61.117 
57.2575 71.55 77.957 90.7453 102.863 95.1333 102.592 91.9581 68.0258 
83.7453 69.3691 57.5699 57.5699 68.1727 64.853 64.853 51.1159 66.6231 
78.6392 66.8142 66.8142 71.8097 69.2958 83.9838 80.8004 56.6637 64.9744 
65.7972 63.9879 56.2691 55.4028 62.868 58.1169 61.8735 70.6572 79.7201 
86.4546 86.4546 89.955 81.9189 81.9189 67.0217 73.3122 73.3122 104.15 
103.98 103.98 70.1364 59.6858 58.6669 56.8953 116.596 111.082 113.716 
106.993 150.254 180.144 152.773 111.823 104.983 128.937 145.012 170.387 
168.099 146.983 146.337 151.703 85.7435 77.1721 83.5188 68.532 75.8047 
61.2064 107.364 109.755 116.03 120.914 121.923 121.923 148.075 170.33 
155.185 155.185 137.097 121.868 130.884 131.377 140.519 140.519 151.183 
167.512 164.179 191.589 130.439 154.733 112.102 108.645 145.094 118.788 
127.249 164.192 129.896 183.039 195.491 144.588 130.896 93.5585 82.6859 
94.0697 82.6106 110.4 123.259 109.911 99.9159 106.851 99.7287 87.4726 
87.4726 86.8806 79.0523 75.3427 87.9604 87.9604 98.9362 83.1534 85.2144 
93.7941 96.3818 100.527 91.5184 88.9256 93.5213 101.144 109.873 123.901 
113.527 121.085 111.065 91.8329 102.558 97.4651 105.404 114.319 101.664 
98.3091 105.28 87.5072 97.5993 92.6741 61.9883 75.9675 66.4118 73.474 
73.474 67.3 70.3548 70.3548 68.0115 62.1597 67.405 78.7782 65.7552 
51.8552 49.7902 20.433 34.2307 35.0719 37.4971 40.9211 40.9211 48.1403 
53.3632 57.9979 
FIELD FieldData 7
DY_minmax 1 263 double
0.289381 0 0.205439 0.707719 1 0.447438 0.521613 0.462077 0.222911 
0.447777 0.499766 0.256135 0.377685 0.468415 0.354714 0.374343 0.346128 0.309851 
0.631648 0.343132 0.321887 0.331409 0.315543 0.262811 0.306683 0.303866 0.373366 
0.430722 0.499629 0.512589 0.42475 0.490366 0.454561 0.432344 0.408997 0.399684 
0.365232 0.626375 0.680596 0.556171 0.553358 0.553358 0.508719 0.519862 0.50606 
0.47635 0.489649 0.4779 0.406099 0.406099 0.450255 0.451094 0.411935 0.389196 
0.377424 0.392942 0.432452 0.318927 0.383614 0.410259 0.411507 0.334684 0.303102 
0.390553 0.514476 0.267427 0.281097 0.266614 0.298931 0.337037 0.486292 0.437838 
0.491614 0.40352 0.287306 0.287306 0.303523 0.342377 0.375331 0.379552 0.419378 
0.420991 0.374375 0.3528 0.330827 0.297094 0.297094 0.244936 0.288152 0.297144 
0.278379 0.347868 0.379018 0.441193 0.50011 0.462527 0.498788 0.447089 0.330733 
0.40716 0.337264 0.279898 0.279898 0.331448 0.315308 0.315308 0.24852 0.323914 
0.382335 0.324843 0.324843 0.349131 0.336908 0.40832 0.392842 0.275492 0.315898 
0.319898 0.311102 0.273574 0.269362 0.305657 0.282558 0.300822 0.343527 0.38759 
0.420332 0.420332 0.437351 0.39828 0.39828 0.325852 0.356436 0.356436 0.506365 
0.505537 0.505537 0.340995 0.290185 0.285232 0.276619 0.566878 0.540067 0.552873 
0.520188 0.730519 0.87584 0.742766 0.543671 0.510413 0.626878 0.70503 0.828401 
0.81728 0.714615 0.711472 0.737563 0.416875 0.375202 0.406059 0.333195 0.368554 
0.297579 0.521992 0.533615 0.564123 0.587872 0.592777 0.592777 0.719923 0.828126 
0.754489 0.754489 0.666551 0.592506 0.636344 0.638742 0.683188 0.683188 0.735032 
0.814424 0.798217 0.931484 0.634178 0.752292 0.545027 0.528218 0.705429 0.577535 
0.618669 0.79828 0.631541 0.889914 0.950454 0.70297 0.636399 0.454871 0.402009 
0.457356 0.401643 0.536751 0.599269 0.534373 0.485779 0.519496 0.48487 0.425282 
0.425282 0.422403 0.384343 0.366308 0.427654 0.427654 0.481016 0.404282 0.414303 
0.456016 0.468597 0.488753 0.444952 0.432346 0.45469 0.49175 0.534191 0.602392 
0.551956 0.588703 0.539984 0.446481 0.498627 0.473864 0.512464 0.555807 0.49428 
0.477967 0.51186 0.42545 0.474517 0.450571 0.30138 0.369345 0.322887 0.357222 
0.357222 0.327205 0.342057 0.342057 0.330664 0.302213 0.327715 0.383011 0.319694 
0.252114 0.242074 0.0993429 0.166426 0.170515 0.182306 0.198953 0.198953 0.234053 
0.259446 0.281979 
WidthEq 1 263 double
2.53594 1.40212 1.20601 1.98949 1.91544 1.70239 3.12808 2.74504 1.93681 
1.99219 2.48646 3.79217 1.73269 1.27771 1.75854 2.68276 1.39931 2.33388 
2.25472 2.15088 2.12336 2.0738 1.93185 1.93838 2.12574 2.37041 2.05067 
1.94386 1.78778 1.6353 1.74833 1.61096 1.65731 1.82175 2.09015 2.47787 
2.66634 2.42514 2.33831 2.6935 2.66071 2.66071 2.56169 2.75686 2.7158 
2.73464 2.79024 2.81123 3.02441 3.02441 3.05154 2.98647 3.25691 3.2938 
3.24711 3.04563 2.80761 2.57891 2.52286 2.38568 2.17133 1.97797 1.98596 
1.65593 1.3011 1.6124 1.64036 2.0165 2.18266 2.42144 1.69384 2.51068 
2.29746 2.8371 3.31 3.31 3.37887 3.04626 2.86158 2.93249 2.67174 
2.87631 2.97278 3.00506 3.253 3.46148 3.46148 3.61461 3.18268 2.50683 
2.4292 1.93683 1.97801 1.86566 1.62818 1.80725 1.59048 1.76613 1.99322 
1.65944 1.67813 1.67779 1.67779 1.54813 1.43154 1.43154 1.14935 1.19043 
1.12132 1.27159 1.27159 1.36597 1.59346 1.86024 2.12808 3.72037 3.52031 
3.13342 2.89836 2.74929 2.67387 2.37243 2.30139 2.13032 1.99343 1.78274 
1.60894 1.60894 1.49597 1.26869 1.26869 1.08786 1.04512 1.04512 1 
1.06598 1.06598 1.32285 1.53152 1.69261 2.06168 3.02677 3.2486 3.2853 
3.16759 2.4975 2.22627 1.9724 2.33467 2.42555 2.42723 2.36678 2.31972 
2.31762 2.50124 2.19323 1.96693 1.81448 1.58153 1.61772 1.60509 1.63222 
1.7936 2.72801 3.43539 3.31898 3.09351 2.51166 2.51166 2.22266 2.10544 
2.39012 2.39012 2.67525 2.88756 2.60643 2.66887 2.14633 2.14633 1.96266 
1.78274 1.77277 1.69937 2.06281 1.93043 2.34313 2.38162 2.03799 2.22825 
2.08583 1.76337 1.90583 1.6066 1.54887 2.02534 2.09136 2.72044 2.95141 
2.62401 2.33505 3.97229 3.70887 4.41176 5.05595 4.84639 4.66526 4.72354 
4.72354 4.48006 4.56128 4.79887 4.5774 4.5774 4.32986 4.82915 4.82677 
4.29057 4.26014 4.08336 4.215 4.0607 3.8603 3.44213 3.26367 3.02492 
3.28476 3.07188 3.26539 3.58956 3.38198 3.47345 3.31096 3.11724 3.23201 
3.20418 3.04065 3.19974 3.01652 2.8775 2.88409 2.66311 2.52033 2.30667 
2.30667 2.14056 2.21307 2.21307 1.99657 1.99502 1.85669 1.59828 1.56429 
1.49435 1.26089 1.87736 2.92164 3.13984 3.4208 3.78412 3.78412 3.89466 
3.80093 3.78203 
rRFP 1 263 double
3443.04 2909.79 2817.56 3186.04 3151.21 3051.01 3721.53 3541.38 3161.26 
3187.31 3419.77 4033.86 3065.26 2851.28 3077.42 3512.09 2908.47 3348.01 
3310.78 3261.94 3249 3225.69 3158.93 3162 3250.12 3365.19 3214.81 
3164.58 3091.17 3019.46 3072.62 3008.01 3029.81 3107.15 3233.38 3415.73 
3504.37 3390.93 3350.09 3517.14 3501.72 3501.72 3455.15 3546.94 3527.63 
3536.49 3562.64 3572.51 3672.77 3672.77 3685.53 3654.93 3782.12 3799.47 
3777.51 3682.75 3570.81 3463.25 3436.89 3372.37 3271.56 3180.62 3184.38 
3029.16 2862.28 3008.69 3021.84 3198.74 3276.89 3389.19 3046.99 3431.16 
3330.88 3584.68 3807.09 3807.09 3839.48 3683.05 3596.19 3629.54 3506.91 
3603.12 3648.49 3663.67 3780.28 3878.33 3878.33 3950.35 3747.21 3429.35 
3392.84 3161.27 3180.64 3127.8 3016.11 3100.33 2998.38 3080.99 3187.79 
3030.81 3039.6 3039.44 3039.44 2978.46 2923.63 2923.63 2790.91 2810.23 
2777.73 2848.4 2848.4 2892.79 2999.78 3125.25 3251.22 4000.09 3906 
3724.04 3613.49 3543.38 3507.91 3366.14 3332.73 3252.27 3187.89 3088.8 
3007.06 3007.06 2953.93 2847.04 2847.04 2761.99 2741.89 2741.89 2720.67 
2751.7 2751.7 2872.51 2970.65 3046.41 3219.99 3673.88 3778.21 3795.47 
3740.11 3424.96 3297.4 3178 3348.38 3391.12 3391.91 3363.48 3341.35 
3340.36 3426.72 3281.86 3175.43 3103.73 2994.17 3011.19 3005.25 3018.01 
3093.91 3533.37 3866.06 3811.31 3705.27 3431.62 3431.62 3295.7 3240.57 
3374.46 3374.46 3508.56 3608.41 3476.19 3505.56 3259.8 3259.8 3173.42 
3088.8 3084.11 3049.59 3220.52 3158.26 3352.36 3370.46 3208.85 3298.33 
3231.35 3079.69 3146.69 3005.96 2978.81 3202.9 3233.95 3529.81 3638.44 
3484.46 3348.56 4118.57 3994.68 4325.26 4628.23 4529.67 4444.48 4471.89 
4471.89 4357.38 4395.58 4507.32 4403.16 4403.16 4286.74 4521.56 4520.44 
4268.26 4253.95 4170.81 4232.72 4160.15 4065.9 3869.23 3785.3 3673.01 
3795.22 3695.1 3786.11 3938.57 3840.94 3883.96 3807.54 3716.43 3770.41 
3757.32 3680.41 3755.23 3669.06 3603.68 3606.78 3502.85 3435.7 3335.21 
3335.21 3257.09 3291.19 3291.19 3189.37 3188.64 3123.58 3002.05 2986.06 
2953.17 2843.37 3133.3 3624.44 3727.06 3859.2 4030.07 4030.07 4082.06 
4037.98 4029.09 
rGFP 1 263 double
2448.57 2297.63 2348.59 2587.23 2691.6 2454.3 2633.23 2558.52 2386.43 
2481.11 2553.22 2497.41 2432.23 2420.73 2425.93 2504.19 2397.25 2446.37 
2590.56 2449.43 2438.21 2438.99 2423.01 2402.41 2431.72 2445.78 2455.11 
2469.84 2481.35 2470.04 2450.37 2460.11 2452.58 2459.63 2473.46 2501.33 
2497.93 2610.07 2624.96 2605.75 2600.46 2600.46 2565.67 2592.41 2580.31 
2565.56 2578.64 2573.96 2550.25 2550.25 2580.23 2574.72 2573.58 2561.3 
2549.7 2543.78 2547.36 2466.8 2496.69 2498.94 2481.41 2433.79 2421.44 
2430.65 2435.31 2386.32 2392.47 2408.21 2431.83 2465.49 2467.05 2523.73 
2529.94 2533.1 2493.23 2493.23 2508.57 2512.15 2518.54 2526.56 2528.09 
2546.69 2526.54 2515.69 2518.98 2509.15 2509.15 2479.73 2486.26 2450.84 
2436.72 2436.21 2451.83 2466.93 2465.11 2469.56 2460.8 2460.04 2433.22 
2436.6 2414.04 2394.22 2394.22 2403.17 2390.47 2390.47 2356.38 2376.94 
2385.81 2382.59 2382.59 2395.72 2408.05 2453.86 2469.58 2508.44 2526.36 
2503.8 2483.09 2452.33 2445.77 2446.78 2431.38 2429.44 2438.48 2439.75 
2436.73 2436.73 2432.2 2401.56 2401.56 2370.54 2374.25 2374.25 2401.78 
2408.47 2408.47 2390.41 2389.04 2396.93 2414.93 2650.54 2658.49 2671.22 
2636.54 2672.89 2698.68 2598.96 2558.7 2552.27 2610.59 2640.84 2692.88 
2687.22 2665.27 2618.58 2596.02 2453.21 2419.68 2432.74 2407.63 2421.36 
2407.41 2590.52 2674.68 2682.73 2671.68 2603.86 2603.86 2626.75 2656.25 
2668.54 2668.54 2664.4 2649.53 2638.77 2648.26 2599.23 2599.23 2594.35 
2596.26 2588.68 2623.21 2566.7 2596.33 2560.3 2556.38 2593.33 2562.32 
2563.05 2587.16 2545.19 2591.7 2600.42 2590.47 2571.38 2552.15 2541.67 
2544.47 2490.53 2736.17 2754.78 2782.53 2802.8 2815.47 2762.89 2710.81 
2710.81 2686.86 2658.21 2659.19 2700.26 2700.26 2726.01 2699.19 2708.94 
2700.06 2708.23 2708.12 2683.38 2658.73 2658.65 2645.78 2656.22 2672.42 
2670.54 2669.59 2660.3 2627.27 2644.48 2636.17 2646.62 2653.99 2626.21 
2612.63 2617.75 2577.63 2592.04 2564.3 2476.41 2499.94 2465.01 2467.11 
2467.11 2441.69 2453.33 2453.33 2433.42 2421.64 2422.78 2423.54 2400.49 
2375.12 2360.41 2335.99 2397.64 2407.75 2425.9 2452.48 2452.48 2485.12 
2500.46 2516.98 
bkstRFP 1 263 double
1192.68 659.431 567.201 935.681 900.851 800.651 1471.17 1291.02 910.901 
936.951 1169.41 1783.5 814.901 600.921 827.061 1261.73 658.111 1097.65 
1060.42 1011.58 998.641 975.331 908.571 911.641 999.761 1114.83 964.451 
914.221 840.811 769.101 822.261 757.651 779.451 856.791 983.021 1165.37 
1254.01 1140.57 1099.73 1266.78 1251.36 1251.36 1204.79 1296.58 1277.27 
1286.13 1312.28 1322.15 1422.41 1422.41 1435.17 1404.57 1531.76 1549.11 
1527.15 1432.39 1320.45 1212.89 1186.53 1122.01 1021.2 930.261 934.021 
778.801 611.921 758.331 771.481 948.381 1026.53 1138.83 796.631 1180.8 
1080.52 1334.32 1556.73 1556.73 1589.12 1432.69 1345.83 1379.18 1256.55 
1352.76 1398.13 1413.31 1529.92 1627.97 1627.97 1699.99 1496.85 1178.99 
1142.48 910.911 930.281 877.441 765.751 849.971 748.021 830.631 937.431 
780.451 789.241 789.081 789.081 728.101 673.271 673.271 540.551 559.871 
527.371 598.041 598.041 642.431 749.421 874.891 1000.86 1749.73 1655.64 
1473.68 1363.13 1293.02 1257.55 1115.78 1082.37 1001.91 937.531 838.441 
756.701 756.701 703.571 596.681 596.681 511.631 491.531 491.531 470.311 
501.341 501.341 622.151 720.291 796.051 969.631 1423.52 1527.85 1545.11 
1489.75 1174.6 1047.04 927.641 1098.02 1140.76 1141.55 1113.12 1090.99 
1090 1176.36 1031.5 925.071 853.371 743.811 760.831 754.891 767.651 
843.551 1283.01 1615.7 1560.95 1454.91 1181.26 1181.26 1045.34 990.211 
1124.1 1124.1 1258.2 1358.05 1225.83 1255.2 1009.44 1009.44 923.061 
838.441 833.751 799.231 970.161 907.901 1102 1120.1 958.491 1047.97 
980.991 829.331 896.331 755.601 728.451 952.541 983.591 1279.45 1388.08 
1234.1 1098.2 1868.21 1744.32 2074.9 2377.87 2279.31 2194.12 2221.53 
2221.53 2107.02 2145.22 2256.96 2152.8 2152.8 2036.38 2271.2 2270.08 
2017.9 2003.59 1920.45 1982.36 1909.79 1815.54 1618.87 1534.94 1422.65 
1544.86 1444.74 1535.75 1688.21 1590.58 1633.6 1557.18 1466.07 1520.05 
1506.96 1430.05 1504.87 1418.7 1353.32 1356.42 1252.49 1185.34 1084.85 
1084.85 1006.73 1040.83 1040.83 939.011 938.281 873.221 751.691 735.701 
702.811 593.011 882.941 1374.08 1476.7 1608.84 1779.71 1779.71 1831.7 
1787.62 1778.73 
bkstGFP 1 263 double
150.94 0 50.96 289.6 393.97 156.67 335.6 260.89 88.8 
183.48 255.59 199.78 134.6 123.1 128.3 206.56 99.62 148.74 
292.93 151.8 140.58 141.36 125.38 104.78 134.09 148.15 157.48 
172.21 183.72 172.41 152.74 162.48 154.95 162 175.83 203.7 
200.3 312.44 327.33 308.12 302.83 302.83 268.04 294.78 282.68 
267.93 281.01 276.33 252.62 252.62 282.6 277.09 275.95 263.67 
252.07 246.15 249.73 169.17 199.06 201.31 183.78 136.16 123.81 
133.02 137.68 88.69 94.84 110.58 134.2 167.86 169.42 226.1 
232.31 235.47 195.6 195.6 210.94 214.52 220.91 228.93 230.46 
249.06 228.91 218.06 221.35 211.52 211.52 182.1 188.63 153.21 
139.09 138.58 154.2 169.3 167.48 171.93 163.17 162.41 135.59 
138.97 116.41 96.59 96.59 105.54 92.84 92.84 58.75 79.31 
88.18 84.96 84.96 98.09 110.42 156.23 171.95 210.81 228.73 
206.17 185.46 154.7 148.14 149.15 133.75 131.81 140.85 142.12 
139.1 139.1 134.57 103.93 103.93 72.91 76.62 76.62 104.15 
110.84 110.84 92.78 91.41 99.3 117.3 352.91 360.86 373.59 
338.91 375.26 401.05 301.33 261.07 254.64 312.96 343.21 395.25 
389.59 367.64 320.95 298.39 155.58 122.05 135.11 110 123.73 
109.78 292.89 377.05 385.1 374.05 306.23 306.23 329.12 358.62 
370.91 370.91 366.77 351.9 341.14 350.63 301.6 301.6 296.72 
298.63 291.05 325.58 269.07 298.7 262.67 258.75 295.7 264.69 
265.42 289.53 247.56 294.07 302.79 292.84 273.75 254.52 244.04 
246.84 192.9 438.54 457.15 484.9 505.17 517.84 465.26 413.18 
413.18 389.23 360.58 361.56 402.63 402.63 428.38 401.56 411.31 
402.43 410.6 410.49 385.75 361.1 361.02 348.15 358.59 374.79 
372.91 371.96 362.67 329.64 346.85 338.54 348.99 356.36 328.58 
315 320.12 280 294.41 266.67 178.78 202.31 167.38 169.48 
169.48 144.06 155.7 155.7 135.79 124.01 125.15 125.91 102.86 
77.49 62.78 38.36 100.01 110.12 128.27 154.85 154.85 187.49 
202.83 219.35 
tubeWidth 1 263 double
0.279986 0.110683 0.124793 0.117087 0.153271 0.222849 0.313411 0.150477 0.161231 
0.24834 0.164579 0.290052 0.203126 0.0955676 0.221844 0.253761 0.0768973 0.148062 
0.252959 0.166819 0.234823 0.203892 0.175339 0.199147 0.216687 0.252729 0.162865 
0.198851 0.156189 0.112081 0.12076 0.188131 0.164973 0.137206 0.142405 0.146785 
0.20739 0.304748 0.278862 0.244599 0.253026 0.242663 0.243731 0.255789 0.271408 
0.232358 0.19956 0.241872 0.244522 0.258027 0.251163 0.225746 0.228287 0.326362 
0.285605 0.241599 0.227292 0.237352 0.338912 0.344804 0.299595 0.258053 0.183317 
0.194371 0.162329 0.16407 0.186741 0.217788 0.250352 0.233239 0.25028 0.263542 
0.260726 0.290635 0.280156 0.270578 0.249302 0.224261 0.214134 0.174879 0.186937 
0.171041 0.188106 0.241188 0.266209 0.291943 0.305631 0.2154 0.194886 0.180772 
0.18624 0.175004 0.213204 0.251956 0.214966 0.178245 0.185553 0.222895 0.214392 
0.207071 0.207361 0.20262 0.209373 0.160004 0.113871 0.177838 0.195788 0.193645 
0.140096 0.15448 0.191171 0.180591 0.225995 0.248468 0.268489 0.24162 0.256515 
0.259479 0.22726 0.225098 0.193686 0.212451 0.233218 0.266209 0.24843 0.230839 
0.211785 0.214655 0.222819 0.214236 0.192523 0.16198 0.15458 0.161105 0.153868 
0.161241 0.191406 0.187632 0.172 0.15725 0.161654 0.230696 0.265335 0.322474 
0.354189 0.302632 0.208137 0.192922 0.22878 0.293243 0.237819 0.24356 0.292507 
0.269084 0.26176 0.242766 0.177378 0.19229 0.196356 0.161667 0.163415 0.142581 
0.138942 0.23166 0.282646 0.273788 0.228354 0.211048 0.17803 0.190155 0.133194 
0.133935 0.165886 0.224828 0.263382 0.199933 0.124362 0.0838351 0.130336 0.159738 
0.147222 0.125691 0.150747 0.167847 0.185556 0.210111 0.170045 0.156541 0.151746 
0.15951 0.199954 0.198443 0.219371 0.197147 0.145815 0.192248 0.253065 0.316778 
0.314385 0.308681 0.2349 0.23855 0.288469 0.266654 0.253098 0.228175 0.176082 
0.125352 0.116485 0.144603 0.1447 0.150622 0.184385 0.176782 0.231033 0.273455 
0.219932 0.243765 0.236664 0.28111 0.292861 0.268717 0.267818 0.250974 0.249997 
0.245888 0.237106 0.248875 0.258999 0.242455 0.255783 0.237447 0.254539 0.243479 
0.285181 0.260667 0.276578 0.292018 0.276714 0.258775 0.251641 0.242936 0.245323 
0.253622 0.243283 0.257503 0.282349 0.280156 0.247785 0.233425 0.233689 0.236547 
0.216458 0.189602 0.277072 0.233392 0.175236 0.190584 0.209185 0.189283 0.207873 
0.17166 0.241475 
