# vtk DataFile Version 3.0
vtk output
ASCII
DATASET POLYDATA
POINTS 383 float
0.204054 -0.901587 2.09407 0.362539 -0.867265 1.94866 1.80967 -0.614715 1.87782 
0.183272 -1.44479 1.4662 1.82147 0.178689 1.3066 1.79274 -1.78481 1.15836 
-0.189342 0.718556 0.974605 -0.351663 -0.0656799 1.05998 -0.344889 -0.58803 0.982176 
1.99787 0.263439 1.12785 0.102711 0.950407 0.747194 -0.0132273 0.989913 0.736124 
-0.415659 0.712362 0.681227 2.487 -0.626774 0.206226 3.10313 -0.114578 0.226624 
2.69936 -0.220897 -0.0229593 -0.344995 1.27883 -0.496619 -0.741798 0.863289 -0.556384 
2.13855 -1.01004 -0.518128 -0.142369 -0.88075 -0.761654 -0.627197 0.995015 -0.739999 
-0.211082 1.08401 -1.22801 1.99513 -0.682095 -1.12476 -0.325458 -0.109337 -1.55634 
-0.0949183 -0.0171166 -1.72888 -0.156259 -0.0273266 -1.66886 -0.216529 -0.0391546 -1.61625 
-0.273546 -0.062099 -1.57863 -0.342665 -0.169758 -1.45622 -0.371379 -0.231404 -1.37231 
-0.383469 -0.290393 -1.3014 -0.384022 -0.347427 -1.24406 -0.379368 -0.403379 -1.20104 
-0.362268 -0.457069 -1.17894 -0.326851 -0.507868 -1.16964 -0.296522 -0.55937 -1.16092 
-0.262709 -0.610753 -1.1369 -0.248709 -0.665597 -1.08536 -0.245159 -0.722428 -1.01265 
-0.233269 -0.778471 -0.924105 -0.194033 -0.830559 -0.839859 -0.397688 -0.0661597 -1.46556 
-0.467511 -0.0221055 -1.39685 -0.534819 0.0228401 -1.3502 -0.600228 0.0680478 -1.30334 
-0.653905 0.114875 -1.25512 -0.680232 0.165657 -1.21124 -0.694211 0.218688 -1.18829 
-0.714628 0.271194 -1.18097 -0.750848 0.321701 -1.18291 -0.78188 0.372923 -1.18426 
-0.816082 0.423708 -1.18597 -0.822749 0.478112 -1.17707 -0.796342 0.536715 -1.1495 
-0.77055 0.59469 -1.09965 -0.770882 0.648696 -1.03788 -0.782553 0.700775 -0.962506 
-0.786797 0.753333 -0.863945 -0.768506 0.808093 -0.725541 -0.27923 1.01071 -1.2632 
-0.338307 0.966493 -1.26395 -0.401089 0.958819 -1.20647 -0.468209 0.94324 -1.09012 
-0.545108 0.959677 -0.926336 -0.122786 1.03072 -1.34976 -0.0579154 0.98179 -1.43412 
-0.0180005 0.934134 -1.47143 0.0320281 0.900014 -1.48473 0.0886326 0.894171 -1.50116 
0.148042 0.899341 -1.53922 0.209755 0.894929 -1.58487 0.274409 0.863634 -1.62381 
0.338049 0.821573 -1.64091 0.398692 0.788818 -1.64306 0.454773 0.782469 -1.6372 
0.50921 0.787811 -1.63105 0.563631 0.793262 -1.6249 0.618628 0.78863 -1.61163 
0.674131 0.768425 -1.58401 0.725115 0.762342 -1.53395 0.773906 0.765855 -1.47629 
0.823245 0.771463 -1.42595 0.874975 0.778057 -1.39768 0.928309 0.785235 -1.38412 
0.981644 0.792413 -1.37056 1.03337 0.799007 -1.34229 1.0827 0.804723 -1.29194 
1.13122 0.810148 -1.23424 1.18054 0.815865 -1.18389 1.23229 0.822349 -1.15562 
1.28507 0.827433 -1.13475 1.33821 0.824029 -1.10672 1.38992 0.812837 -1.05679 
1.43797 0.821558 -0.998999 1.48862 0.811886 -0.941664 1.53796 0.817494 -0.891324 
1.58462 0.836104 -0.8333 1.63529 0.826323 -0.775957 1.68629 0.820131 -0.725905 
1.74011 0.811068 -0.698028 1.79648 0.776965 -0.678319 1.84385 0.729513 -0.652669 
1.87417 0.677213 -0.606704 1.91852 0.626556 -0.551673 1.97171 0.577301 -0.503093 
2.01915 0.527799 -0.477518 2.0516 0.47659 -0.468555 2.08913 0.426083 -0.45901 
2.11997 0.374289 -0.435336 2.16512 0.323925 -0.387677 2.21941 0.27464 -0.331508 
2.27629 0.225895 -0.282505 2.33558 0.178026 -0.255574 2.39376 0.130188 -0.236211 
2.43952 0.080452 -0.21083 2.45893 0.0267178 -0.17356 2.47915 -0.0267237 -0.14365 
2.5265 -0.0758748 -0.13299 2.5863 -0.123129 -0.128348 2.64478 -0.171289 -0.0940564 
1.93379 -0.692305 -1.06474 1.8735 -0.704024 -1.01212 1.81621 -0.725048 -0.974461 
1.76426 -0.76001 -0.966594 1.71368 -0.780725 -0.987851 1.66657 -0.802183 -1.03858 
1.62376 -0.848224 -1.09728 1.58155 -0.904458 -1.14885 1.5358 -0.953481 -1.17816 
1.48607 -0.986289 -1.19234 1.43599 -1.02258 -1.19924 1.38353 -1.04196 -1.20573 
1.32966 -1.05134 -1.21198 1.27554 -1.05892 -1.21818 1.2214 -1.06639 -1.22438 
1.16807 -1.07356 -1.23793 1.11552 -1.08034 -1.25885 1.06431 -1.08462 -1.29443 
1.01145 -1.0772 -1.32972 0.955891 -1.04461 -1.37177 0.899514 -1.01221 -1.40646 
0.846385 -1.00288 -1.44171 0.791906 -0.995936 -1.46229 0.73477 -0.976108 -1.47518 
0.678701 -0.969858 -1.48105 0.622619 -0.963508 -1.48691 0.56441 -0.942053 -1.4924 
0.506681 -0.924002 -1.49798 0.446038 -0.891246 -1.49583 0.38403 -0.860778 -1.47901 
0.322062 -0.854554 -1.43332 0.257688 -0.849207 -1.36555 0.188477 -0.821477 -1.28252 
0.120096 -0.793664 -1.20683 0.0554744 -0.792549 -1.13181 -0.00771296 -0.8136 -1.04259 
-0.0725163 -0.85313 -0.916995 -0.233511 1.15871 -1.02118 -0.275581 1.21874 -0.777293 
-0.585942 1.05549 -0.703271 -0.556818 1.11374 -0.645584 -0.544062 1.16921 -0.574873 
-0.512804 1.22449 -0.509612 -0.4499 1.26733 -0.486143 -0.684096 0.929298 -0.651867 
-0.202255 -0.948514 -0.606821 -0.235782 -1.01191 -0.47876 -0.213799 -1.06675 -0.381605 
-0.175778 -1.11882 -0.304952 -0.147271 -1.17173 -0.244288 -0.102283 -1.22017 -0.19657 
-0.04645 -1.25648 -0.169556 0.0105601 -1.27698 -0.156696 0.0688009 -1.31242 -0.151754 
0.118601 -1.3591 -0.148179 0.153733 -1.40965 -0.146357 0.202999 -1.45854 -0.135468 
0.261282 -1.50625 -0.116101 0.3203 -1.55221 -0.0891229 0.379638 -1.58768 -0.0766033 
0.438468 -1.60755 -0.0784388 0.501015 -1.64185 -0.0953517 0.564152 -1.68633 -0.105145 
0.625938 -1.7332 -0.100271 0.685334 -1.78106 -0.0733274 0.743109 -1.82938 -0.0316601 
0.801418 -1.87551 0.00269308 0.860487 -1.90906 0.0152498 0.916839 -1.91733 0.0210647 
0.969728 -1.92496 0.0563563 1.0199 -1.94924 0.135439 1.06773 -1.96887 0.22936 
1.11871 -1.99286 0.301071 1.17158 -2.00038 0.336366 1.22685 -2.00692 0.34959 
1.28477 -2.02635 0.355133 1.34056 -2.03058 0.361047 1.39391 -2.02351 0.374603 
1.44426 -2.00714 0.403112 1.49065 -1.9866 0.461184 1.53861 -1.99513 0.54065 
1.58285 -1.98926 0.635183 1.62543 -1.95962 0.715579 1.67072 -1.94089 0.785891 
1.71536 -1.91906 0.863705 1.75418 -1.86577 0.989369 2.19097 -0.960382 -0.54773 
2.24203 -0.92507 -0.54821 2.28695 -0.876132 -0.51154 2.32567 -0.819047 -0.430484 
2.36154 -0.761195 -0.324853 2.39483 -0.705798 -0.182302 2.43324 -0.658495 -0.00472362 
-0.766323 0.800223 -0.390049 -0.803364 0.735976 -0.247496 -0.831999 0.673614 -0.133779 
-0.861712 0.612011 -0.0574389 -0.871503 0.553885 -0.0086175 -0.868144 0.498298 0.0119099 
-0.861498 0.443529 0.0179187 -0.855732 0.38882 0.0163741 -0.859702 0.332767 0.0137148 
-0.877574 0.274615 0.0169159 -0.872315 0.219291 0.0376608 -0.844619 0.166518 0.0833222 
-0.829728 0.111616 0.142422 -0.813849 0.056668 0.209088 -0.776817 0.00463866 0.278176 
-0.748924 -0.0484697 0.338764 -0.758976 -0.106451 0.380104 -0.762345 -0.163147 0.407313 
-0.747036 -0.217084 0.429209 -0.714133 -0.268775 0.460571 -0.686103 -0.321138 0.491376 
-0.651994 -0.372844 0.530329 -0.624766 -0.4255 0.568494 -0.594053 -0.478037 0.621953 
-0.578971 -0.532803 0.68108 -0.562357 -0.585409 0.740459 -0.52145 -0.622407 0.793784 
-0.469917 -0.63017 0.840107 -0.410448 -0.621323 0.901002 -0.286428 1.30157 -0.287989 
-0.243602 1.3077 -0.0891945 -0.205406 1.29554 0.0934592 -0.161632 1.25659 0.245829 
-0.114956 1.20668 0.368249 -0.0764388 1.15442 0.459859 -0.0618383 1.09894 0.541273 
-0.0481486 1.04314 0.630036 -0.427513 1.18517 -0.218507 -0.488353 1.10847 0.0104441 
-0.512436 1.04462 0.169335 -0.517933 0.98576 0.270794 -0.51729 0.928347 0.35061 
-0.506608 0.872319 0.431586 -0.479915 0.818318 0.521827 -0.455699 0.764157 0.604352 
2.73976 -0.175721 0.0578059 2.7847 -0.144885 0.116138 2.83104 -0.11197 0.159776 
2.88115 -0.105862 0.20277 2.93558 -0.124438 0.237795 2.99057 -0.128961 0.251069 
3.04658 -0.122816 0.2425 2.653 -0.282799 -0.0304727 2.60774 -0.344732 -0.0304078 
2.5722 -0.405816 -0.0118523 2.55775 -0.46602 0.0388649 2.53769 -0.535615 0.11594 
2.51142 -0.697588 0.434759 2.50354 -0.763199 0.610257 2.51431 -0.820749 0.725973 
2.50976 -0.878859 0.802719 2.47352 -0.940999 0.863407 2.43368 -1.00364 0.923693 
2.40684 -1.06448 0.985467 2.36679 -1.12714 1.04572 2.32674 -1.18981 1.10598 
2.29981 -1.25067 1.16774 2.25865 -1.3133 1.22043 2.20925 -1.3766 1.25727 
2.16021 -1.43747 1.27187 2.11128 -1.48788 1.27199 2.06023 -1.52328 1.27248 
2.01049 -1.57398 1.27996 1.96153 -1.63471 1.2921 1.91379 -1.69526 1.282 
1.86094 -1.74782 1.23686 -0.362518 0.719413 0.697247 -0.311226 0.724836 0.742819 
-0.256976 0.72548 0.838245 -0.4568 0.648819 0.771164 -0.469996 0.589859 0.834491 
-0.467548 0.533966 0.862366 -0.460902 0.479197 0.868375 -0.455136 0.424488 0.86683 
-0.459312 0.368406 0.864147 -0.480202 0.310019 0.859551 -0.496002 0.252334 0.855537 
-0.517586 0.193669 0.858313 -0.52216 0.136989 0.877932 -0.507466 0.0824221 0.922104 
-0.465129 0.0314878 0.976905 -0.410148 -0.0175193 1.02569 0.0431255 0.981643 0.741939 
-0.065202 0.925501 0.797503 -0.108001 0.861709 0.859897 -0.138844 0.795662 0.921029 
1.93874 0.21357 1.21637 1.87931 0.189749 1.27606 -0.321911 -0.518359 1.0788 
-0.33884 -0.457161 1.15955 -0.335747 -0.400755 1.21806 -0.336093 -0.345777 1.24444 
-0.342769 -0.291375 1.25333 -0.349523 -0.236621 1.24731 -0.35398 -0.181004 1.2192 
-0.354427 -0.123927 1.15431 -0.310112 -0.00553099 1.11164 -0.26966 0.0546477 1.15573 
-0.240842 0.113221 1.19848 -0.235155 0.168966 1.22369 -0.227972 0.22528 1.23417 
-0.193943 0.286208 1.21047 -0.158416 0.347704 1.17204 -0.147627 0.405787 1.13078 
-0.149967 0.461696 1.10292 -0.15283 0.517542 1.07748 -0.147886 0.575948 1.04554 
-0.144264 0.642186 1.01128 1.69744 -1.75027 1.34572 1.62015 -1.74592 1.4866 
1.55586 -1.754 1.56378 1.4979 -1.76058 1.58952 1.44103 -1.75462 1.59101 
1.38146 -1.72349 1.58575 1.32188 -1.69226 1.5805 1.26554 -1.6841 1.57468 
1.20944 -1.67764 1.56882 1.15123 -1.65618 1.56333 1.09349 -1.63802 1.55776 
1.03336 -1.60295 1.55259 0.971829 -1.55789 1.54768 0.910058 -1.51113 1.5428 
0.848525 -1.46606 1.53788 0.7884 -1.431 1.53272 0.731444 -1.41244 1.51979 
0.675386 -1.3883 1.49227 0.622724 -1.37031 1.4425 0.57016 -1.34701 1.38549 
0.51916 -1.34082 1.33544 0.467161 -1.3455 1.30721 0.413008 -1.35287 1.30102 
0.356481 -1.36132 1.31689 0.297816 -1.37257 1.35478 0.239194 -1.3961 1.40711 
1.74831 -0.624816 1.93785 1.68776 -0.634625 1.99052 1.62881 -0.643849 2.02846 
1.57226 -0.652196 2.04433 1.51733 -0.659959 2.0455 1.46319 -0.667429 2.0393 
1.40905 -0.6749 2.0331 1.35492 -0.68237 2.0269 1.30078 -0.68984 2.0207 
1.24664 -0.697311 2.0145 1.19252 -0.70489 2.0083 1.13864 -0.714162 2.00206 
1.08589 -0.731522 1.99562 1.03387 -0.75399 1.98906 0.977621 -0.746463 1.98322 
0.922092 -0.744043 1.97726 0.867702 -0.749713 1.97111 0.813565 -0.757183 1.96491 
0.759698 -0.766564 1.95867 0.707222 -0.785834 1.95218 0.65686 -0.820112 1.94533 
0.6044 -0.839492 1.93884 0.550747 -0.850609 1.93255 0.497274 -0.866788 1.92608 
0.439042 -0.882736 1.92655 0.278382 -0.881976 2.00601 
LINES 25 435
5 24 25 26 27 23 
15 23 28 29 30 31 32 33 34 35 36 37 38 39 40 19 
20 23 41 42 43 44 45 46 47 48 49 50 51 52 53 54 55 56 57 58 17 
7 21 59 60 61 62 63 20 
58 21 64 65 66 67 68 69 70 71 72 73 74 75 76 77 78 79 80 81 82 83 84 85 86 87 88 89 90 91 92 93 94 95 96 97 98 99 100 101 102 103 104 105 106 107 108 109 110 111 112 113 114 115 116 117 118 119 15 
39 22 120 121 122 123 124 125 126 127 128 129 130 131 132 133 134 135 136 137 138 139 140 141 142 143 144 145 146 147 148 149 150 151 152 153 154 155 156 19 
4 21 157 158 16 
7 20 159 160 161 162 163 16 
3 20 164 17 
43 19 165 166 167 168 169 170 171 172 173 174 175 176 177 178 179 180 181 182 183 184 185 186 187 188 189 190 191 192 193 194 195 196 197 198 199 200 201 202 203 204 205 5 
9 18 206 207 208 209 210 211 212 13 
10 16 242 243 244 245 246 247 248 249 11 
10 16 250 251 252 253 254 255 256 257 12 
9 15 258 259 260 261 262 263 264 14 
7 15 265 266 267 268 269 13 
21 13 270 271 272 273 274 275 276 277 278 279 280 281 282 283 284 285 286 287 288 5 
5 12 289 290 291 6 
15 12 292 293 294 295 296 297 298 299 300 301 302 303 304 7 
3 11 305 10 
5 11 306 307 308 6 
4 9 309 310 4 
14 7 319 320 321 322 323 324 325 326 327 328 329 330 6 
28 5 331 332 333 334 335 336 337 338 339 340 341 342 343 344 345 346 347 348 349 350 351 352 353 354 355 356 3 
40 17 213 214 215 216 217 218 219 220 221 222 223 224 225 226 227 228 229 230 231 232 233 234 235 236 237 238 239 240 241 8 311 312 313 314 315 316 317 318 7 
29 2 357 358 359 360 361 362 363 364 365 366 367 368 369 370 371 372 373 374 375 376 377 378 379 380 381 1 382 0 

POINT_DATA 383
SCALARS DY_raw double
LOOKUP_TABLE default
196.529 182.525 167.66 219.911 128.117 159.876 123.647 134.909 125.026 
119.671 160.365 157.347 180.906 139.24 316.709 169.046 130.79 165.318 
171.605 156.33 138.808 144.585 153.187 127.959 164.405 143.021 134.608 
145.011 132.609 142.916 153.13 136.887 151.929 148.776 143.449 153.532 
146.184 127.852 133.557 134.616 147.827 113.083 125.092 121.639 113.303 
138.278 171.166 154.932 150.826 150.826 136.827 133.337 133.337 162.174 
143.808 158.635 148.268 145.017 174.219 135.027 141.75 132.303 142.032 
133.914 161.775 181.375 210.483 256.168 262.26 255.511 223.813 213.496 
185.731 169.124 169.124 146.139 154.462 160.932 146.775 143.692 138.206 
140.758 140.758 150.523 147.948 155.21 142.064 140.14 147.649 140.119 
140.119 125.35 118.424 120.74 113.742 113.056 123.137 116.554 121.049 
127.097 124.829 122.106 135.138 153.256 147.143 154.665 160.93 129.87 
122.896 111.444 116.239 123.564 117.284 114.961 137.156 132.79 142.74 
135.279 128.545 145.327 162.181 161.536 159.743 159.743 186.484 180.042 
183.309 176.872 192.053 220.164 187.511 187.511 173.322 178.138 178.138 
170.226 154.632 154.632 174.272 172.553 159.908 151.376 145.557 157.766 
168.327 161.603 151.074 158.84 158.84 162.291 160.977 163.456 144.038 
167.064 178.159 142.486 163.229 156.982 129.616 124.76 140.328 142.019 
142.208 126.145 149.025 148.588 144.441 181.692 167.438 178.562 166.202 
141.725 155.468 144.862 133.374 110.425 112.761 105.768 94.8115 97.8065 
97.1503 109.074 110.503 110.503 122.16 145.749 154.361 142.07 142.07 
159.06 144.223 160.245 157.664 148.525 148.525 132.285 124.466 124.466 
125.066 134.079 159.985 162.706 163.277 140.362 172.514 175.365 179.2 
147.368 124.113 143.099 169.68 190.449 171.289 156.857 173.104 190.583 
233.229 246.261 223.156 186.033 186.033 143.823 135.729 147.88 130.909 
156.366 145.624 132.548 138.099 140.658 141.15 154.906 160.534 179.271 
185.934 177.129 179.919 148.185 130.263 130.737 127.176 119.59 149.625 
156.114 163.518 141.248 127.079 125.088 157.172 131.426 148.222 164.432 
159.17 168.304 176.524 179.567 164.8 187.172 200.132 155.484 165.312 
180.944 195.919 195.919 262.998 199.567 173.545 166.806 155.042 155.419 
150.89 160.878 170.149 193.927 160.731 175.585 154.375 169.571 163.458 
154.799 164.689 159.04 153.844 147.142 169.428 151.614 150.389 137.428 
141.527 145.784 133.521 126.323 158.397 169.915 154.79 141.638 141.638 
156.554 162.666 150.23 139.229 139.229 147.775 146.559 147.046 161.557 
144.042 138.06 127.557 109.813 126.056 132.491 133.984 137.044 138.021 
138.021 144.977 157.551 141.118 150.172 153.07 142.783 151.83 156.323 
149.915 149.915 133.928 116.426 129.781 121.905 128.06 170.421 180.312 
203.391 181.093 201.973 182.189 156.337 156.337 133.524 133.524 129.427 
126.212 129.967 123.333 135.253 143.955 147.816 153.088 152.179 148.168 
135.07 140.399 127.913 143.122 159.456 187.729 181.698 177.768 138.044 
152.571 154.823 139.254 139.254 126.652 119.958 119.958 114.531 108.234 
108.234 113.841 113.841 120.41 142.824 142.824 172.385 176.432 176.432 
165.322 179.32 175.225 180.813 193.078 
FIELD FieldData 7
DY_minmax 1 383 double
0.4584 0.395288 0.328297 0.563771 0.150095 0.293221 0.129949 0.180703 0.136165 
0.112029 0.295421 0.281823 0.387994 0.20022 1 0.334545 0.162142 0.317744 
0.346076 0.277239 0.198275 0.224307 0.263074 0.149384 0.313629 0.217261 0.179346 
0.226229 0.170336 0.216787 0.262819 0.189617 0.257406 0.243196 0.219188 0.264627 
0.231517 0.148899 0.174609 0.179383 0.238918 0.0823401 0.136462 0.120901 0.0833339 
0.195886 0.344096 0.27094 0.252432 0.252432 0.189346 0.173617 0.173617 0.303577 
0.220808 0.287624 0.240906 0.226253 0.357855 0.181234 0.211532 0.168958 0.212805 
0.176221 0.301775 0.390107 0.521284 0.727167 0.754622 0.724208 0.581355 0.534861 
0.409735 0.334894 0.334894 0.231314 0.268818 0.297978 0.234176 0.220285 0.19556 
0.20706 0.20706 0.251068 0.239462 0.272192 0.212949 0.204275 0.238118 0.204181 
0.204181 0.137626 0.10641 0.116851 0.0853132 0.08222 0.127652 0.0979857 0.118243 
0.145497 0.135276 0.123005 0.181734 0.263386 0.235838 0.269736 0.297967 0.157994 
0.126566 0.0749548 0.0965651 0.129577 0.101276 0.0908031 0.19083 0.171152 0.215995 
0.18237 0.152021 0.227653 0.303605 0.300698 0.292619 0.292619 0.413129 0.384098 
0.398823 0.369812 0.438228 0.564914 0.417756 0.417756 0.353816 0.375517 0.375517 
0.339861 0.269586 0.269586 0.358094 0.350349 0.293364 0.254911 0.22869 0.283708 
0.331303 0.301002 0.253551 0.288548 0.288548 0.304102 0.298182 0.309353 0.221842 
0.325612 0.375615 0.21485 0.308331 0.280177 0.156848 0.134964 0.205123 0.212743 
0.213596 0.141208 0.244318 0.242348 0.223661 0.391535 0.327296 0.377429 0.321726 
0.21142 0.273353 0.225557 0.173784 0.0703643 0.0808908 0.0493776 0 0.0134969 
0.0105401 0.0642741 0.0707135 0.0707135 0.123247 0.229556 0.268364 0.212973 0.212973 
0.289541 0.222675 0.29488 0.283251 0.242063 0.242063 0.168879 0.133641 0.133641 
0.136345 0.176962 0.293711 0.30597 0.308544 0.205277 0.350172 0.36302 0.380302 
0.236852 0.13205 0.21761 0.337402 0.430999 0.344651 0.279612 0.352834 0.431604 
0.623789 0.682522 0.578396 0.411098 0.411098 0.220875 0.1844 0.239156 0.162677 
0.277402 0.228991 0.170064 0.195079 0.20661 0.208827 0.270822 0.296184 0.380622 
0.410649 0.370971 0.383545 0.240531 0.159765 0.161901 0.145853 0.111667 0.247023 
0.276266 0.309633 0.20927 0.145414 0.136444 0.281031 0.165007 0.2407 0.31375 
0.290037 0.331201 0.368245 0.381958 0.31541 0.41623 0.474634 0.273425 0.317717 
0.388164 0.455648 0.455648 0.757945 0.472088 0.35482 0.324447 0.271436 0.273134 
0.252721 0.297734 0.339513 0.446673 0.297072 0.364011 0.268428 0.33691 0.309363 
0.270338 0.31491 0.289451 0.266036 0.23583 0.336266 0.255984 0.250463 0.192053 
0.210529 0.229712 0.174449 0.142009 0.286553 0.338461 0.270299 0.211028 0.211028 
0.278248 0.305794 0.249749 0.200171 0.200171 0.238682 0.233204 0.235401 0.300796 
0.22186 0.194905 0.147569 0.0676074 0.140804 0.169806 0.176534 0.190325 0.194726 
0.194726 0.226073 0.282743 0.208685 0.249488 0.262546 0.216189 0.25696 0.277209 
0.248327 0.248327 0.17628 0.0974079 0.157595 0.122098 0.149837 0.340742 0.385316 
0.489325 0.388836 0.482934 0.393772 0.277268 0.277268 0.174459 0.174459 0.155995 
0.141508 0.158429 0.128534 0.182255 0.221471 0.238868 0.262627 0.258532 0.240454 
0.181428 0.205443 0.149175 0.217714 0.291324 0.418742 0.391562 0.37385 0.19483 
0.260296 0.270449 0.200282 0.200282 0.143492 0.113323 0.113323 0.0888669 0.0604891 
0.0604891 0.0857559 0.0857559 0.115361 0.216371 0.216371 0.349591 0.367829 0.367829 
0.317761 0.380846 0.362392 0.387574 0.442848 
WidthEq 1 383 double
2.07607 3.09086 3.23064 1.96866 5.15824 3.10677 2.50414 2.29806 3.38504 
5.09088 1.14027 2.42609 2.39969 4.19254 1 3.43893 4.32447 3.57885 
2.70732 3.72832 3.66253 3.22959 2.19763 2.84316 1.69295 2.29839 2.63609 
2.56076 2.62471 2.43142 2.35857 2.3352 2.25117 2.31138 2.5347 2.56845 
2.73052 2.9488 3.18111 3.5122 3.69181 2.89946 2.89682 2.69074 2.59357 
2.2916 2.18753 2.1794 2.39925 2.39925 2.50732 2.6931 2.6931 2.70282 
2.82361 2.78003 3.06074 3.16646 3.24792 3.19254 2.83287 2.87801 2.93095 
3.4351 2.91541 2.55806 2.25277 1.94048 1.86154 1.92343 1.90234 1.99362 
1.91034 1.95052 1.95052 1.88525 1.76509 1.65367 1.77953 1.68178 1.6848 
1.80252 1.80252 1.9585 2.32379 2.23574 2.52948 2.50828 2.39019 2.49088 
2.49088 2.55627 2.58748 2.53394 2.4893 2.57933 2.49956 2.77484 2.95185 
2.92595 3.05105 2.99583 2.92789 2.84066 2.77334 2.7981 2.69365 2.81512 
2.95305 3.04565 2.99124 2.96598 2.615 2.55556 2.64442 3.11733 3.17534 
3.63973 3.98717 3.55865 2.16277 2.37798 2.66196 2.66196 2.44235 2.46697 
2.29568 2.15415 1.97231 1.71871 1.96852 1.96852 2.10469 1.93776 1.93776 
1.8859 2.14748 2.14748 2.05105 2.04238 2.04104 1.95057 2.04915 2.06692 
1.98773 2.17514 2.13769 2.14946 2.14946 2.04422 1.89554 1.91537 2.19581 
2.42631 2.36192 2.96891 3.02163 3.23877 3.76497 3.2003 3.10864 2.9734 
3.30445 3.96003 3.55631 3.38499 3.05078 2.89544 2.51096 2.46003 2.29353 
2.29211 2.22727 2.18939 2.24916 2.29992 2.32039 2.36913 2.33093 2.60595 
2.60677 2.6339 2.59821 2.59821 2.28995 2.0752 2.07889 1.94284 1.94284 
1.90204 2.12081 2.10777 2.39635 2.64898 2.64898 2.88421 2.95646 2.95646 
2.79203 2.87196 2.84157 2.71127 2.59571 2.6413 2.42438 2.63547 2.91713 
3.34359 3.43726 3.06501 2.79891 2.7224 3.20406 3.51728 3.26791 2.94915 
2.52331 2.33763 2.32563 2.45477 2.45477 2.61056 2.62352 2.61651 2.62525 
2.70364 2.90521 3.10678 3.20211 3.14586 2.77308 2.68975 2.38827 2.3441 
2.30738 2.33168 2.34377 2.66174 2.88324 3.22892 3.47573 3.54962 4.1676 
3.71433 3.28403 3.13788 2.98539 2.81673 2.47264 2.46632 4.00931 3.30495 
3.12345 2.97092 2.87886 2.58699 2.23252 2.36221 2.95535 2.79996 2.80469 
2.61727 2.29814 2.29814 1.45651 3.095 3.64706 3.95544 4.18098 4.18641 
4.36696 4.23227 4.11845 3.76027 3.58262 3.48641 3.49693 3.19494 3.26615 
3.05641 2.85786 2.83186 2.87355 3.00343 2.81275 3.24343 3.43655 3.79901 
3.66861 2.43915 2.43526 2.54165 2.44998 2.38972 2.37062 2.42582 2.42582 
2.4564 2.42059 2.45988 2.57367 2.57367 2.60369 2.30357 2.3672 1.57299 
2.29162 2.42343 2.58175 6.19258 5.52264 2.92238 2.75749 2.57508 2.41231 
2.41231 2.40024 2.48287 2.42661 2.36028 2.25615 2.24311 2.28096 2.12591 
2.33552 2.33552 2.46349 2.47847 2.40065 2.41343 2.37622 3.43701 3.03695 
2.47891 2.5261 2.36516 2.3643 2.63488 2.63488 2.80586 2.80586 2.80645 
2.87865 2.81287 2.58884 2.38832 2.44679 2.48687 2.40495 2.56401 2.56661 
2.49773 2.63897 3.14986 2.91933 2.97079 2.68338 3.14961 3.31736 3.97032 
3.69461 3.81847 3.87379 3.87379 3.73424 3.6507 3.6507 3.46342 3.36585 
3.36585 3.06129 3.06129 2.853 2.57233 2.57233 2.47655 2.56971 2.56971 
2.9748 2.98516 3.1585 3.16951 2.69729 
rRFP 1 383 double
3481.68 4087.07 4170.46 3417.6 5320.4 4096.56 3737.05 3614.11 4262.57 
5280.22 2923.41 3690.49 3674.74 4744.3 2839.73 4294.72 4823 4378.19 
3858.26 4467.36 4428.11 4169.83 3554.2 3939.3 3253.12 3614.31 3815.77 
3770.83 3808.98 3693.67 3650.21 3636.27 3586.14 3622.06 3755.28 3775.42 
3872.1 4002.32 4140.91 4338.43 4445.58 3972.89 3971.31 3848.37 3790.4 
3610.26 3548.17 3543.32 3674.48 3674.48 3738.95 3849.78 3849.78 3855.58 
3927.64 3901.64 4069.1 4132.17 4180.77 4147.73 3933.16 3960.09 3991.67 
4292.43 3982.4 3769.22 3587.09 3400.79 3353.7 3390.62 3378.04 3432.49 
3382.81 3406.78 3406.78 3367.84 3296.16 3229.69 3304.77 3246.46 3248.26 
3318.49 3318.49 3411.54 3629.46 3576.93 3752.17 3739.52 3669.07 3729.14 
3729.14 3768.15 3786.77 3754.83 3728.2 3781.91 3734.32 3898.54 4004.14 
3988.69 4063.32 4030.38 3989.85 3937.81 3897.65 3912.42 3850.11 3922.57 
4004.86 4060.1 4027.64 4012.57 3803.19 3767.73 3820.74 4102.86 4137.47 
4414.51 4621.78 4366.14 3533.4 3661.79 3831.2 3831.2 3700.19 3714.88 
3612.69 3528.26 3419.78 3268.49 3417.52 3417.52 3498.75 3399.17 3399.17 
3368.23 3524.28 3524.28 3466.75 3461.58 3460.78 3406.81 3465.62 3476.22 
3428.98 3540.78 3518.44 3525.46 3525.46 3462.68 3373.98 3385.81 3553.11 
3690.62 3652.21 4014.32 4045.77 4175.31 4489.22 4152.36 4097.68 4017 
4214.49 4605.59 4364.74 4262.54 4063.16 3970.49 3741.12 3710.74 3611.41 
3610.56 3571.88 3549.28 3584.94 3615.22 3627.43 3656.51 3633.72 3797.79 
3798.28 3814.46 3793.17 3793.17 3609.27 3481.16 3483.36 3402.2 3402.2 
3377.86 3508.37 3500.59 3672.75 3823.46 3823.46 3963.79 4006.89 4006.89 
3908.8 3956.48 3938.35 3860.62 3791.68 3818.88 3689.47 3815.4 3983.43 
4237.84 4293.72 4071.65 3912.9 3867.26 4154.6 4341.46 4192.69 4002.53 
3748.49 3637.72 3630.56 3707.6 3707.6 3800.54 3808.27 3804.09 3809.3 
3856.07 3976.32 4096.57 4153.44 4119.88 3897.49 3847.78 3667.93 3641.58 
3619.67 3634.17 3641.38 3831.07 3963.21 4169.43 4316.67 4360.75 4729.42 
4459.01 4202.31 4115.12 4024.15 3923.53 3718.26 3714.49 4634.99 4214.79 
4106.51 4015.52 3960.6 3786.48 3575.01 3652.38 4006.23 3913.53 3916.35 
3804.54 3614.16 3614.16 3112.07 4089.54 4418.88 4602.85 4737.4 4740.64 
4848.35 4768 4700.1 4486.42 4380.44 4323.04 4329.32 4149.16 4191.64 
4066.52 3948.07 3932.56 3957.43 4034.91 3921.16 4178.09 4293.3 4509.53 
4431.74 3698.28 3695.96 3759.43 3704.74 3668.79 3657.4 3690.33 3690.33 
3708.57 3687.21 3710.65 3778.53 3778.53 3796.44 3617.4 3655.36 3181.56 
3610.27 3688.9 3783.35 5937.46 5537.79 3986.56 3888.19 3779.37 3682.27 
3682.27 3675.07 3724.36 3690.8 3651.23 3589.11 3581.33 3603.91 3511.41 
3636.46 3636.46 3712.8 3721.74 3675.31 3682.94 3660.74 4293.57 4054.91 
3722 3750.15 3654.14 3653.63 3815.05 3815.05 3917.05 3917.05 3917.4 
3960.47 3921.23 3787.58 3667.96 3702.84 3726.75 3677.88 3772.77 3774.32 
3733.23 3817.49 4122.27 3984.74 4015.44 3843.98 4122.12 4222.19 4611.73 
4447.25 4521.14 4554.14 4554.14 4470.89 4421.05 4421.05 4309.33 4251.12 
4251.12 4069.43 4069.43 3945.17 3777.73 3777.73 3720.59 3776.17 3776.17 
4017.83 4024.01 4127.42 4133.99 3852.28 
rGFP 1 383 double
2797.36 2953.51 2931 2822.28 3050.21 2886.05 2698.98 2699.38 2812.57 
2998.58 2572.21 2771.09 2823.47 2973.12 2706.06 2970.69 2954.95 2981 
2853.94 2972.2 2897.74 2856.3 2726 2753.16 2667.68 2718.07 2744.19 
2760.69 2737.41 2736.84 2750.52 2709.01 2731.37 2733.23 2752.95 2783.69 
2788.51 2766.36 2814.21 2862.15 2935.1 2717.23 2751.72 2716.65 2683.21 
2706.23 2763.78 2727.01 2751.22 2751.22 2732.42 2748.44 2748.44 2827.68 
2795.41 2830.36 2843.16 2848.54 2955.2 2820.43 2790.91 2770.12 2805.64 
2849.36 2860.99 2853.32 2863.52 2886.44 2877.56 2880.81 2815.12 2814.98 
2744.16 2719.23 2719.23 2664.86 2661.99 2655.48 2650.54 2631.01 2622.2 
2643.07 2643.07 2684.15 2733.15 2736.36 2748.7 2740.86 2742.26 2738.37 
2738.37 2709.78 2695.77 2695.3 2672.49 2680.96 2697.14 2712.77 2746.67 
2761.23 2770.21 2755.16 2785.02 2824.7 2797.43 2822.12 2822.84 2754.95 
2752.27 2728.77 2737.05 2755.84 2696.05 2683.14 2752.05 2803.3 2842.6 
2881.73 2901.88 2906.52 2740.11 2773.48 2814.58 2814.58 2844.81 2833.51 
2810.17 2770.36 2768.14 2767.75 2758.47 2758.47 2754.14 2734.54 2734.54 
2710.38 2721.42 2721.42 2746.79 2741.77 2715.73 2684.62 2687.62 2715.44 
2723.94 2740.86 2712.3 2730.77 2730.77 2721.11 2694.49 2702.43 2705.63 
2794.7 2810.15 2812.38 2882.57 2897.78 2877.35 2788.62 2825.58 2811.63 
2859.27 2888.89 2919.33 2892.32 2830.01 2915.43 2809.78 2828.62 2770.54 
2714.2 2735.62 2706.51 2689.33 2643.32 2651 2639.93 2610.35 2644.23 
2642.6 2676.64 2676.46 2676.46 2669.09 2691.81 2710.25 2665.37 2665.37 
2691.89 2695.22 2727.11 2767.17 2782.79 2782.79 2770.89 2757.33 2757.33 
2738.54 2774.42 2843.96 2830.49 2813.17 2760.09 2807.59 2851.52 2912.1 
2882.09 2815.96 2827.95 2864.27 2907.83 2938.17 2941.06 2955.04 2951.41 
2977.86 2965.02 2908.33 2846.02 2846.02 2764.81 2745.44 2776.28 2733.02 
2812.11 2812.42 2801.15 2831.56 2831.84 2780.77 2806.01 2772.75 2809.58 
2818.37 2802.36 2811.04 2783.78 2764.93 2811.49 2831.38 2813.85 3012.93 
2969.21 2926.35 2832.57 2768.73 2741.69 2777.98 2713.49 2983.62 2932.79 
2886.51 2889.37 2897.54 2853.89 2757.27 2831.49 2980.81 2824.7 2853 
2862.93 2839.6 2839.6 2772.41 3007.01 3022.28 3049.14 3037.58 3040 
3048.28 3070.23 3090.1 3118.57 2965.19 3001.51 2929.19 2931.12 2923.23 
2862.48 2860.01 2839.73 2831.43 2831.28 2865.91 2881.1 2906.17 2911.44 
2908.56 2744.94 2714.51 2710.42 2777.42 2795.4 2756.3 2732.94 2732.94 
2773.91 2783.1 2758.9 2747.68 2747.68 2774.11 2726.96 2737.44 2643.48 
2719.44 2723.93 2718.67 3069.38 3085.51 2776.54 2758.81 2742.25 2722.3 
2722.3 2737.33 2780.53 2731.79 2743.8 2734.7 2709.63 2735.67 2721.68 
2739.48 2739.48 2719.28 2677.91 2700.91 2683.56 2693.65 2975.09 2936.95 
2893.54 2846.81 2867.05 2820.1 2801.28 2801.28 2764 2764 2752.58 
2752.67 2754.93 2708.64 2712.38 2741.58 2756.95 2757.52 2779.54 2769.64 
2726.72 2759.86 2792.26 2807.17 2863.06 2893.1 2961.63 2979.07 2937.43 
2953.04 2980.54 2928.79 2928.79 2862.3 2827.28 2827.28 2786.02 2753.65 
2753.65 2737.85 2737.85 2732.88 2756.74 2756.74 2816.27 2842.73 2842.73 
2881.15 2924.65 2942.8 2962.44 2910.14 
bkstRFP 1 383 double
1238.52 1843.91 1927.3 1174.44 3077.24 1853.4 1493.89 1370.95 2019.41 
3037.06 680.248 1447.33 1431.58 2501.14 596.568 2051.56 2579.84 2135.03 
1615.1 2224.2 2184.95 1926.67 1311.04 1696.14 1009.96 1371.15 1572.61 
1527.67 1565.82 1450.51 1407.05 1393.11 1342.98 1378.9 1512.12 1532.26 
1628.94 1759.16 1897.75 2095.27 2202.42 1729.73 1728.15 1605.21 1547.24 
1367.1 1305.01 1300.16 1431.32 1431.32 1495.79 1606.62 1606.62 1612.42 
1684.48 1658.48 1825.94 1889.01 1937.61 1904.57 1690 1716.93 1748.51 
2049.27 1739.24 1526.06 1343.93 1157.63 1110.54 1147.46 1134.88 1189.33 
1139.65 1163.62 1163.62 1124.68 1053 986.528 1061.61 1003.3 1005.1 
1075.33 1075.33 1168.38 1386.3 1333.77 1509.01 1496.36 1425.91 1485.98 
1485.98 1524.99 1543.61 1511.67 1485.04 1538.75 1491.16 1655.38 1760.98 
1745.53 1820.16 1787.22 1746.69 1694.65 1654.49 1669.26 1606.95 1679.41 
1761.7 1816.94 1784.48 1769.41 1560.03 1524.57 1577.58 1859.7 1894.31 
2171.35 2378.62 2122.98 1290.24 1418.63 1588.04 1588.04 1457.03 1471.72 
1369.53 1285.1 1176.62 1025.33 1174.36 1174.36 1255.59 1156.01 1156.01 
1125.07 1281.12 1281.12 1223.59 1218.42 1217.62 1163.65 1222.46 1233.06 
1185.82 1297.62 1275.28 1282.3 1282.3 1219.52 1130.82 1142.65 1309.95 
1447.46 1409.05 1771.16 1802.61 1932.15 2246.06 1909.2 1854.52 1773.84 
1971.33 2362.43 2121.58 2019.38 1820 1727.33 1497.96 1467.58 1368.25 
1367.4 1328.72 1306.12 1341.78 1372.06 1384.27 1413.35 1390.56 1554.63 
1555.12 1571.3 1550.01 1550.01 1366.11 1238 1240.2 1159.04 1159.04 
1134.7 1265.21 1257.43 1429.59 1580.3 1580.3 1720.63 1763.73 1763.73 
1665.64 1713.32 1695.19 1617.46 1548.52 1575.72 1446.31 1572.24 1740.27 
1994.68 2050.56 1828.49 1669.74 1624.1 1911.44 2098.3 1949.53 1759.37 
1505.33 1394.56 1387.4 1464.44 1464.44 1557.38 1565.11 1560.93 1566.14 
1612.91 1733.16 1853.41 1910.28 1876.72 1654.33 1604.62 1424.77 1398.42 