# vtk DataFile Version 3.0
vtk output
ASCII
DATASET POLYDATA
POINTS 586 float
6.39614 -0.880713 0.328389 5.96679 -0.0364936 0.394754 6.47229 -0.908096 -0.182796 
6.47847 -0.471659 -0.148995 6.30945 0.0217974 -0.135518 6.5585 -0.585207 -0.374721 
2.80665 -2.53839 0.517934 2.7303 -2.70694 0.34484 1.44617 -0.799531 0.591818 
6.07587 -1.22536 -0.945038 6.22705 -0.336686 -1.06152 5.53859 -1.09951 -1.06882 
5.77995 -0.627584 -1.18044 5.82364 -0.24361 -1.22408 0.206058 -0.950478 0.217114 
1.97489 -3.21573 -0.151516 3.41022 -0.988824 -0.839779 -0.179483 -0.857652 -0.160867 
-0.132987 -0.276507 -0.430775 -0.566514 -0.27045 -0.92706 0.337965 -2.85693 -1.74201 
1.80986 -3.10765 -2.13821 2.32225 -0.908571 -2.60911 2.18315 -0.70133 -2.72624 
0.775223 0.26355 -3.20278 1.80022 -0.848035 -3.29224 -0.281359 -2.47751 -2.73112 
0.509487 0.352071 -3.26758 0.530784 0.0101911 -3.59718 1.23906 -0.48715 -3.56704 
0.916571 -0.0231017 -3.50384 -0.972297 -2.0951 -3.17742 0.105699 -0.364789 -3.85624 
0.539881 -0.50696 -3.97922 0.48703 -0.527635 -3.96904 0.4164 -0.528228 -3.9705 
0.341108 -0.513979 -3.995 0.281434 -0.483626 -4.03337 0.227433 -0.45098 -4.05812 
0.175141 -0.424086 -4.03631 0.140695 -0.391252 -3.96605 0.56495 -0.432553 -3.89173 
0.562434 -0.375418 -3.82547 0.540229 -0.328068 -3.79123 0.511401 -0.282446 -3.77813 
0.490086 -0.230764 -3.76782 0.488479 -0.165868 -3.74132 0.49734 -0.0921124 -3.67989 
0.644225 -0.510099 -3.90236 0.744211 -0.514346 -3.83963 0.84195 -0.519059 -3.78393 
0.938686 -0.522303 -3.72803 1.03304 -0.516775 -3.66433 1.12443 -0.498056 -3.60851 
0.0539787 -0.387163 -3.84628 -0.0131868 -0.399203 -3.85568 -0.0848728 -0.419119 -3.89417 
-0.158061 -0.443993 -3.94735 -0.205646 -0.49289 -3.98323 -0.244229 -0.536458 -3.98344 
-0.275193 -0.579815 -3.96269 -0.302572 -0.634986 -3.95768 -0.347636 -0.680296 -3.97907 
-0.401896 -0.720201 -4.0136 -0.446895 -0.765598 -4.035 -0.468831 -0.82112 -4.01609 
-0.480743 -0.869195 -3.95421 -0.482995 -0.91981 -3.8718 -0.500748 -0.960018 -3.80874 
-0.529406 -1.00299 -3.78095 -0.557819 -1.06026 -3.78323 -0.58711 -1.11286 -3.77783 
-0.605722 -1.16936 -3.75209 -0.619686 -1.21817 -3.6973 -0.627395 -1.2719 -3.63627 
-0.641424 -1.32062 -3.58147 -0.658999 -1.37503 -3.54844 -0.690915 -1.41711 -3.5275 
-0.729911 -1.45313 -3.51263 -0.764008 -1.49576 -3.49874 -0.785884 -1.55136 -3.47984 
-0.805306 -1.60329 -3.44644 -0.808146 -1.66708 -3.39392 -0.803904 -1.73692 -3.33531 
-0.808926 -1.80126 -3.28984 -0.834953 -1.85476 -3.2776 -0.870993 -1.91223 -3.30082 
-0.924085 -1.95022 -3.32809 -0.976333 -1.97537 -3.32552 -0.987244 -2.02829 -3.27135 
0.122186 -0.287958 -3.84404 0.14683 -0.218625 -3.826 0.184836 -0.163804 -3.80317 
0.233559 -0.112672 -3.76004 0.308635 -0.0851739 -3.70765 0.403016 -0.0468111 -3.64652 
0.70771 -0.00453616 -3.54961 0.827728 -0.0143685 -3.51595 0.450519 0.0917946 -3.56582 
0.424277 0.16127 -3.51134 0.453194 0.246316 -3.41034 1.30045 -0.542157 -3.57391 
1.35742 -0.581798 -3.56507 1.42467 -0.606778 -3.53725 1.48149 -0.639636 -3.49779 
1.52856 -0.679 -3.4626 1.56773 -0.721118 -3.44807 1.60471 -0.763789 -3.44059 
1.64751 -0.804195 -3.41954 1.71007 -0.834751 -3.36651 1.22914 -0.404019 -3.6016 
1.19465 -0.348744 -3.64192 1.15066 -0.306052 -3.67834 1.11167 -0.263753 -3.69293 
1.08575 -0.218179 -3.66518 1.06766 -0.169919 -3.61673 1.05562 -0.116824 -3.57054 
1.03945 -0.0634687 -3.54641 0.987247 -0.0365083 -3.52462 0.971583 0.0645288 -3.35667 
1.00546 0.141225 -3.24099 0.994668 0.191405 -3.16904 0.943806 0.219907 -3.14519 
0.874895 0.246519 -3.16487 0.666686 0.135581 -3.39762 0.639732 0.351287 -3.19891 
0.7279 0.327144 -3.17761 0.461988 0.410655 -3.21604 0.426097 0.456438 -3.1619 
0.398967 0.496442 -3.09187 0.398728 0.5539 -3.01596 0.389445 0.602076 -2.92359 
0.352919 0.629689 -2.82894 0.311462 0.654555 -2.74035 0.277724 0.686627 -2.66246 
0.233621 0.708118 -2.58056 0.187927 0.715655 -2.49706 0.149895 0.709937 -2.41489 
0.101718 0.714217 -2.33814 0.0492387 0.717309 -2.27553 -0.00075273 0.706573 -2.23592 
-0.0549582 0.698026 -2.20294 -0.100138 0.677314 -2.17182 -0.140955 0.65771 -2.12657 
-0.188561 0.650745 -2.07244 -0.228683 0.64068 -2.00483 -0.271864 0.634735 -1.9366 
-0.307177 0.614701 -1.87746 -0.340877 0.585507 -1.83366 -0.3735 0.554862 -1.79008 
-0.403879 0.524683 -1.73946 -0.434256 0.494504 -1.68883 -0.468995 0.463217 -1.65231 
-0.51021 0.43018 -1.63699 -0.554707 0.394585 -1.63599 -0.595475 0.35047 -1.64325 
-0.620674 0.295854 -1.63118 -0.645032 0.254072 -1.58927 -0.658425 0.214972 -1.5121 
-0.662798 0.163724 -1.43675 -0.671317 0.114569 -1.36806 -0.674092 0.0506886 -1.31555 
-0.666447 -0.0200689 -1.25016 -0.651997 -0.090078 -1.17137 -0.625628 -0.153083 -1.08128 
-0.58998 -0.207499 -1.00249 -0.211601 -2.50707 -2.64927 -0.145728 -2.53617 -2.5896 
-0.105659 -2.5835 -2.53606 -0.047686 -2.62009 -2.46558 0.0386102 -2.64001 -2.36628 
0.122175 -2.66686 -2.2345 0.190706 -2.7057 -2.09713 0.242376 -2.75682 -1.96136 
0.291867 -2.8073 -1.84052 1.81425 -0.917332 -3.22116 1.84465 -0.973564 -3.15617 
1.91029 -1.00271 -3.09641 1.98569 -1.02399 -3.02474 2.07485 -1.02272 -2.93576 
2.16 -0.992638 -2.83227 2.24166 -0.951406 -2.72078 1.87749 -0.770956 -3.11613 
1.97341 -0.723023 -2.95517 2.0839 -0.703497 -2.82368 2.24772 -0.741544 -2.66139 
2.29145 -0.789316 -2.62839 2.3179 -0.841568 -2.61691 2.44251 -0.908499 -2.47523 
2.54655 -0.916627 -2.36678 2.62686 -0.93776 -2.28887 2.70523 -0.958071 -2.22597 
2.77079 -0.988614 -2.1583 2.83094 -1.02465 -2.08076 2.88755 -1.06234 -2.00976 
2.94181 -1.10071 -1.94577 2.99245 -1.14079 -1.88829 3.03195 -1.18856 -1.83455 
3.04453 -1.25414 -1.79442 3.034 -1.32873 -1.79308 3.00085 -1.40039 -1.83941 
2.94768 -1.46272 -1.91916 2.90239 -1.53566 -2.00052 2.86583 -1.6064 -2.05363 
2.83229 -1.66374 -2.06987 2.81214 -1.73214 -2.07383 2.7958 -1.80899 -2.08607 
2.77536 -1.88787 -2.1202 2.76024 -1.96131 -2.16419 2.7576 -2.02367 -2.20513 
2.74421 -2.08548 -2.21946 2.71866 -2.14001 -2.21506 2.69962 -2.20624 -2.21176 
2.67614 -2.27365 -2.22253 2.63824 -2.3321 -2.25288 2.60712 -2.40319 -2.29211 
2.58295 -2.48014 -2.32525 2.5594 -2.54746 -2.33601 2.52535 -2.59364 -2.32964 
2.49239 -2.63781 -2.31599 2.46616 -2.69452 -2.31121 2.43239 -2.74806 -2.31989 
2.39404 -2.80591 -2.35015 2.3375 -2.84274 -2.38422 2.26712 -2.85744 -2.40796 
2.20525 -2.87312 -2.41094 2.14463 -2.8835 -2.39917 2.09617 -2.90677 -2.38237 
2.0526 -2.93664 -2.36657 2.0042 -2.96 -2.34978 1.94684 -2.97128 -2.33118 
1.89887 -2.99295 -2.30947 1.85631 -3.01596 -2.27378 1.81943 -3.04132 -2.21374 
1.90416 -3.16156 -1.98946 1.96152 -3.22084 -1.83149 1.99387 -3.27413 -1.67145 
2.00527 -3.30683 -1.51432 2.00113 -3.33045 -1.37901 1.9834 -3.34607 -1.26347 
1.95687 -3.3469 -1.14636 1.94855 -3.34203 -1.00422 1.95449 -3.31046 -0.827127 
1.95921 -3.27263 -0.619048 1.97198 -3.23421 -0.392772 1.69121 -3.10848 -2.16886 
1.60284 -3.11381 -2.18779 1.54486 -3.13576 -2.18888 1.49475 -3.15577 -2.16924 
1.43568 -3.15426 -2.12778 1.37614 -3.14167 -2.06374 1.31765 -3.12698 -1.99239 
1.25698 -3.11285 -1.92811 1.19084 -3.10183 -1.88522 1.12634 -3.09981 -1.85767 
1.06999 -3.10935 -1.83951 1.01225 -3.10075 -1.82235 0.961344 -3.07401 -1.80872 
0.905482 -3.04892 -1.79343 0.853518 -3.02058 -1.77961 0.790257 -3.00125 -1.76158 
0.728289 -2.9809 -1.74403 0.683814 -2.94658 -1.73299 0.639258 -2.91232 -1.72191 
0.575803 -2.89315 -1.70381 0.500807 -2.88201 -1.68929 0.417582 -2.87388 -1.69532 
-0.578697 -0.311175 -0.850123 -0.578193 -0.372487 -0.783267 -0.572877 -0.443777 -0.724891 
-0.5686 -0.51716 -0.673808 -0.561995 -0.59001 -0.615708 -0.551759 -0.66115 -0.551087 
-0.530396 -0.724594 -0.482731 -0.486448 -0.771196 -0.414908 -0.42992 -0.808946 -0.343878 
-0.360822 -0.837845 -0.26967 -0.273493 -0.851008 -0.210087 -0.450756 -0.25765 -0.785011 
-0.347437 -0.237149 -0.655269 -0.240715 -0.240908 -0.540228 -0.0592289 -0.200051 -0.358491 
0.00308181 -0.149134 -0.311775 0.0521513 -0.110523 -0.298868 0.0885653 -0.0674118 -0.305725 
0.113829 -0.0128824 -0.317812 0.148057 0.0295692 -0.331719 0.188195 0.0640574 -0.346828 
0.231656 0.0975609 -0.355108 0.280618 0.130633 -0.34951 0.342096 0.157317 -0.323956 
0.415805 0.171019 -0.293372 0.484271 0.188288 -0.269238 0.54932 0.199685 -0.266908 
0.60104 0.22206 -0.276866 0.650585 0.243872 -0.293885 0.709088 0.253616 -0.312725 
0.764537 0.267472 -0.330944 0.824123 0.275757 -0.350003 0.879637 0.289525 -0.368236 
0.939287 0.297722 -0.387308 0.995944 0.309952 -0.405772 1.06265 0.308646 -0.426278 
1.13524 0.299223 -0.447966 1.20755 0.287258 -0.469366 1.27242 0.269221 -0.487993 
1.32592 0.242102 -0.502391 1.39079 0.224065 -0.521018 1.46316 0.212012 -0.542431 
1.53682 0.200984 -0.56432 1.60919 0.188932 -0.585733 1.67406 0.170889 -0.604357 
1.72748 0.143716 -0.61873 1.79082 0.124451 -0.636785 1.85271 0.104029 -0.654302 
1.89573 0.0685529 -0.664809 1.93125 0.0270856 -0.672527 1.97064 -0.0101069 -0.689554 
2.01922 -0.0387773 -0.717856 2.05562 -0.0759818 -0.749503 2.09646 -0.112018 -0.767068 
2.15304 -0.137864 -0.774741 2.21001 -0.165766 -0.766831 2.26877 -0.191058 -0.767453 
2.31397 -0.225985 -0.770898 2.35698 -0.261468 -0.781402 2.41138 -0.287868 -0.796135 
2.46181 -0.317432 -0.809395 2.51621 -0.343832 -0.824128 2.55923 -0.379314 -0.834633 
2.60224 -0.414797 -0.845138 2.65664 -0.441197 -0.859871 2.70707 -0.47076 -0.873131 
2.76139 -0.497226 -0.887833 2.80296 -0.533865 -0.897799 2.83695 -0.576554 -0.904949 
2.86957 -0.620334 -0.91159 2.90211 -0.664179 -0.918201 2.93465 -0.708024 -0.924812 
2.96719 -0.75187 -0.931423 2.99981 -0.795649 -0.938065 3.0338 -0.838339 -0.945214 
3.07755 -0.874423 -0.948121 3.13841 -0.899227 -0.941652 3.202 -0.9254 -0.912602 
3.27311 -0.946764 -0.878463 3.33816 -0.971781 -0.849952 -0.121385 -0.352581 -0.319546 
-0.119317 -0.406348 -0.222666 -0.10453 -0.461819 -0.145127 -0.0777971 -0.514929 -0.087018 
-0.0716264 -0.571667 -0.0378266 -0.0905764 -0.62461 -0.0122605 -0.112829 -0.693499 -0.0233091 
-0.142332 -0.773741 -0.0778588 -0.0673812 -0.864574 -0.0213261 0.0257963 -0.883494 0.0939047 
0.117549 -0.907229 0.168496 1.8531 -3.20962 -0.225811 1.76102 -3.19083 -0.307681 
1.67613 -3.17209 -0.386582 1.61187 -3.14126 -0.449494 1.56117 -3.1036 -0.491207 
1.51298 -3.06869 -0.502381 1.45648 -3.04278 -0.494739 1.40823 -3.01266 -0.474418 
1.36037 -2.9846 -0.438515 1.33044 -2.94579 -0.38567 1.30269 -2.90643 -0.325755 
1.26137 -2.87671 -0.268681 1.2174 -2.84555 -0.23422 1.166 -2.81913 -0.204859 
1.12194 -2.78804 -0.170367 1.07926 -2.7594 -0.112785 1.04401 -2.72602 -0.0500844 
1.00277 -2.69623 0.00695865 0.967745 -2.65793 0.0380954 0.935937 -2.61469 0.0523047 
0.901051 -2.57153 0.0519168 0.860521 -2.5305 0.0378956 0.805953 -2.49712 0.00549056 
0.740087 -2.47276 -0.0227264 0.691327 -2.43712 -0.0415597 0.666209 -2.38735 -0.0377071 
0.652447 -2.32851 -0.0380745 0.617725 -2.28522 -0.0385236 0.559866 -2.25803 -0.0461049 
0.515543 -2.22121 -0.050846 0.490501 -2.17138 -0.0470214 0.484743 -2.10972 -0.0267623 
0.472052 -2.05596 0.0118146 0.449682 -2.00874 0.0461172 0.417142 -1.9649 0.0527281 
0.374513 -1.92436 0.0316168 0.323647 -1.88921 0.00569548 0.27683 -1.85439 0.00187096 
0.268969 -1.79322 0.0150517 0.277325 -1.72384 0.0536671 0.27037 -1.66788 0.105853 
0.252524 -1.61942 0.154205 0.228056 -1.57269 0.181417 0.204462 -1.52171 0.184704 
0.18578 -1.46324 0.162563 0.150644 -1.41435 0.122937 0.116953 -1.36431 0.0827631 
0.11093 -1.29692 0.063789 0.129765 -1.21835 0.0932587 0.158889 -1.13549 0.150323 
0.185806 -1.04781 0.197322 2.04361 -3.12317 -0.011567 2.12809 -3.07115 0.113743 
2.21845 -3.04852 0.205855 2.2878 -3.01959 0.257305 2.33895 -2.98596 0.269963 
2.38465 -2.95199 0.26873 2.43254 -2.91746 0.274546 2.48798 -2.88264 0.301328 
2.55043 -2.85378 0.334197 2.61376 -2.82958 0.359377 2.65261 -2.78289 0.367028 
2.69017 -2.74142 0.359948 0.314329 -0.904233 0.317381 0.404002 -0.872723 0.396044 
0.488736 -0.865869 0.43671 0.564484 -0.862953 0.449363 0.629797 -0.848418 0.459142 
0.702594 -0.836985 0.482397 0.774515 -0.820875 0.513343 0.8543 -0.818857 0.535179 
0.9357 -0.825998 0.541689 1.01818 -0.83459 0.547982 1.10508 -0.842162 0.568371 
1.1941 -0.849091 0.595844 1.27979 -0.855036 0.616478 1.35189 -0.853142 0.617375 
1.40361 -0.830767 0.607417 5.80679 -0.30929 -1.21372 5.78341 -0.363261 -1.20226 
5.77657 -0.423412 -1.19542 5.78701 -0.482445 -1.19401 5.78715 -0.552011 -1.1886 
5.78223 -0.206846 -1.21418 5.73825 -0.172137 -1.20331 5.71708 -0.119215 -1.20093 
5.69203 -0.0693849 -1.1971 5.66086 -0.0244493 -1.191 5.62832 0.0193964 -1.18439 
5.59433 0.0620854 -1.17724 5.5551 0.0994038 -1.16027 5.51256 0.130383 -1.11846 
5.50462 0.179278 -1.04211 5.54797 0.243218 -0.928345 5.63771 0.287558 -0.780733 
5.75495 0.301981 -0.623729 5.86725 0.29724 -0.479234 5.94873 0.272427 -0.370285 
6.01363 0.242552 -0.310249 6.07675 0.218368 -0.296751 6.12936 0.189359 -0.302951 
6.18578 0.163381 -0.310563 6.23454 0.127737 -0.29173 6.27775 0.0817372 -0.231505 
5.89593 -0.255729 -1.24547 5.96371 -0.273082 -1.25467 6.02873 -0.29819 -1.23133 
6.11903 -0.316029 -1.16453 5.76173 -0.691615 -1.16978 5.72872 -0.735701 -1.15612 
5.68985 -0.771903 -1.14127 5.65684 -0.815989 -1.12761 5.63863 -0.880021 -1.11696 
5.62048 -0.94414 -1.10632 5.58861 -0.989765 -1.09289 5.55674 -1.03539 -1.07946 
5.85223 -0.639702 -1.20182 5.91703 -0.657805 -1.22041 5.969 -0.68614 -1.23425 
6.0233 -0.712612 -1.24895 6.06328 -0.750385 -1.25833 6.08347 -0.800453 -1.26841 
6.07387 -0.860424 -1.27629 6.0441 -0.916071 -1.28604 6.02909 -0.983187 -1.27355 
6.0324 -1.05628 -1.21959 6.0521 -1.1339 -1.10296 5.47424 -1.10138 -1.04879 
5.42688 -1.12263 -1.02471 5.38985 -1.15084 -0.987735 5.35568 -1.17242 -0.928841 
5.3207 -1.18941 -0.862269 5.30147 -1.23111 -0.806409 5.27264 -1.27036 -0.771099 
5.23462 -1.30421 -0.748918 5.19334 -1.33716 -0.733577 5.15092 -1.36857 -0.718005 
5.10258 -1.39202 -0.701232 5.04746 -1.40282 -0.675576 5.00561 -1.42452 -0.637619 
4.97512 -1.45107 -0.579475 4.94193 -1.47046 -0.513264 4.89433 -1.47743 -0.459144 
4.83773 -1.48974 -0.440692 4.76012 -1.49121 -0.455467 4.67 -1.48628 -0.490209 
4.57669 -1.48055 -0.531805 4.48439 -1.47618 -0.573606 4.40017 -1.47922 -0.609549 
4.3272 -1.49372 -0.640284 4.2488 -1.4945 -0.662645 4.16987 -1.48196 -0.693664 
4.10238 -1.46044 -0.728934 4.03262 -1.45677 -0.754314 3.97902 -1.477 -0.751721 
3.93386 -1.49756 -0.7206 3.88844 -1.50397 -0.659419 3.84825 -1.51395 -0.59179 
3.80175 -1.51891 -0.53039 3.75284 -1.5311 -0.491 3.69651 -1.54028 -0.465099 
3.64915 -1.56155 -0.441021 3.60615 -1.58171 -0.402833 3.56073 -1.58812 -0.341651 
3.52279 -1.59763 -0.266984 3.48397 -1.60246 -0.184637 3.4552 -1.62084 -0.10433 
3.43022 -1.64781 -0.0322959 3.40407 -1.67671 0.0324714 3.37479 -1.70488 0.0903713 
3.34293 -1.72607 0.156301 3.3091 -1.74461 0.22264 3.29698 -1.7959 0.277054 
3.28531 -1.85827 0.308878 3.2614 -1.91114 0.328192 3.23734 -1.96729 0.340033 
3.20325 -2.00992 0.353914 3.16658 -2.04541 0.375807 3.14161 -2.08676 0.410088 
3.1444 -2.14243 0.452474 3.16229 -2.19754 0.482374 3.15423 -2.25605 0.489456 
3.11524 -2.30275 0.474072 3.07406 -2.35002 0.451629 3.05952 -2.41028 0.437529 
3.06547 -2.47025 0.424844 3.05787 -2.53985 0.409336 3.02924 -2.60768 0.376865 
2.97879 -2.65604 0.334049 2.92007 -2.69342 0.292928 2.85969 -2.7181 0.274643 
2.79413 -2.71834 0.294917 5.60048 -1.11993 -1.08633 5.64495 -1.15425 -1.09738 
5.68951 -1.1885 -1.10846 5.75588 -1.20698 -1.11714 5.84071 -1.21628 -1.10116 
5.94682 -1.2215 -1.04024 6.3333 -0.370909 -0.985409 6.39814 -0.419688 -0.877214 
6.45697 -0.467601 -0.738727 6.50902 -0.524041 -0.566374 6.28349 -0.23103 -0.918802 
6.32818 -0.144583 -0.776126 6.34759 -0.0817439 -0.634152 6.34898 -0.0340929 -0.485431 
6.33151 -0.00313119 -0.319192 6.17438 -1.24273 -0.867861 6.25391 -1.21051 -0.765381 
6.32082 -1.1341 -0.618419 6.39354 -1.03252 -0.418215 2.76739 -2.62294 0.427861 
6.5076 -0.561949 -0.321945 6.48428 -0.52142 -0.247957 6.54856 -0.660375 -0.365746 
6.53412 -0.727276 -0.350848 6.51335 -0.780744 -0.319506 6.49824 -0.84288 -0.263305 
6.30405 4.80546e-005 3.19827e-005 6.28866 -0.0123047 0.122373 6.25603 0.00069865 0.216953 
6.21907 0.0299826 0.280494 6.16201 0.0479679 0.320032 6.10008 0.0494457 0.346827 
6.05062 0.027691 0.363815 6.00814 -0.0036317 0.379401 6.43793 -0.893292 0.000300783 
6.41984 -0.8916 0.169018 
LINES 41 677
9 33 34 35 36 37 38 39 40 32 
9 33 41 42 43 44 45 46 47 28 
8 33 48 49 50 51 52 53 29 
38 32 54 55 56 57 58 59 60 61 62 63 64 65 66 67 68 69 70 71 72 73 74 75 76 77 78 79 80 81 82 83 84 85 86 87 88 89 31 
8 32 90 91 92 93 94 95 28 
4 28 96 97 30 
5 28 98 99 100 27 
11 29 101 102 103 104 105 106 107 108 109 25 
11 29 110 111 112 113 114 115 116 117 118 30 
7 30 119 120 121 122 123 24 
3 28 124 24 
4 27 125 126 24 
41 27 127 128 129 130 131 132 133 134 135 136 137 138 139 140 141 142 143 144 145 146 147 148 149 150 151 152 153 154 155 156 157 158 159 160 161 162 163 164 165 19 
9 25 175 176 177 178 179 180 181 22 
48 22 188 189 190 191 192 193 194 195 196 197 198 199 200 201 202 203 204 205 206 207 208 209 210 211 212 213 214 215 216 217 218 219 220 221 222 223 224 225 226 227 228 229 230 231 232 233 21 
13 21 234 235 236 237 238 239 240 241 242 243 244 15 
13 19 267 268 269 270 271 272 273 274 275 276 277 17 
5 19 278 279 280 18 
68 18 281 282 283 284 285 286 287 288 289 290 291 292 293 294 295 296 297 298 299 300 301 302 303 304 305 306 307 308 309 310 311 312 313 314 315 316 317 318 319 320 321 322 323 324 325 326 327 328 329 330 331 332 333 334 335 336 337 338 339 340 341 342 343 344 345 346 16 
10 18 347 348 349 350 351 352 353 354 17 
5 17 355 356 357 14 
53 15 358 359 360 361 362 363 364 365 366 367 368 369 370 371 372 373 374 375 376 377 378 379 380 381 382 383 384 385 386 387 388 389 390 391 392 393 394 395 396 397 398 399 400 401 402 403 404 405 406 407 408 14 
14 15 409 410 411 412 413 414 415 416 417 418 419 420 7 
17 14 421 422 423 424 425 426 427 428 429 430 431 432 433 434 435 8 
7 13 436 437 438 439 440 12 
23 13 441 442 443 444 445 446 447 448 449 450 451 452 453 454 455 456 457 458 459 460 461 4 
6 13 462 463 464 465 10 
10 12 466 467 468 469 470 471 472 473 11 
13 12 474 475 476 477 478 479 480 481 482 483 484 9 
67 11 485 486 487 488 489 490 491 492 493 494 495 496 497 498 499 500 501 502 503 504 505 506 507 508 509 510 511 512 513 514 515 516 517 518 519 520 521 522 523 524 525 526 527 528 529 530 531 532 533 534 535 536 537 538 539 540 541 542 543 544 545 546 547 548 549 7 
8 11 550 551 552 553 554 555 9 
6 10 556 557 558 559 5 
7 10 560 561 562 563 564 4 
6 9 565 566 567 568 2 
3 7 569 6 
4 5 570 571 3 
6 5 572 573 574 575 2 
10 4 576 577 578 579 580 581 582 583 1 
4 2 584 585 0 
34 26 166 167 168 169 170 171 172 173 174 20 266 265 264 263 262 261 260 259 258 257 256 255 254 253 252 251 250 249 248 247 246 245 21 
9 25 182 183 184 23 185 186 187 22 

POINT_DATA 586
SCALARS DY_raw double
LOOKUP_TABLE default
408.704 135.6 347.564 411.363 296.161 311.957 292.182 238.003 123.569 
280.694 294.945 260.026 338.388 440.159 264.321 339.869 528.569 202.114 
217.945 221.182 308.087 240.754 282.089 361.368 317.868 238.555 293.339 
292.611 287.994 246.552 211.253 507.094 260.626 185.246 230.122 266.145 
261.856 229.591 205.136 205.136 232.19 269.595 296.241 325.79 240.727 
239.412 260.935 262.969 230.456 271.058 271.13 300.107 294.576 292.376 
267.284 296.974 306.128 284.708 265.964 249.252 297.691 297.691 300.671 
297.697 297.697 320.542 342.679 389.909 392.435 396.431 396.431 358.858 
356.503 314.518 363.348 343.592 342.305 347.866 326.135 336.801 374.472 
364.845 335.327 350.315 306.731 253.962 272.064 265.764 265.764 259.397 
292.104 278.381 305.948 299.597 288.557 304.837 247.261 270.885 278.365 
282.86 264.446 232.709 224.692 286.745 328.279 310.507 316.736 238.932 
234.888 270.796 233.3 235.086 241.12 208.494 208.494 223.28 202.485 
202.485 226.319 335.225 326.482 365.736 335.362 337.181 284.023 307.108 
296.84 278.292 323.42 303.669 307.404 249.858 291.649 305.132 288.984 
275.275 273.6 288.371 306.753 325.342 310.345 300.875 300.875 291.13 
275.802 300.719 288.023 307.358 307.358 300.412 300.412 296.572 295.985 
295.985 283.072 279.067 279.067 264.642 280.519 324.902 334.455 325.629 
299.867 285.199 268.838 288.727 330.87 310.487 223.747 291.141 266.468 
280.555 359.863 292.911 288.12 261.895 276.735 271.916 291.462 297 
290.79 262.801 272.235 268.454 308.742 292.642 311.981 274.727 301.164 
319.906 272.122 323.25 370.45 365.337 392.405 369.461 265.413 278.851 
275.281 244.234 252.313 213.796 226.985 294.899 257.052 279.836 284.847 
315.568 334.332 329.089 317.204 361.743 394.945 440.888 362.589 393.141 
334.002 310.916 402.199 320.179 362.733 312.178 272.607 264.008 271.859 
264.066 258.97 258.97 262.708 221.592 221.592 190.367 213.512 242.528 
276.736 275.484 272.471 297.638 309.755 316.32 310.217 324.363 292.374 
273.309 260.732 234.874 233.794 237.147 251.102 268.385 256.94 262.602 
222.39 222.894 210.978 240.452 274.022 296.172 296.172 295.395 295.395 
277.659 291.336 291.336 309.731 318.773 299.095 271.938 243.993 275.937 
358.074 407.344 410.244 325.437 350.116 267.565 235.386 247.514 298.546 
318.008 253.346 208.989 216.056 294.197 311.746 300.667 300.667 264.58 
256.797 278.216 261.7 264.164 256.015 303.189 303.189 278.223 330.155 
307.182 331.768 327.249 327.249 331.746 329.491 350.826 339.467 342.229 
331.001 312.433 298.98 298.98 280.362 269.449 244.418 325.557 361.895 
361.895 453.64 476.994 411.312 314.916 314.916 291.388 241.181 272.329 
240.726 318.61 318.61 332.495 339.416 339.416 335.233 334.867 273.39 
293.57 293.57 309.262 336.973 336.973 359.24 370.166 335.171 335.368 
332.626 332.626 389.776 445.491 499.772 227.957 272.84 293.107 353.254 
351.565 353.54 282.176 253.519 228.537 264.772 263.575 346.326 367.356 
363.551 340.638 303.549 266.038 244.309 232.781 263.394 240.664 249.253 
288.845 304.095 300.504 320.78 320.235 383.956 402.957 358.457 358.457 
435.491 404.843 365.395 328.823 316.75 316.75 301.636 290.079 260.997 
227.028 227.028 216.784 224.168 256.499 269.62 258.278 225.605 248.65 
213.272 246.254 325.208 313.512 313.512 313.858 313.858 239.926 275.595 
235.814 256.836 257.975 257.151 334.725 316.327 323.792 275.665 275.665 
235.685 205.335 240.756 267.162 235.168 259.914 226.547 276.266 282.168 
271.131 292.568 260.488 302.646 330.001 279.564 273.797 273.591 255.394 
266.06 208.186 187.426 187.426 411.954 451.65 447.566 445.108 395.614 
466.307 466.307 468.149 374.399 374.399 260.886 260.886 234.367 220.948 
258.963 214.561 210.168 301.999 349.439 437.248 398.382 420.719 318.819 
318.819 310.107 286.112 359.751 332.264 310.911 304.289 347.973 414.505 
358.294 369.316 413.09 340.979 297.486 286.112 338.388 302.443 347.079 
392.303 392.303 397.984 395.899 392.032 353.578 304.728 270.116 273.642 
273.642 291.788 297.063 312.701 290.832 250.976 250.976 254.761 254.761 
231.535 178.055 204.945 215.071 229.813 229.813 207.521 206.566 188.961 
146.553 153.596 173.387 193.228 208.805 206.064 219.753 205.081 209.475 
229.435 275.279 300.926 337.705 350.529 350.529 292.944 292.944 274.276 
216.564 233.054 254.666 244.856 309.881 247.8 265.279 294.509 293.476 
275.451 275.962 251.045 251.045 227.664 234.759 238.211 238.108 219.842 
226.38 192.65 215.422 215.68 224.631 250.188 256.485 239.588 213.803 
211.091 254.924 262.083 269.328 296.423 301.352 294.273 230.156 263.488 
294.397 289.205 288.323 259.338 270.444 280.783 274.42 208.376 219.899 
265.894 309.821 286.269 363.851 378.21 343.032 356.326 325.648 344.286 
281.332 327.313 367.233 375.134 334.606 272.734 272.734 181.024 336.441 
396.804 
FIELD FieldData 7
DY_minmax 1 586 double
0.704038 0.0297058 0.553075 0.710603 0.426154 0.465156 0.416329 0.282554 0 
0.387964 0.423151 0.336931 0.530418 0.781705 0.347535 0.534076 1 0.193937 
0.233028 0.241019 0.455601 0.289345 0.391408 0.587159 0.479752 0.283917 0.419185 
0.417389 0.405989 0.303661 0.216504 0.946976 0.338412 0.152288 0.263095 0.35204 
0.341451 0.261783 0.201399 0.201399 0.2682 0.360558 0.42635 0.499311 0.289278 
0.286033 0.339176 0.344198 0.26392 0.36417 0.364349 0.435897 0.422239 0.416806 
0.354851 0.42816 0.450764 0.397874 0.351592 0.31033 0.429932 0.429932 0.43729 
0.429946 0.429946 0.486353 0.541013 0.657631 0.663867 0.673733 0.673733 0.580961 
0.575147 0.47148 0.592046 0.543267 0.540089 0.55382 0.500164 0.526499 0.619515 
0.595743 0.522859 0.559866 0.452251 0.321957 0.366654 0.351098 0.351098 0.335378 
0.416137 0.382253 0.450318 0.434637 0.407379 0.447575 0.305412 0.363744 0.382212 
0.393311 0.347845 0.269481 0.249686 0.402905 0.505457 0.461575 0.476957 0.284846 
0.274863 0.363523 0.270942 0.275352 0.290248 0.209691 0.209691 0.246201 0.194856 
0.194856 0.253703 0.522609 0.50102 0.597943 0.522947 0.527438 0.396182 0.453183 
0.427831 0.382033 0.493459 0.444691 0.453914 0.311824 0.415012 0.448305 0.408432 
0.374582 0.370447 0.406919 0.452306 0.498205 0.461174 0.437793 0.437793 0.413732 
0.375885 0.437408 0.406059 0.453799 0.453799 0.436649 0.436649 0.427167 0.425719 
0.425719 0.393836 0.383945 0.383945 0.348329 0.387531 0.49712 0.520705 0.498914 
0.435304 0.399087 0.358689 0.407797 0.511853 0.461526 0.247353 0.413759 0.352837 
0.387621 0.583442 0.41813 0.406298 0.341546 0.378187 0.366288 0.414552 0.428224 
0.412891 0.343784 0.367077 0.357741 0.457218 0.417465 0.465215 0.373229 0.438506 
0.484782 0.366798 0.493041 0.609584 0.59696 0.663793 0.607142 0.350233 0.383413 
0.374598 0.297939 0.317886 0.222782 0.255347 0.423038 0.329587 0.385845 0.398218 
0.474073 0.520402 0.507458 0.478113 0.588084 0.670066 0.783506 0.590172 0.66561 
0.519587 0.462585 0.687975 0.485457 0.590529 0.465701 0.367995 0.346763 0.366147 
0.346906 0.334322 0.334322 0.343554 0.242033 0.242033 0.164934 0.222082 0.293727 
0.37819 0.375099 0.36766 0.429801 0.45972 0.475928 0.46086 0.495789 0.416803 
0.36973 0.338675 0.274827 0.272161 0.28044 0.314896 0.35757 0.329311 0.343293 
0.244003 0.245247 0.215825 0.288599 0.37149 0.42618 0.42618 0.424261 0.424261 
0.38047 0.41424 0.41424 0.459659 0.481987 0.433397 0.366343 0.297344 0.376218 
0.579024 0.700679 0.707841 0.498439 0.559377 0.355546 0.27609 0.306036 0.432043 
0.480096 0.320438 0.210914 0.228363 0.421303 0.464634 0.437279 0.437279 0.348176 
0.328959 0.381844 0.341065 0.347149 0.327028 0.443506 0.443506 0.381863 0.51009 
0.453366 0.514073 0.502914 0.502914 0.514019 0.508451 0.561129 0.533082 0.539901 
0.512179 0.466331 0.433113 0.433113 0.387143 0.360197 0.298392 0.498735 0.588461 
0.588461 0.814991 0.872655 0.710478 0.472463 0.472463 0.414369 0.290401 0.36731 
0.289278 0.481584 0.481584 0.515866 0.532957 0.532957 0.522628 0.521725 0.369928 
0.419757 0.419757 0.458502 0.526923 0.526923 0.581905 0.608883 0.522474 0.522961 
0.51619 0.51619 0.657303 0.79487 0.928898 0.257748 0.368572 0.418612 0.567123 
0.562954 0.567829 0.391623 0.320863 0.25918 0.34865 0.345693 0.550018 0.601944 
0.592548 0.535973 0.444395 0.351775 0.298123 0.269659 0.345248 0.289124 0.310331 
0.40809 0.445743 0.436877 0.486942 0.485596 0.642931 0.689848 0.579971 0.579971 
0.770178 0.694504 0.597101 0.5068 0.47699 0.47699 0.439671 0.411135 0.339328 
0.255454 0.255454 0.23016 0.248392 0.328222 0.36062 0.332616 0.251941 0.308841 
0.221489 0.302926 0.497874 0.468996 0.468996 0.469851 0.469851 0.287302 0.375372 
0.277149 0.329055 0.331866 0.329832 0.521374 0.475946 0.494378 0.375547 0.375547 
0.276829 0.201891 0.289351 0.354552 0.275554 0.336655 0.254267 0.37703 0.391603 
0.364352 0.417283 0.338072 0.442166 0.50971 0.385174 0.370935 0.370425 0.325494 
0.35183 0.20893 0.157672 0.157672 0.712064 0.810078 0.799994 0.793924 0.671717 
0.846268 0.846268 0.850817 0.619335 0.619335 0.339056 0.339056 0.273575 0.240443 
0.334307 0.224673 0.213825 0.440568 0.557705 0.774516 0.678552 0.733705 0.482098 
0.482098 0.460589 0.40134 0.583165 0.515298 0.462572 0.446224 0.554084 0.718362 
0.579569 0.606784 0.714867 0.536816 0.429425 0.401341 0.530418 0.441663 0.551877 
0.66354 0.66354 0.677569 0.67242 0.662873 0.567923 0.447307 0.361845 0.370551 
0.370551 0.415357 0.428381 0.466992 0.412995 0.314585 0.314585 0.323931 0.323931 
0.266582 0.134533 0.200928 0.225931 0.262332 0.262332 0.207288 0.20493 0.161461 
0.0567495 0.0741397 0.123008 0.171997 0.21046 0.20369 0.237491 0.201264 0.212114 
0.261397 0.374593 0.437919 0.528732 0.560396 0.560396 0.418211 0.418211 0.372116 
0.229617 0.270333 0.323695 0.299474 0.46003 0.306743 0.349902 0.422075 0.419523 
0.375018 0.37628 0.314756 0.314756 0.257025 0.274543 0.283066 0.282813 0.237711 
0.253854 0.170571 0.226797 0.227434 0.249535 0.312639 0.328189 0.286466 0.222801 
0.216104 0.324334 0.342009 0.3599 0.4268 0.43897 0.421492 0.263178 0.345479 
0.421798 0.408978 0.4068 0.335232 0.362655 0.388182 0.372471 0.209401 0.237853 
0.351419 0.459881 0.401728 0.593289 0.628743 0.541885 0.574709 0.498961 0.544981 
0.389539 0.503071 0.601641 0.621148 0.52108 0.36831 0.36831 0.141863 0.525611 
0.674655 
WidthEq 1 586 double
1.1135 1.20354 1.61015 1.26922 1.76556 1.33724 1.40238 1.99867 1.45878 
2.06107 2.09815 1.56457 1.42892 1.19284 4.42039 3.08354 1.24934 4.40846 
4.98354 5.43544 4.39019 3.51467 4.61617 4.08423 3.94075 4.0949 3.80481 
3.93324 4.1364 3.24204 3.44283 1.10983 3.44732 4.21915 3.92443 3.44763 
3.16582 3.17961 3.16897 3.16897 3.59667 3.74024 3.58688 3.21594 3.64401 
3.71518 3.86115 4.1133 3.97607 3.87327 3.85645 3.4452 3.25085 3.2487 
3.39265 2.9909 3.04699 2.77909 2.56599 2.67488 2.19173 2.19173 2.11267 
2.08584 2.08584 1.97225 1.93507 1.83266 1.97819 1.99346 1.99346 2.13483 
2.09768 2.23904 2.11861 2.19539 2.27809 2.36324 2.47238 2.47689 2.1115 
2.22834 2.2368 2.23636 2.45796 2.51833 2.63394 2.6419 2.6419 2.38025 
3.20016 3.12122 2.82205 3.08925 3.45186 3.78042 4.02458 3.79042 4.18027 
4.1335 4.20864 3.1264 2.84398 2.54989 2.56511 2.684 2.68532 3.05677 
3.34963 3.35563 3.08139 2.98835 2.71774 2.32208 2.32208 2.51496 2.95903 
2.95903 3.2992 3.05201 2.88757 2.8236 2.99971 3.47335 4.18276 3.9434 
4.01192 3.68056 3.58559 3.59928 3.51606 3.12886 2.94855 2.93128 2.86358 
2.92642 3.19467 2.97055 2.96196 2.82429 2.77089 2.85427 2.85427 2.62968 