# vtk DataFile Version 3.0
vtk output
ASCII
DATASET POLYDATA
POINTS 359 float
0.659984 -0.499506 0.21681 0.80659 -0.543637 0.244361 1.85523 -1.29601 0.339707 
-0.112986 0.0446785 -1.244 0.423473 -0.850745 -0.404796 2.07148 -1.87462 -0.0542456 
1.43726 0.630519 -0.352513 0.501383 -0.71727 -0.60558 0.14931 -1.59301 -0.866824 
-0.058221 -1.08758 -1.07562 0.241283 0.00523258 -1.20388 3.02315 -0.959494 -0.578227 
-0.124402 -1.03253 -1.29406 -0.157398 -0.875555 -1.3794 4.65019 -0.201583 -0.775571 
0.473633 -2.19791 -1.51199 1.24991 0.207458 -1.57031 1.394 0.285887 -1.55266 
3.43128 -0.773965 -1.13524 1.69433 0.230608 -1.70222 2.78277 -0.220651 -1.55587 
3.39107 -0.674423 -1.42061 3.60273 -0.465645 -1.33415 3.16395 -0.665672 -1.66196 
2.5261 -0.534347 -2.5225 2.10556 -0.581111 -2.99468 2.16311 -1.82193 -3.09247 
2.03423 -1.45833 -3.14183 2.06222 -1.4141 -3.07288 2.07085 -1.35454 -3.02337 
2.05689 -1.29881 -3.00739 2.04916 -1.24484 -3.03543 2.06403 -1.18086 -3.07557 
2.0764 -1.11581 -3.10116 2.05973 -1.05927 -3.08569 2.03073 -1.0058 -3.04943 
2.00886 -0.948434 -3.01229 2.00546 -0.884793 -2.99519 2.00248 -0.825407 -2.99275 
2.02021 -0.767222 -2.99433 2.05372 -0.717524 -2.99266 2.08186 -0.653674 -2.99297 
2.19643 -1.79039 -2.99155 2.23839 -1.77232 -2.91828 2.28997 -1.78562 -2.87864 
2.33461 -1.81855 -2.85369 2.38334 -1.85022 -2.82063 2.42233 -1.88366 -2.76645 
2.46334 -1.91356 -2.69715 2.48842 -1.95093 -2.62237 2.50516 -1.99161 -2.54118 
2.52832 -2.02636 -2.44433 2.57018 -2.04594 -2.31545 2.61677 -2.05591 -2.15643 
2.65477 -2.05226 -1.96976 2.67797 -2.02359 -1.77241 2.69365 -1.98232 -1.56974 
2.70506 -1.93116 -1.37607 2.71305 -1.86831 -1.20645 2.73401 -1.82157 -1.07109 
2.7655 -1.78631 -0.970761 2.80055 -1.75264 -0.892301 2.83256 -1.70975 -0.830116 
2.85454 -1.64425 -0.786398 2.87463 -1.57 -0.76625 2.89624 -1.49518 -0.760951 
2.919 -1.42083 -0.762958 2.94056 -1.34591 -0.757674 2.95972 -1.26987 -0.737819 
2.97527 -1.19213 -0.696104 2.98963 -1.11384 -0.647088 3.00519 -1.0361 -0.605372 
2.03106 -0.558482 -3.00117 1.95535 -0.535289 -3.00037 1.87735 -0.510916 -2.98498 
1.80093 -0.485678 -2.9694 1.73093 -0.45451 -2.93816 1.67456 -0.414708 -2.89782 
1.61133 -0.376333 -2.84344 1.55585 -0.338222 -2.80282 1.49373 -0.318631 -2.78444 
1.43215 -0.318248 -2.77956 1.36083 -0.304895 -2.76975 1.28121 -0.281138 -2.73952 
1.19836 -0.254658 -2.69497 1.11546 -0.22808 -2.65044 1.03501 -0.202729 -2.62048 
0.958992 -0.180664 -2.61212 0.888867 -0.167874 -2.60959 0.826089 -0.166927 -2.59742 
0.761533 -0.146353 -2.56447 0.705243 -0.110856 -2.52377 0.639483 -0.08973 -2.48353 
0.571906 -0.0865273 -2.4422 0.492229 -0.0693151 -2.38137 0.399253 -0.040717 -2.26602 
0.288397 -0.012038 -2.04866 0.131427 0.0104098 -1.69359 2.1561 -0.566649 -2.95736 
2.21494 -0.57149 -2.90213 2.27338 -0.577275 -2.83936 2.32486 -0.569781 -2.77876 
2.37912 -0.565867 -2.72496 2.42522 -0.548109 -2.66604 2.4709 -0.531294 -2.59959 
2.56357 -0.575915 -2.51311 2.61427 -0.610286 -2.50211 2.66046 -0.64711 -2.49165 
2.71155 -0.680048 -2.47316 2.75423 -0.715127 -2.44083 2.79942 -0.745194 -2.3859 
2.83774 -0.77644 -2.31694 2.8876 -0.796795 -2.23186 2.93845 -0.800862 -2.13282 
2.9769 -0.780813 -2.02264 3.01499 -0.759139 -1.91516 3.06239 -0.748998 -1.8203 
3.10984 -0.719222 -1.7395 2.53305 -0.453986 -2.42217 2.54782 -0.385103 -2.33472 
2.57744 -0.341085 -2.25796 2.61378 -0.308166 -2.18677 2.64995 -0.27764 -2.10286 
2.68648 -0.253664 -1.98074 2.73051 -0.241509 -1.79375 3.41593 -0.583727 -1.39091 
3.44889 -0.524136 -1.36751 3.50162 -0.507813 -1.35004 3.55382 -0.490097 -1.34031 
3.24059 -0.676423 -1.59079 3.3069 -0.671017 -1.51252 3.10527 -0.58526 -1.54733 
3.04335 -0.531987 -1.4713 3.01155 -0.479309 -1.44047 3.00494 -0.419241 -1.43616 
2.97957 -0.371085 -1.44406 2.9326 -0.335046 -1.4571 2.89593 -0.293901 -1.47636 
2.85431 -0.253036 -1.50896 3.4185 -0.729325 -1.27882 2.73911 -0.136929 -1.46914 
2.68992 -0.0779406 -1.39899 2.6305 -0.0378665 -1.35666 2.5804 0.000965079 -1.34282 
2.52859 0.0359484 -1.34653 2.49272 0.0783858 -1.35572 2.46518 0.124143 -1.37132 
2.43127 0.163875 -1.40256 2.37829 0.187404 -1.45828 2.32154 0.194342 -1.52087 
2.2747 0.178241 -1.58003 2.2274 0.161047 -1.63166 2.17434 0.156569 -1.69275 
2.12401 0.148607 -1.76065 2.06584 0.155616 -1.831 2.00062 0.172605 -1.88824 
1.92862 0.193914 -1.90926 1.85025 0.21701 -1.88631 1.76892 0.233694 -1.81064 
3.38374 -0.818293 -1.06435 3.32671 -0.839357 -1.0194 3.27902 -0.878215 -0.97154 
3.22702 -0.915763 -0.894378 3.16759 -0.947757 -0.781222 3.09341 -0.951607 -0.672672 
3.49696 -0.78323 -1.11618 3.55324 -0.777993 -1.08473 3.60745 -0.773981 -1.03095 
3.65376 -0.754902 -0.97962 3.69814 -0.726971 -0.95189 3.74345 -0.690468 -0.969839 
3.78081 -0.633631 -1.01327 3.81781 -0.577823 -1.04913 3.86495 -0.54998 -1.04352 
3.91849 -0.542957 -0.997616 3.9635 -0.52313 -0.939029 4.00548 -0.494072 -0.896728 
4.04715 -0.455789 -0.892831 4.08242 -0.396686 -0.929235 4.11639 -0.331648 -0.981386 
4.15918 -0.285161 -1.02311 4.22231 -0.282649 -1.03549 4.28852 -0.289457 -1.0316 
4.34287 -0.275366 -1.02374 4.39183 -0.251011 -1.01756 4.43997 -0.225061 -1.01165 
4.48773 -0.200142 -0.998179 4.53738 -0.18398 -0.96114 4.59347 -0.188734 -0.883784 
1.34597 0.259744 -1.55855 1.29794 0.233601 -1.56443 0.0697108 0.0316648 -1.27625 
0.179462 0.0193669 -1.26343 0.44716 -2.14914 -1.51259 0.418192 -2.0993 -1.49863 
0.384132 -2.04857 -1.46299 0.341734 -2.00116 -1.42093 0.294833 -1.95621 -1.37943 
0.274392 -1.89685 -1.33469 0.245135 -1.83775 -1.26377 0.204413 -1.77735 -1.15719 
0.167123 -1.70093 -1.01866 -0.177812 -0.957961 -1.43411 -0.1642 -1.00886 -1.40533 
-0.203945 -0.0732229 -1.30565 -0.231179 -0.152535 -1.32526 -0.249298 -0.221289 -1.30476 
-0.262539 -0.286368 -1.27666 -0.251055 -0.342081 -1.27046 -0.234381 -0.398623 -1.28593 
-0.229333 -0.461489 -1.30282 -0.216164 -0.516285 -1.29641 -0.204195 -0.570517 -1.28271 
-0.203529 -0.631431 -1.27287 -0.187304 -0.689703 -1.28326 -0.166287 -0.763144 -1.31929 
-0.123464 -0.956203 -1.32491 -0.100842 -1.06585 -1.18972 2.93524 -0.931982 -0.496949 
2.85155 -0.914258 -0.406697 2.78036 -0.920366 -0.312543 2.71793 -0.939742 -0.230973 
2.66422 -0.972297 -0.162 2.62336 -1.02764 -0.0966915 2.58448 -1.08505 -0.038416 
2.54026 -1.1288 0.00286774 2.49862 -1.17057 0.0142975 2.44921 -1.19409 0.00798246 
2.40996 -1.23699 0.00484119 2.36819 -1.28196 0.0315602 2.3338 -1.34276 0.0682511 
2.30567 -1.41203 0.0915654 2.28093 -1.47743 0.069969 2.25205 -1.52974 0.024081 
2.22553 -1.58658 -0.021055 2.19299 -1.6371 -0.0450877 2.16502 -1.69978 -0.0523744 
2.13589 -1.76198 -0.0523563 2.1006 -1.81242 -0.0542636 0.268668 -0.0415301 -1.1404 
0.297574 -0.0885146 -1.10189 0.334592 -0.130149 -1.08504 0.346527 -0.185673 -1.07878 
0.361381 -0.239552 -1.07216 0.374646 -0.294296 -1.06574 0.376183 -0.355423 -1.06076 
0.389847 -0.408733 -1.04685 0.409835 -0.456166 -1.01731 0.427813 -0.501043 -0.965703 
0.444685 -0.545303 -0.906789 0.46156 -0.589564 -0.847886 0.478434 -0.633824 -0.788982 
0.491709 -0.676394 -0.708216 -0.0623999 -1.16886 -1.17542 -0.060254 -1.24426 -1.25958 
-0.0466956 -1.30979 -1.32004 -0.0391586 -1.37374 -1.3515 -0.0139733 -1.422 -1.34362 
0.0284457 -1.456 -1.30389 0.056181 -1.4948 -1.24612 0.0742381 -1.53594 -1.16719 
0.0986616 -1.57034 -1.04004 -0.00719329 -1.10108 -0.938178 0.0359214 -1.12132 -0.81658 
0.0601875 -1.15669 -0.727031 0.0787558 -1.20003 -0.667919 0.100126 -1.24793 -0.645631 
0.118979 -1.30206 -0.653401 0.136796 -1.36208 -0.693503 0.172223 -1.41567 -0.746267 
0.175242 -1.49215 -0.807616 0.200636 -1.63523 -0.7246 0.249335 -1.66649 -0.623814 
0.292631 -1.69993 -0.57395 0.353826 -1.72705 -0.551735 0.423758 -1.75094 -0.538372 
0.485355 -1.77816 -0.518593 0.531419 -1.8114 -0.485852 0.587106 -1.83576 -0.42963 
0.649125 -1.85423 -0.357758 0.711483 -1.87117 -0.278416 0.7731 -1.88647 -0.199324 
0.831277 -1.89348 -0.128971 0.884051 -1.88673 -0.0756351 0.94155 -1.88555 -0.0361441 
0.995786 -1.87815 0.00232828 1.04995 -1.87405 0.0560975 1.09511 -1.8545 0.114731 
1.13683 -1.82667 0.164615 1.18136 -1.79902 0.192392 1.22907 -1.77401 0.205844 
1.28259 -1.75832 0.21344 1.34306 -1.75591 0.223209 1.39651 -1.74012 0.230788 
1.44454 -1.71397 0.236672 1.48715 -1.67748 0.240862 1.52269 -1.62751 0.242847 
1.56435 -1.58922 0.246743 1.60601 -1.55093 0.250639 1.64155 -1.50096 0.252624 
1.68411 -1.46437 0.256798 1.73083 -1.43623 0.264825 1.77687 -1.40713 0.280194 
1.81897 -1.36495 0.306445 0.463027 -0.784289 -0.508828 0.540676 -0.714128 -0.426188 
0.576504 -0.699206 -0.270863 0.616578 -0.687204 -0.137207 0.645722 -0.65091 -0.0222739 
0.656585 -0.581464 0.0945957 -0.115699 0.232725 -1.0287 -0.113431 0.351539 -0.878087 
-0.0949668 0.424012 -0.809791 -0.0572941 0.46445 -0.781471 -0.0129137 0.492381 -0.753741 
0.0333456 0.511555 -0.702439 0.085465 0.517823 -0.641632 0.133917 0.53454 -0.597311 
0.189253 0.546746 -0.589145 0.262186 0.53401 -0.61379 0.342901 0.509881 -0.651345 
0.422465 0.486221 -0.681585 0.49389 0.472912 -0.691381 0.55595 0.474019 -0.68878 
0.623726 0.462498 -0.676731 0.695204 0.443913 -0.663524 0.762088 0.434092 -0.651753 
0.817475 0.446202 -0.643571 0.872812 0.458409 -0.635406 0.937609 0.450844 -0.616621 
0.999956 0.444503 -0.583281 1.04716 0.461881 -0.531685 1.08772 0.490185 -0.474485 
1.12866 0.519518 -0.424847 1.17393 0.545757 -0.39684 1.22535 0.563708 -0.382232 
1.28039 0.576475 -0.374158 1.32239 0.614109 -0.370154 1.3722 0.63686 -0.363714 
-0.154746 0.0314444 -0.823803 -0.195601 -0.00416543 -0.532811 -0.200863 -0.0476674 -0.399215 
-0.181974 -0.0928244 -0.35231 -0.150074 -0.133775 -0.321304 -0.109958 -0.166603 -0.26699 
-0.0913043 -0.209893 -0.207858 -0.0830801 -0.260079 -0.157451 -0.0387749 -0.29306 -0.117489 
0.0158438 -0.320426 -0.0762622 0.0581167 -0.35208 -0.0216841 0.111412 -0.3753 0.0491195 
0.17218 -0.39311 0.128266 0.234901 -0.409024 0.200057 0.296723 -0.417813 0.248563 
0.357587 -0.41615 0.258455 0.430213 -0.430023 0.241369 0.508628 -0.453217 0.218426 
0.58548 -0.476877 0.210324 0.733287 -0.521572 0.230586 
LINES 29 419
16 27 28 29 30 31 32 33 34 35 36 37 38 39 40 41 25 
32 26 42 43 44 45 46 47 48 49 50 51 52 53 54 55 56 57 58 59 60 61 62 63 64 65 66 67 68 69 70 71 11 
28 25 72 73 74 75 76 77 78 79 80 81 82 83 84 85 86 87 88 89 90 91 92 93 94 95 96 97 3 
9 25 98 99 100 101 102 103 104 24 
15 24 105 106 107 108 109 110 111 112 113 114 115 116 117 23 
9 24 118 119 120 121 122 123 124 20 
6 21 125 126 127 128 22 
4 23 129 130 21 
10 23 131 132 133 134 135 136 137 138 20 
3 21 139 18 
21 20 140 141 142 143 144 145 146 147 148 149 150 151 152 153 154 155 156 157 158 19 
8 18 159 160 161 162 163 164 11 
26 18 165 166 167 168 169 170 171 172 173 174 175 176 177 178 179 180 181 182 183 184 185 186 187 188 14 
4 17 189 190 16 
11 15 193 194 195 196 197 198 199 200 201 8 
4 13 202 203 12 
14 3 204 205 206 207 208 209 210 211 212 213 214 215 13 
3 13 216 12 
3 12 217 9 
23 11 218 219 220 221 222 223 224 225 226 227 228 229 230 231 232 233 234 235 236 237 238 5 
11 9 253 254 255 256 257 258 259 260 261 8 
11 9 262 263 264 265 266 267 268 269 270 8 
35 8 271 272 273 274 275 276 277 278 279 280 281 282 283 284 285 286 287 288 289 290 291 292 293 294 295 296 297 298 299 300 301 302 303 2 
3 7 304 4 
7 7 305 306 307 308 309 0 
31 3 310 311 312 313 314 315 316 317 318 319 320 321 322 323 324 325 326 327 328 329 330 331 332 333 334 335 336 337 338 6 
21 3 339 340 341 342 343 344 345 346 347 348 349 350 351 352 353 354 355 356 357 0 
3 1 358 0 
19 3 191 192 10 239 240 241 242 243 244 245 246 247 248 249 250 251 252 7 

POINT_DATA 359
SCALARS DY_raw double
LOOKUP_TABLE default
198.532 210.593 221.147 187.033 262.276 188.028 153.958 178.554 171.733 
195.329 225.683 166.842 259.121 218.123 112.696 178.314 273.571 284.848 
180.473 313.399 180.348 175.766 193.245 153.962 244.604 200.897 229.19 
256.416 254.686 258.227 228.701 228.701 222.413 180.808 201.857 224.156 
237.871 247.901 236.697 213.32 205.181 200.897 262.048 245.591 230.941 
190.426 204.211 153.902 157.765 189.782 178.109 212.512 205.198 179.7 
160.826 156.885 180.793 140.255 165.889 182.318 159.558 199.29 186.535 
201.736 226.901 210.831 251.273 271.134 207.73 222.786 198.649 177.243 
206.04 203.736 216.692 224.472 208.022 223.029 215.61 217.981 230.068 
233.328 245.668 225.598 227.575 202.698 202.698 200.284 190.964 176.306 
179.978 202.166 192.727 174.771 166.666 176.41 205.346 179.869 223.791 
213.762 221.469 221.943 236.927 235.262 233.845 218.329 218.329 216.509 
216.727 198.471 221.478 207.043 186.635 173.97 196.983 159.721 165.934 
154.297 225.883 226.947 233.523 170.644 168.836 199.491 204.17 197.678 
196.147 195.706 202.859 151.498 157.89 167.447 180.225 173.686 179.634 
179.634 167.81 173.859 174.482 208.264 200.283 220.413 227.568 223.018 
176.913 176.913 181.135 178.642 183.602 187.802 177.697 212.777 202.118 
224.82 237.568 233.685 247.321 275.964 265.097 200.781 212.239 225.291 
186.425 192.739 168.375 189.838 179.743 199.185 213.978 248.11 211.429 
190.984 199.334 177.416 177.416 200.688 191.305 191.974 209.908 183.472 
193.063 139.877 139.877 126.559 117.468 108.454 99.5011 105.352 77.4937 
272.695 273.571 255.738 259.521 158.692 173.473 173.473 165.386 184.468 
192.055 210.994 169.567 175.856 214.155 251.76 168.23 204.21 191.044 
205.859 205.859 197.388 174.47 208.91 182.58 179.139 208.725 199.808 
225.853 194.166 175.363 186.569 198.643 204.92 199.088 195.08 205.611 
187.815 187.815 189.793 196.021 164.466 172.233 197.674 151.314 135.659 
125.306 126.686 153.423 134.287 139.265 198.717 206.565 199.413 198.07 
207.487 202.236 202.236 182.482 207.906 211.445 173.909 198.614 181.604 
160.728 174.196 195.783 206.88 200.255 200.586 200.586 224.891 185.778 
203.721 211.305 202.003 263.67 290.869 284.874 284.874 239.62 195.737 
185.596 176.977 192.587 186.107 178.888 179.559 167.298 171.885 177.489 
177.975 188.446 189.457 182.551 193.339 201.621 189.309 205.558 209.731 
234.919 195.692 190.681 190.681 198.992 203.38 203.38 208.251 208.251 
219.519 202.704 202.704 188.237 180.019 192.991 212.902 214.206 158.173 
195.474 162.539 160.625 199.199 140.141 180.792 203.76 190.376 200.774 
212.89 217.038 215.51 231.494 242.568 250.37 247.801 247.905 245.319 
220.558 220.558 201.618 199.863 191.82 173.645 185.154 206.613 204.468 
183.21 195.8 171.589 171.589 164.667 150.992 179.229 218.651 261.418 
261.628 261.628 242.951 256.504 279.834 219.368 236.772 243.782 219.476 
219.85 238.878 237.039 248.046 215.203 201.182 208.423 213.111 
FIELD FieldData 7
DY_minmax 1 359 double
0.513079 0.564206 0.608946 0.464337 0.783291 0.468553 0.324133 0.428392 0.399478 
0.499501 0.628172 0.378745 0.769914 0.596124 0.149221 0.427374 0.831166 0.878971 
0.436526 1 0.435996 0.416574 0.490667 0.324146 0.708379 0.523104 0.643039 
0.758447 0.751117 0.766124 0.640964 0.640964 0.614311 0.437949 0.527173 0.621698 
0.679835 0.722356 0.674861 0.575767 0.541265 0.523104 0.782324 0.71256 0.650462 
0.478718 0.537154 0.323892 0.340268 0.475988 0.426506 0.572341 0.541336 0.43325 
0.353243 0.336537 0.437884 0.266043 0.374707 0.444348 0.347868 0.516292 0.462223 
0.526662 0.633337 0.565215 0.736649 0.820838 0.552071 0.615893 0.513577 0.422837 
0.544905 0.535138 0.590061 0.623039 0.553306 0.616922 0.585474 0.595523 0.646762 
0.660577 0.712889 0.627811 0.636194 0.530741 0.530741 0.520507 0.480998 0.418863 
0.434431 0.528482 0.488471 0.412356 0.378001 0.419305 0.541962 0.433967 0.620153 
0.577638 0.610309 0.61232 0.675833 0.668776 0.662772 0.596999 0.596999 0.589285 
0.59021 0.512823 0.610346 0.549158 0.462649 0.408963 0.506513 0.348561 0.374897 
0.325569 0.629018 0.63353 0.661407 0.394861 0.387198 0.517143 0.536978 0.509461 
0.502968 0.501101 0.531421 0.313703 0.3408 0.381313 0.435477 0.407756 0.432973 
0.432973 0.382847 0.40849 0.411133 0.554331 0.520501 0.605834 0.636161 0.616874 
0.421435 0.421435 0.439332 0.428767 0.449793 0.467594 0.424759 0.573463 0.528281 
0.624514 0.678551 0.662094 0.719896 0.841312 0.795247 0.522612 0.571183 0.626511 
0.461759 0.488522 0.385244 0.476224 0.433435 0.515846 0.578556 0.72324 0.567749 
0.481083 0.516478 0.423567 0.423567 0.522219 0.482446 0.48528 0.561303 0.449239 
0.489894 0.264442 0.264442 0.207987 0.169449 0.131239 0.0932888 0.11809 0 
0.827456 0.831166 0.755573 0.771609 0.344196 0.406854 0.406854 0.372573 0.453464 
0.485624 0.565906 0.390298 0.416956 0.579306 0.738712 0.384631 0.537148 0.481336 
0.544139 0.544139 0.508229 0.411081 0.557071 0.445459 0.430873 0.556288 0.518487 
0.628892 0.494573 0.414867 0.462367 0.513551 0.54016 0.515436 0.498447 0.543089 
0.46765 0.46765 0.476033 0.502435 0.368676 0.401597 0.509443 0.312923 0.246563 
0.202676 0.208524 0.321861 0.240747 0.261847 0.513864 0.547131 0.516816 0.511123 
0.55104 0.528779 0.528779 0.445045 0.552814 0.567817 0.408701 0.513428 0.44132 
0.352829 0.409921 0.501427 0.548467 0.520382 0.521787 0.521787 0.624813 0.459013 
0.535077 0.567224 0.527794 0.789196 0.904496 0.879083 0.879083 0.687251 0.50123 
0.458244 0.421709 0.487879 0.460412 0.42981 0.432653 0.38068 0.400125 0.423877 
0.42594 0.470327 0.474611 0.445334 0.491065 0.526172 0.473981 0.542864 0.560553 
0.667324 0.501041 0.479801 0.479801 0.515027 0.533631 0.533631 0.554277 0.554277 
0.602041 0.530765 0.530765 0.469439 0.434603 0.489592 0.573994 0.57952 0.342 
0.500115 0.360504 0.352392 0.515905 0.26556 0.437878 0.535242 0.478505 0.522584 
0.573942 0.591527 0.58505 0.652803 0.699748 0.73282 0.721931 0.72237 0.711407 
0.606446 0.606446 0.526159 0.518722 0.484628 0.407585 0.456371 0.547336 0.538243 
0.448131 0.501497 0.398866 0.398866 0.369526 0.311559 0.431253 0.598364 0.77965 
0.780541 0.780541 0.701369 0.758822 0.857719 0.601404 0.67518 0.704892 0.601858 
0.603445 0.684106 0.67631 0.722969 0.583748 0.524311 0.555006 0.574879 
WidthEq 1 359 double
3.42896 2.7969 2.54341 5.33011 3.73273 2.26853 2.9539 5.05869 5.42802 
5.22359 5.23184 3.27489 4.28278 4.81219 1.06701 2.58947 1.33767 1 
1.89961 1.06356 4.59284 2.96786 1.05611 3.94811 2.71969 2.85016 1.91539 
1.61873 1.63435 1.6597 1.7518 1.7518 1.77295 1.91135 1.88326 2.02983 
1.9635 1.99139 2.25604 2.55113 2.76116 2.85016 1.75112 1.89217 2.05194 
2.21434 2.18895 2.67832 2.88865 2.71484 3.25081 2.90801 3.06839 3.48363 
4.06713 3.84281 3.55549 3.95258 3.96058 3.554 3.02591 2.82527 2.84241 
2.74243 2.48962 2.41576 2.07892 2.04437 2.23062 2.33757 2.57342 2.92732 
2.72514 2.10232 2.14834 1.99298 1.98647 2.09586 2.21936 2.4614 2.56797 
2.55691 2.42127 2.30094 2.33095 2.44431 2.44431 2.75717 2.8522 3.00607 
3.21754 3.33572 3.5723 3.84102 4.0248 4.4935 4.14865 5.10253 2.67145 
2.73612 2.65472 2.75745 2.61337 2.70136 2.81412 2.95095 2.95095 2.93876 
2.8024 3.02798 2.875 3.04472 3.33264 3.61923 3.44161 3.99125 3.94728 
3.93512 3.27661 3.35465 3.25611 4.1089 4.01768 3.73791 3.73218 2.7708 
2.383 2.00146 1.65626 3.98479 3.52376 3.87971 3.83935 4.07626 4.53648 
4.53648 5.11263 5.18805 4.95149 2.37227 3.92913 3.35995 3.06809 3.17718 
3.65269 3.65269 4.12018 4.38965 4.79051 4.69499 4.84121 3.65025 3.76873 
3.01289 2.2862 1.99994 1.90375 1.45631 1.29812 2.11613 2.11704 2.1552 
2.23327 2.22959 2.88272 1.82566 1.76089 1.70258 1.66969 1.51206 1.6316 
1.66987 1.57072 1.57279 1.57279 1.52165 1.5368 1.53145 1.50517 1.65692 
1.65122 1.95327 1.95327 2.0738 2.05689 2.1468 2.0689 1.54927 1.2064 
1.19198 1.33767 4.58547 4.82473 3.09631 3.19086 3.19086 3.29344 3.22466 
3.24119 3.33426 4.47426 5.2225 4.76443 4.28816 6.16742 5.30678 5.43299 
5.08317 5.08317 5.28795 5.73335 5.18275 6.07168 6.26473 5.36547 5.32491 
4.78558 5.49662 3.23693 3.02354 2.89176 2.84095 2.76043 2.79259 2.66502 
2.80243 2.80243 2.83224 2.78872 2.96771 2.82611 2.62188 2.85306 2.90683 
2.89075 2.74039 2.89115 2.84456 2.66613 4.99478 4.49334 4.37206 4.2765 
4.51858 4.51359 4.51359 4.45894 4.33296 4.52916 4.48211 4.42777 4.67011 
5.13363 5.51101 4.95179 4.40674 4.14896 4.08656 4.08656 3.91394 4.49208 
4.70867 5.26201 5.1407 4.18341 3.6298 3.63896 3.63896 4.07816 4.62482 
5.07633 5.41436 4.98148 4.54688 4.18992 4.10065 4.04797 3.93936 3.65482 
3.57672 3.69202 3.61753 3.61143 3.46536 3.12829 3.22383 2.99598 2.71484 
2.48932 2.81702 2.78264 2.78264 2.71161 2.62365 2.62365 2.69563 2.69563 
2.47399 2.85854 2.85854 3.06559 3.46934 3.23304 3.08934 4.43615 4.57263 
4.32988 4.65309 4.97767 4.73301 5.66414 5.30444 4.821 5.25302 5.10284 
4.6562 4.20837 4.64441 4.15363 4.17185 4.22238 4.16607 4.29793 4.3712 
4.55703 4.55703 4.61556 3.93138 4.21837 3.80182 3.48605 3.28279 3.24387 
3.68722 3.47732 3.75071 3.75071 3.65105 2.9665 5.7595 4.88526 4.1374 
3.90998 3.90998 4.02225 4.11872 3.83905 4.46472 4.35911 4.18427 4.70279 
4.402 4.12917 4.02169 4.05718 4.23129 4.16981 4.35331 3.01344 
rRFP 1 359 double
3568.06 3317.65 3217.22 4321.26 3688.41 3108.32 3379.85 4213.73 4360.05 
4279.06 4282.33 3507.02 3906.33 4116.07 2632.3 3235.47 2739.53 2605.75 
2962.16 2630.93 4029.17 3385.38 2627.98 3773.74 3287.06 3338.75 2968.41 
2850.88 2857.07 2867.11 2903.6 2903.6 2911.98 2966.81 2955.68 3013.75 
2987.47 2998.52 3103.37 3220.28 3303.49 3338.75 2903.33 2959.21 3022.51 
3086.85 3076.79 3270.67 3354 3285.14 3497.48 3361.67 3425.21 3589.72 
3820.89 3732.02 3618.19 3775.51 3778.68 3617.6 3408.38 3328.89 3335.68 
3296.07 3195.91 3166.65 3033.2 3019.51 3093.3 3135.67 3229.11 3369.32 
3289.22 3042.47 3060.7 2999.15 2996.57 3039.91 3088.84 3184.73 3226.95 
3222.57 3168.83 3121.16 3133.05 3177.96 3177.96 3301.91 3339.56 3400.52 
3484.3 3531.12 3624.85 3731.31 3804.12 3989.81 3853.19 4231.1 3267.95 
3293.57 3261.32 3302.02 3244.94 3279.8 3324.47 3378.68 3378.68 3373.85 
3319.83 3409.2 3348.59 3415.83 3529.9 3643.44 3573.07 3790.83 3773.41 
3768.59 3507.7 3538.62 3499.58 3837.44 3801.3 3690.46 3688.19 3307.31 
3153.67 3002.51 2865.75 3788.27 3605.62 3746.64 3730.65 3824.51 4006.84 
4006.84 4235.1 4264.98 4171.26 3149.42 3766.22 3540.72 3425.09 3468.31 
3656.7 3656.7 3841.91 3948.67 4107.48 4069.64 4127.57 3655.73 3702.67 
3403.22 3115.32 3001.91 2963.8 2786.53 2723.86 3047.94 3048.3 3063.42 
3094.35 3092.89 3351.65 2932.86 2907.2 2884.1 2871.07 2808.62 2855.98 
2871.14 2831.86 2832.68 2832.68 2812.42 2818.42 2816.3 2805.89 2866.01 
2863.75 2983.42 2983.42 3031.17 3024.47 3060.09 3029.23 2823.36 2687.52 
2681.81 2739.53 4026.25 4121.04 3436.27 3473.73 3473.73 3514.37 3487.12 
3493.67 3530.54 3982.19 4278.63 4097.15 3908.46 4652.99 4312.02 4362.02 
4223.43 4223.43 4304.56 4481.02 4262.88 4615.06 4691.54 4335.27 4319.2 
4105.53 4387.23 3491.98 3407.44 3355.23 3335.1 3303.2 3315.94 3265.4 
3319.84 3319.84 3331.65 3314.41 3385.32 3329.22 3248.31 3339.9 3361.2 
3354.83 3295.26 3354.99 3336.53 3265.84 4188.41 3989.75 3941.7 3903.84 
3999.75 3997.77 3997.77 3976.12 3926.21 4003.94 3985.3 3963.77 4059.78 
4243.42 4392.93 4171.38 3955.44 3853.31 3828.59 3828.59 3760.2 3989.25 
4075.06 4294.28 4246.22 3866.96 3647.63 3651.26 3651.26 3825.26 4041.84 
4220.72 4354.64 4183.14 4010.96 3869.54 3834.17 3813.3 3770.27 3657.54 
3626.6 3672.28 3642.77 3640.35 3582.48 3448.94 3486.79 3396.52 3285.14 
3195.79 3325.62 3312 3312 3283.86 3249.01 3249.01 3277.53 3277.53 
3189.72 3342.07 3342.07 3424.1 3584.06 3490.44 3433.51 3967.09 4021.16 
3924.99 4053.04 4181.63 4084.7 4453.6 4311.09 4119.56 4290.72 4231.22 
4054.27 3876.85 4049.6 3855.16 3862.38 3882.4 3860.09 3912.33 3941.36 
4014.98 4014.98 4038.17 3767.11 3880.81 3715.78 3590.68 3510.15 3494.73 
3670.38 3587.22 3695.53 3695.53 3656.05 3384.84 4491.38 4145.02 3848.73 
3758.63 3758.63 3803.11 3841.33 3730.53 3978.41 3936.57 3867.3 4072.73 
3953.56 3845.47 3802.89 3816.95 3885.93 3861.57 3934.27 3403.44 
rGFP 1 359 double
2953.65 2861.9 2835.36 3269.8 3251.9 2699.44 2727.67 3176.14 3205.06 
3293.21 3453.63 2819.28 3382.65 3322.54 2393.14 2734.63 2638.84 2557.74 
2615.72 2606.21 3101.2 2794.54 2476.98 2880.75 2938.14 2845.48 2711.88 
2687.96 2689.14 2701.47 2673.53 2673.53 2667.22 2618.48 2653.04 2727.89 
2739.95 2766.56 2806.89 2817.1 2839.43 2845.48 2731.77 2737.59 2746.77 
2694.56 2719.9 2685.09 2728.62 2788.12 2851.89 2890.88 2902.52 2898.9 
2926.99 2875.77 2915.7 2827.26 2929.91 2920.85 2755.7 2835.94 2803.1 
2826.14 2837.79 2782.21 2795.27 2827.19 2736.26 2793.67 2784.1 2791.74 
2834.38 2701.21 2738.42 2720.26 2686.12 2740.33 2751.41 2809.43 2863.7 
2869.49 2867.72 2791.98 2803.36 2768.35 2768.35 2825.11 2817.56 2802.88 
2851.98 2947.26 2961.37 2944.19 2943.69 3065.59 3124.8 3190.68 2870.74 
2857.77 2860.83 2884.89 2892.07 2908.42 2930.96 2917.17 2917.17 2909.16 
2880.25 2873.86 2909.64 2903.28 2894.88 2902.53 2950.83 2910.38 2927.88 
2880.07 3013.02 3034.22 3033.27 2974.05 2951.22 3018.57 3034.89 2820.62 
2740.31 2664.59 2608.88 2876.58 2829.26 2922.54 2964.84 2980.88 3087.8 
3087.8 3130.84 3174.88 3136.84 2766.95 3059.83 3013.47 2971.09 2981.46 
2919.1 2919.1 3019.2 3057.07 3152.44 3154.62 3133.16 3049.58 3034.62 
2950.25 2816.02 2740.25 2743.73 2674.78 2617.02 2697.77 2722.21 2758.44 
2689.23 2702.62 2758.27 2619.47 2589.4 2612.02 2630.17 2648.05 2617.86 
2591.81 2585.99 2551.93 2551.93 2578.27 2566.89 2566.89 2588.84 2576.89 
2591.68 2546.11 2546.11 2535.35 2514.51 2505.72 2478.75 2436.11 2366.38 
2597.94 2638.84 3445.57 3525.01 2764.25 2826.42 2826.42 2817.58 2867.74 
2895.38 2976.4 3031.58 3191.3 3293.22 3352.48 3310.44 3356.59 3310.83 
3319.31 3319.31 3316.67 3273.19 3355.62 3381.46 3395.15 3392.8 3336.85 
3353.73 3340.15 2840.53 2836.99 2847.32 2855.06 2822.46 2817.67 2820.85 
2799.23 2799.23 2810.43 2819.54 2760.98 2759.64 2791.17 2704.6 2667.23 
2635.12 2620.06 2716.46 2654.88 2644.19 3265.44 3201.06 3144.74 3119.94 
3210.44 3185.7 3185.7 3086.57 3173.74 3230.56 3052.37 3152.31 3121 
3098.01 3232.89 3242.37 3184.56 3103.74 3092.6 3092.6 3153.1 3107.42 
3232.15 3384.78 3311.33 3375.93 3328.69 3309.54 3309.54 3250.1 3178.14 
3215.04 3231.11 3232.26 3119.1 3022.42 3009.2 2950.11 2950.01 2921.58 
2909.46 2968.64 2958.26 2932.16 2942.88 2903.62 2883.19 2888.74 2842.28 
2857.68 2824.16 2803.49 2803.49 2812.48 2806.49 2806.49 2834.26 2834.26 
2815.98 2852.33 2852.33 2849.95 2897.44 2896.84 2930.62 3223.14 2996.16 
3119.27 3029.2 3072.43 3215.7 3066.67 3231.89 3255.22 3272.94 3297.41 
3264.15 3186.27 3273.81 3234.43 3284.85 3330.05 3305.25 3338.37 3345.23 
3277.98 3277.98 3203.47 3058.63 3082.06 2933.06 2918.35 2951.16 2936.16 
2948.43 2953.75 2916.47 2916.47 2874.1 2720.81 3305.16 3341.06 3354.48 
3295.85 3295.85 3250.1 3329.36 3347.19 3252.31 3305.01 3292.94 3305.04 
3240.67 3259.26 3226.19 3279.26 3183.48 3111.78 3180.22 2915.09 
bkstRFP 1 359 double
1358.49 1108.08 1007.65 2111.69 1478.84 898.752 1170.28 2004.16 2150.48 
2069.49 2072.76 1297.45 1696.76 1906.5 422.732 1025.9 529.962 396.182 
752.592 421.362 1819.6 1175.81 418.412 1564.17 1077.49 1129.18 758.842 
641.312 647.502 657.542 694.032 694.032 702.412 757.242 746.112 804.182 
777.902 788.952 893.802 1010.71 1093.92 1129.18 693.762 749.642 812.942 
877.282 867.222 1061.1 1144.43 1075.57 1287.91 1152.1 1215.64 1380.15 
1611.32 1522.45 1408.62 1565.94 1569.11 1408.03 1198.81 1119.32 1126.11 
1086.5 986.342 957.082 823.632 809.942 883.732 926.102 1019.54 1159.75 
1079.65 832.902 851.132 789.582 787.002 830.342 879.272 975.162 1017.38 
1013 959.262 911.592 923.482 968.392 968.392 1092.34 1129.99 1190.95 
1274.73 1321.55 1415.28 1521.74 1594.55 1780.24 1643.62 2021.53 1058.38 
1084 1051.75 1092.45 1035.37 1070.23 1114.9 1169.11 1169.11 1164.28 
1110.26 1199.63 1139.02 1206.26 1320.33 1433.87 1363.5 1581.26 1563.84 
1559.02 1298.13 1329.05 1290.01 1627.87 1591.73 1480.89 1478.62 1097.74 
944.102 792.942 656.182 1578.7 1396.05 1537.07 1521.08 1614.94 1797.27 
1797.27 2025.53 2055.41 1961.69 939.852 1556.65 1331.15 1215.52 1258.74 
1447.13 1447.13 1632.34 1739.1 1897.91 1860.07 1918 1446.16 1493.1 
1193.65 905.752 792.342 754.232 576.962 514.292 838.372 838.732 853.852 
884.782 883.322 1142.08 723.292 697.632 674.532 661.502 599.052 646.412 
661.572 622.292 623.112 623.112 602.852 608.852 606.732 596.322 656.442 
654.182 773.852 773.852 821.602 814.902 850.522 819.662 613.792 477.952 
472.242 529.962 1816.68 1911.47 1226.7 1264.16 1264.16 1304.8 1277.55 
1284.1 1320.97 1772.62 2069.06 1887.58 1698.89 2443.42 2102.45 2152.45 
2013.86 2013.86 2094.99 2271.45 2053.31 2405.49 2481.97 2125.7 2109.63 
1895.96 2177.66 1282.41 1197.87 1145.66 1125.53 1093.63 1106.37 1055.83 
1110.27 1110.27 1122.08 1104.84 1175.75 1119.65 1038.74 1130.33 1151.63 
1145.26 1085.69 1145.42 1126.96 1056.27 1978.84 1780.18 1732.13 1694.27 
1790.18 1788.2 1788.2 1766.55 1716.64 1794.37 1775.73 1754.2 1850.21 
2033.85 2183.36 1961.81 1745.87 1643.74 1619.02 1619.02 1550.63 1779.68 
1865.49 2084.71 2036.65 1657.39 1438.06 1441.69 1441.69 1615.69 1832.27 
2011.15 2145.07 1973.57 1801.39 1659.97 1624.6 1603.73 1560.7 1447.97 
1417.03 1462.71 1433.2 1430.78 1372.91 1239.37 1277.22 1186.95 1075.57 
986.222 1116.05 1102.43 1102.43 1074.29 1039.44 1039.44 1067.96 1067.96 
980.152 1132.5 1132.5 1214.53 1374.49 1280.87 1223.94 1757.52 1811.59 
1715.42 1843.47 1972.06 1875.13 2244.03 2101.52 1909.99 2081.15 2021.65 
1844.7 1667.28 1840.03 1645.59 1652.81 1672.83 1650.52 1702.76 1731.79 
1805.41 1805.41 1828.6 1557.54 1671.24 1506.21 1381.11 1300.58 1285.16 
1460.81 1377.65 1485.96 1485.96 1446.48 1175.27 2281.81 1935.45 1639.16 
1549.06 1549.06 1593.54 1631.76 1520.96 1768.84 1727 1657.73 1863.16 
1743.99 1635.9 1593.32 1607.38 1676.36 1652 1724.7 1193.87 
bkstGFP 1 359 double
680.758 589.008 562.468 996.908 979.008 426.548 454.778 903.248 932.168 
1020.32 1180.74 546.388 1109.76 1049.65 120.248 461.738 365.948 284.848 
342.828 333.318 828.308 521.648 204.088 607.858 665.248 572.588 438.988 
415.068 416.248 428.578 400.638 400.638 394.328 345.588 380.148 454.998 
467.058 493.668 533.998 544.208 566.538 572.588 458.878 464.698 473.878 
421.668 447.008 412.198 455.728 515.228 578.998 617.988 629.628 626.008 
654.098 602.878 642.808 554.368 657.018 647.958 482.808 563.048 530.208 
553.248 564.898 509.318 522.378 554.298 463.368 520.778 511.208 518.848 
561.488 428.318 465.528 447.368 413.228 467.438 478.518 536.538 590.808 
596.598 594.828 519.088 530.468 495.458 495.458 552.218 544.668 529.988 