# vtk DataFile Version 3.0
vtk output
ASCII
DATASET POLYDATA
POINTS 369 float
5.28008 0.403296 0.836068 5.4229 0.315905 0.488138 4.88144 -0.0397871 0.606266 
5.40933 -0.210216 0.152165 4.76746 1.07303 -0.33251 4.52118 1.18637 -0.537754 
5.19042 0.695915 -0.920595 5.31547 0.3813 -1.02894 2.35768 0.394418 -0.390041 
0.524316 0.717621 -0.197853 0.263329 0.744143 -0.16481 -0.360264 0.787934 -0.0801474 
4.04796 0.457719 -0.883274 -0.194189 0.712663 -0.294806 -0.872213 0.228133 -0.363534 
5.30026 0.0666853 -1.17555 2.26798 -1.15108 -0.346558 2.7885 0.365896 -0.870365 
-0.445831 0.958687 -0.608139 -0.879971 -0.434826 -0.274279 -0.152843 0.646901 -0.861414 
2.99953 -0.0217576 -1.2116 3.07225 -0.247532 -1.55893 -0.610376 -0.681425 -0.876469 
-0.855846 -0.644018 -1.02458 -1.03317 -0.418396 -0.88713 0.377288 -1.91532 -1.44332 
-0.113679 -1.71373 -1.49563 0.31019 -1.8735 -2.00681 0.226357 -1.86346 -1.93162 
0.160763 -1.84369 -1.85691 0.110118 -1.81146 -1.78558 0.0523959 -1.789 -1.71029 
-0.00563676 -1.76722 -1.63735 -0.0556466 -1.73551 -1.56857 0.375671 -1.84044 -2.06309 
0.425678 -1.81941 -2.12386 0.482746 -1.81822 -2.19294 0.537005 -1.8193 -2.26873 
0.572442 -1.80678 -2.34813 0.606444 -1.79314 -2.42765 0.65093 -1.78766 -2.50642 
0.686031 -1.77197 -2.5789 0.72485 -1.75336 -2.63721 0.78676 -1.74401 -2.67301 
0.858658 -1.73663 -2.6942 0.923785 -1.72107 -2.70892 0.967755 -1.68903 -2.72513 
1.00377 -1.65079 -2.74191 1.04614 -1.6175 -2.75824 1.09933 -1.59555 -2.78076 
1.13984 -1.56954 -2.81808 1.17705 -1.54967 -2.87651 1.22365 -1.54003 -2.94122 
1.26044 -1.51693 -2.99272 1.29384 -1.47956 -3.01664 1.33163 -1.43399 -3.01243 
1.3772 -1.39447 -3.00767 1.43369 -1.36637 -3.00908 1.4764 -1.33625 -3.03235 
1.5202 -1.30408 -3.04857 1.5767 -1.27598 -3.04999 1.62456 -1.23244 -3.03116 
1.66607 -1.18394 -3.01278 1.71325 -1.14569 -3.0079 1.77804 -1.12695 -3.01569 
1.84324 -1.11145 -3.0304 1.89805 -1.08785 -3.04584 1.9648 -1.07369 -3.06041 
2.03834 -1.067 -3.07385 2.10733 -1.06882 -3.0841 2.16726 -1.08185 -3.08966 
2.23592 -1.0805 -3.09298 2.30489 -1.06153 -3.08588 2.36731 -1.02365 -3.05207 
2.4436 -0.987705 -2.99645 2.52309 -0.945546 -2.91973 2.59167 -0.89197 -2.83684 
2.66619 -0.834436 -2.73263 2.73089 -0.76273 -2.6076 2.79394 -0.690145 -2.45137 
2.86061 -0.632836 -2.27564 2.92594 -0.551859 -2.0949 2.98901 -0.45575 -1.91432 
3.04495 -0.35277 -1.73073 0.358239 -1.90104 -1.7254 -0.0777854 -1.74143 -1.32151 
-0.0402566 -1.77057 -1.18623 0.0068595 -1.7927 -1.10911 0.0594538 -1.8129 -1.08802 
0.117918 -1.82931 -1.10799 0.169452 -1.85758 -1.15981 0.228789 -1.87929 -1.23817 
0.297047 -1.89782 -1.33706 -0.133622 -1.65107 -1.51079 -0.167503 -1.60565 -1.51875 
-0.202472 -1.56157 -1.52614 -0.228448 -1.50568 -1.53058 -0.262375 -1.45894 -1.52331 
-0.298994 -1.41413 -1.49945 -0.330728 -1.36328 -1.47811 -0.352363 -1.29926 -1.45439 
-0.384163 -1.24849 -1.43302 -0.420837 -1.20306 -1.40153 -0.458601 -1.15898 -1.36948 
-0.494166 -1.1108 -1.32336 -0.527544 -1.05922 -1.27077 -0.553843 -0.998187 -1.21424 
-0.569932 -0.923838 -1.15539 -0.591715 -0.855147 -1.07839 -0.609114 -0.778957 -0.980863 
0.434176 -1.97379 -1.43775 0.493603 -1.99952 -1.40832 0.564518 -1.9953 -1.35302 
0.636112 -1.98612 -1.27586 0.714958 -1.96901 -1.21514 0.790572 -1.95797 -1.17556 
0.854925 -1.96293 -1.15295 0.929502 -1.95456 -1.12803 1.01445 -1.9306 -1.07808 
1.10481 -1.89717 -1.00052 1.19415 -1.865 -0.922424 1.27312 -1.84844 -0.869379 
1.33753 -1.85332 -0.84681 1.40873 -1.85104 -0.84299 1.48556 -1.8382 -0.835335 
1.55882 -1.81166 -0.807712 1.61987 -1.77257 -0.774027 1.68381 -1.73865 -0.747104 
1.74005 -1.70453 -0.734632 1.80179 -1.6747 -0.721769 1.86166 -1.63761 -0.695134 
1.93447 -1.60768 -0.660615 2.00475 -1.57869 -0.633242 2.05295 -1.53831 -0.62134 
2.09184 -1.49069 -0.610099 2.13141 -1.43777 -0.584905 2.173 -1.38062 -0.545653 
2.21527 -1.31818 -0.49244 2.25042 -1.24439 -0.425827 -0.962186 -0.567583 -1.00815 
-1.00739 -0.488809 -0.965544 -1.02475 -0.415405 -0.686458 -0.997514 -0.431116 -0.506676 
-0.952337 -0.446867 -0.36869 -1.042 -0.345229 -0.907092 -1.04194 -0.276073 -0.919467 
-1.02486 -0.206906 -0.899399 -1.00549 -0.105503 -0.807163 -0.961628 0.0403471 -0.618591 
-0.885221 -0.633896 -0.727752 -0.892617 -0.555667 -0.480227 -0.718241 -0.682417 -0.943855 
-0.573094 -0.632547 -0.865342 -0.533614 -0.579567 -0.840154 -0.49312 -0.524465 -0.807928 
-0.455161 -0.470302 -0.782848 -0.428453 -0.416094 -0.779428 -0.417395 -0.355509 -0.791022 
-0.404814 -0.299018 -0.809465 -0.404167 -0.233232 -0.828755 -0.402164 -0.168502 -0.847949 
-0.381714 -0.118141 -0.865834 -0.359909 -0.068835 -0.883622 -0.349959 -0.0102953 -0.902252 
-0.335936 0.0450725 -0.920593 -0.32742 0.104729 -0.939324 -0.313397 0.160096 -0.957665 
-0.30336 0.218569 -0.976289 -0.279948 0.266623 -0.993964 -0.248668 0.308548 -1.01108 
-0.216076 0.353182 -1.01944 -0.188176 0.414122 -1.00256 -0.171767 0.512857 -0.946147 
3.05763 -0.153911 -1.40839 3.02982 -0.0818189 -1.29634 -0.0193919 0.722815 -0.750306 
0.0821033 0.768439 -0.633176 0.155486 0.783135 -0.500684 0.215524 0.777045 -0.346393 
-0.111531 0.780048 -0.791619 -0.106519 0.874827 -0.743976 -0.134133 0.930651 -0.716929 
-0.173233 0.972166 -0.693668 -0.219721 1.00516 -0.659626 -0.283833 1.01466 -0.623769 
-0.360709 0.999568 -0.607357 -0.547877 0.931033 -0.651741 -0.626078 0.902642 -0.678061 
-0.67392 0.865047 -0.680423 -0.710723 0.825436 -0.668322 -0.753086 0.792144 -0.651992 
-0.807218 0.768018 -0.636497 -0.847975 0.733473 -0.620053 -0.872993 0.686671 -0.602492 
-0.884558 0.629389 -0.583977 -0.906442 0.580144 -0.566194 -0.926892 0.529783 -0.548309 
-0.928241 0.465936 -0.525578 -0.924607 0.401401 -0.491712 -0.917121 0.334009 -0.438117 
-0.185165 0.679456 -0.573266 -0.835435 -0.339271 -0.13746 -0.814752 -0.239669 -0.0370993 
-0.803117 -0.153372 0.0139311 -0.786219 -0.0886149 0.0236126 -0.776776 -0.0267715 0.0119034 
-0.766097 0.0269002 -0.0171227 -0.775254 0.0841068 -0.0791986 -0.809864 0.146462 -0.197311 
-0.410159 0.910975 -0.433339 -0.396839 0.881068 -0.286257 -0.380477 0.839978 -0.172791 
2.72657 0.385634 -0.765012 2.66034 0.397098 -0.687792 2.59004 0.39719 -0.645625 
2.52542 0.387052 -0.616961 2.47493 0.371714 -0.573389 2.418 0.375931 -0.495508 
5.30678 0.201199 -1.09989 -0.777923 0.359792 -0.233317 -0.72849 0.469326 -0.120837 
-0.68828 0.545773 -0.047994 -0.648544 0.60311 -0.0124041 -0.61236 0.649937 -0.00831164 
-0.576853 0.691478 -0.0181712 -0.53449 0.72477 -0.0345013 -0.478672 0.747584 -0.049877 
-0.425479 0.77244 -0.0654386 -0.123778 0.723497 -0.184128 -0.0438239 0.743363 -0.108785 
0.0295992 0.750242 -0.0832594 0.0909116 0.737667 -0.0891713 0.165856 0.733619 -0.123105 
-0.247827 0.742651 -0.193737 -0.297836 0.774356 -0.124956 4.10914 0.455528 -0.821968 
4.17755 0.477986 -0.768994 4.24111 0.518476 -0.72051 4.31776 0.551099 -0.671776 
4.40225 0.577739 -0.622533 4.48674 0.604381 -0.573281 4.56446 0.639202 -0.517562 
4.62974 0.686624 -0.455759 4.69832 0.737286 -0.379827 4.7444 0.802575 -0.312439 
4.76686 0.880435 -0.260641 4.78384 0.945131 -0.250954 4.78178 1.01012 -0.277383 
5.18332 0.564342 -0.97697 5.21531 0.463039 -1.01261 0.34547 0.715983 -0.169431 
0.429827 0.710998 -0.181157 0.533646 0.845775 -0.135256 0.538121 0.945879 -0.094939 
0.552743 1.01405 -0.0858972 0.597154 1.04874 -0.0951498 0.639352 1.08216 -0.111492 
0.683149 1.11433 -0.12772 0.738974 1.13714 -0.143095 0.789627 1.16107 -0.165794 
0.843611 1.17646 -0.202122 0.889224 1.18745 -0.259266 0.939974 1.17645 -0.326408 
0.987428 1.14465 -0.394771 1.03934 1.11547 -0.464597 1.0871 1.08098 -0.532212 
1.13794 1.05031 -0.601436 1.17972 1.00843 -0.665972 1.22254 0.968521 -0.723443 
1.27552 0.94257 -0.770962 1.32274 0.911569 -0.792702 1.36728 0.878626 -0.797857 
1.41779 0.853778 -0.798502 1.47731 0.840059 -0.803799 1.52776 0.815129 -0.80441 
1.57113 0.78076 -0.808968 1.61123 0.740943 -0.827024 1.64905 0.696941 -0.859115 
1.68805 0.655073 -0.884205 1.73252 0.622756 -0.881728 1.78737 0.606031 -0.854209 
1.85237 0.602562 -0.824339 1.90722 0.585845 -0.796823 1.9561 0.561732 -0.766216 
2.00608 0.540375 -0.720986 2.05709 0.520991 -0.668678 2.10701 0.499553 -0.623414 
2.15363 0.471961 -0.599245 2.19915 0.44232 -0.582102 2.24686 0.416781 -0.550898 
2.30008 0.401495 -0.484539 0.602917 0.695228 -0.102167 0.676962 0.691038 -0.0422999 
0.734731 0.676463 -0.00805983 0.790828 0.661174 0.0188448 0.859254 0.663322 0.0621415 
0.927821 0.667722 0.128175 1.00173 0.680117 0.20663 1.0644 0.677217 0.275715 
1.1237 0.66808 0.323729 1.18663 0.660663 0.339465 1.24044 0.641271 0.352324 
1.29535 0.623929 0.372208 1.36151 0.622591 0.40907 1.41966 0.612022 0.457693 
1.47073 0.592011 0.50236 1.51741 0.5645 0.526495 1.56183 0.532808 0.536604 
1.60515 0.499063 0.539677 1.64744 0.463348 0.535682 1.68972 0.426929 0.524099 
1.73694 0.395927 0.502359 1.79541 0.379532 0.482395 1.85086 0.359398 0.464004 
1.90945 0.342459 0.436375 1.96172 0.315628 0.389224 2.02186 0.297318 0.322748 
2.08551 0.285541 0.246013 2.14229 0.28131 0.168161 2.18568 0.287637 0.0893103 
2.23059 0.289877 0.00362022 2.26239 0.299413 -0.089966 2.29293 0.307038 -0.19058 
2.33463 0.311773 -0.276507 2.3583 0.339279 -0.342843 5.29603 0.6563 -0.896563 
5.32801 0.555003 -0.9322 5.12501 0.821446 -0.767534 5.08569 0.910662 -0.631363 
5.05138 0.972717 -0.511468 5.00486 1.0118 -0.414165 4.95821 1.04835 -0.339515 
4.90071 1.06733 -0.30486 4.84082 1.07989 -0.306959 4.57439 1.17109 -0.471385 
4.6265 1.15375 -0.412051 4.67642 1.13231 -0.366788 4.72304 1.10472 -0.342619 
5.47709 -0.213409 0.142509 5.534 -0.224206 0.136766 5.58421 -0.211392 0.125184 
5.61492 -0.171354 0.108706 5.65968 -0.140057 0.0925841 5.68961 -0.0970769 0.0753715 
5.69423 -0.0314847 0.0633212 5.69818 0.0404538 0.0651266 5.71574 0.110502 0.0887595 
5.72227 0.191813 0.118649 5.7186 0.27638 0.14917 5.69814 0.342382 0.179925 
5.64641 0.370399 0.234451 5.58223 0.380254 0.298831 5.52387 0.37937 0.365425 
5.4774 0.355576 0.426435 5.35341 -0.183525 0.285763 5.30307 -0.166999 0.405842 
5.26034 -0.167897 0.498606 5.20243 -0.166273 0.561795 5.13933 -0.157983 0.592642 
5.08768 -0.134011 0.601525 5.03601 -0.110598 0.60277 4.97643 -0.0969531 0.608098 
4.92598 -0.0720232 0.608709 5.41758 -0.100926 0.251644 5.42398 0.00499823 0.339383 
5.42697 0.105633 0.405784 5.42665 0.206816 0.454351 5.34291 0.361146 0.661693 

LINES 35 446
8 28 29 30 31 32 33 34 27 
3 28 85 26 
10 27 86 87 88 89 90 91 92 93 26 
19 27 94 95 96 97 98 99 100 101 102 103 104 105 106 107 108 109 110 23 
31 26 111 112 113 114 115 116 117 118 119 120 121 122 123 124 125 126 127 128 129 130 131 132 133 134 135 136 137 138 139 16 
4 24 140 141 25 
5 25 142 143 144 19 
7 25 145 146 147 148 149 14 
4 24 150 151 19 
3 24 152 23 
23 23 153 154 155 156 157 158 159 160 161 162 163 164 165 166 167 168 169 170 171 172 173 20 
6 20 176 177 178 179 10 
9 20 180 181 182 183 184 185 186 18 
16 18 187 188 189 190 191 192 193 194 195 196 197 198 199 200 14 
3 20 201 13 
10 19 202 203 204 205 206 207 208 209 14 
5 18 210 211 212 11 
8 17 213 214 215 216 217 218 8 
3 7 219 15 
11 14 220 221 222 223 224 225 226 227 228 11 
7 13 229 230 231 232 233 10 
4 13 234 235 11 
15 12 236 237 238 239 240 241 242 243 244 245 246 247 248 4 
4 6 249 250 7 
4 10 251 252 9 
41 9 253 254 255 256 257 258 259 260 261 262 263 264 265 266 267 268 269 270 271 272 273 274 275 276 277 278 279 280 281 282 283 284 285 286 287 288 289 290 291 8 
36 9 292 293 294 295 296 297 298 299 300 301 302 303 304 305 306 307 308 309 310 311 312 313 314 315 316 317 318 319 320 321 322 323 324 325 8 
4 6 326 327 7 
9 6 328 329 330 331 332 333 334 4 
6 5 335 336 337 338 4 
18 3 339 340 341 342 343 344 345 346 347 348 349 350 351 352 353 354 1 
11 3 355 356 357 358 359 360 361 362 363 2 
6 3 364 365 366 367 1 
3 1 368 0 
55 28 35 36 37 38 39 40 41 42 43 44 45 46 47 48 49 50 51 52 53 54 55 56 57 58 59 60 61 62 63 64 65 66 67 68 69 70 71 72 73 74 75 76 77 78 79 80 81 82 83 84 22 174 175 21 

POINT_DATA 369
SCALARS DY_raw double
LOOKUP_TABLE default
671.068 558.478 478.819 540.448 462.684 344.747 562.891 398.06 423.999 
625.363 679.283 662.126 460.47 766.542 667.011 781.865 427.992 785.311 
752.112 532.824 656.527 478.655 541.93 570.166 422.51 517.343 639.09 
565.576 495.895 485.357 483.823 495.027 515.644 569.464 548.891 484.481 
526.613 508.995 587.37 563.654 633.482 562.538 624.668 619.5 708.849 
708.849 877.044 868.084 1019.86 935.107 935.107 903.569 948.17 899.423 
873.303 1028.1 1028.1 1002.4 955.362 955.362 1019.08 1019.08 1015.97 
948.745 948.745 926.314 726.914 777.775 764.512 722.553 647.733 622.196 
590.136 591.873 699.24 628.759 739.495 764.736 705.794 682.39 693.393 
615.545 512.558 584.368 586.165 575.029 530.708 510.071 541.593 614.118 
693.141 725.355 769.799 719.563 549.866 540.881 517.39 517.39 622.082 
565.327 606.01 575.713 614.445 616.131 551.75 586.146 627.101 658.73 
641.653 653.993 637.56 652.315 676.731 722.94 745.838 715.306 805.547 
741.878 624.864 581.93 697.995 609.625 565.621 560.565 511.846 481.537 
492.131 572.617 520.669 548.941 603.178 654.64 656.271 834.508 633.75 
696.403 641.92 412.29 495.691 396.885 429.215 465.71 607.475 602.446 
565.534 509.443 514.526 563.909 610.553 666.819 541.561 543.176 448.394 
570.166 645.881 704.717 763.129 751.168 751.168 682.309 719.819 689.144 
788.874 775.589 775.589 782.808 783.678 762.37 743.031 743.031 725.979 
721.133 689.854 718.123 556.886 577.833 626.967 623.981 569.864 545.432 
558.818 552.469 588.827 588.827 630.757 664.379 701.463 865.052 1017.48 
1159.64 1273.43 1281.27 1281.27 1257.25 1257.25 1245.26 1205.42 1205.42 
999.951 921.712 795.162 767.036 534.752 493.638 530.537 537.445 599.091 
580.357 553.307 560.987 806.641 678.107 610.937 781.175 701.909 571.169 
495.72 440.464 394.771 577.044 663.83 739.927 814.385 856.1 758.165 
733.341 733.341 640.736 650.652 713.631 731.197 812.284 757.627 705.969 
637.718 631.43 521.258 532.912 555.954 564.992 604.719 626.769 563.457 
643.364 640.159 617.89 730.839 679.314 608.979 480.529 424.911 633.258 
613.259 655.682 740.684 707.899 712.971 837.027 837.027 961.996 1141.85 
1141.85 1116.43 1082.62 1056.9 929.842 1041.84 1114.61 845.369 967.591 
974.451 868.607 835.165 959.375 959.375 973.352 973.352 932.982 804.108 
722.403 702.734 725.343 783.949 778.008 809.233 808.869 672.321 580.68 
585.05 431.968 434.899 408.024 731.21 895.464 852.258 843.417 890.306 
712.35 746.442 663.811 702.062 707.944 742.348 663.057 686.983 709.295 
730.633 730.633 706.726 762.175 700.428 825.386 803.854 803.854 783.713 
808.925 739.408 733.922 730.207 813.146 741.137 636.554 631.227 498.895 
475.965 427.657 496.601 438.22 643.677 644.23 640.809 626.774 654.067 
513.526 563.051 368.83 387.778 405.948 405.948 579.003 624.63 682.375 
707.529 707.529 749.894 818.613 863.692 795.519 731.158 645.437 617.467 
679.693 608.505 555.718 522.936 693.757 702.443 732.666 674.212 598.059 
547.979 570.076 533.675 478.819 625.738 584.589 565.896 533.084 638.842 

FIELD FieldData 7
DY_minmax 1 369 double
0.348438 0.228218 0.143159 0.208965 0.12593 0 0.23293 0.0569263 0.0846234 
0.299636 0.357211 0.338891 0.123566 0.450384 0.344106 0.466746 0.0888867 0.470425 
0.434976 0.200824 0.332913 0.142984 0.210548 0.240698 0.0830332 0.184294 0.314293 
0.235796 0.161392 0.150141 0.148502 0.160466 0.18248 0.239948 0.21798 0.149205 
0.194193 0.17538 0.259068 0.233744 0.308305 0.232553 0.298894 0.293376 0.38878 
0.38878 0.568376 0.558809 0.720876 0.630374 0.630374 0.596699 0.644323 0.592272 
0.564381 0.729672 0.729672 0.70223 0.652003 0.652003 0.720043 0.720043 0.716718 
0.644937 0.644937 0.620986 0.408071 0.462379 0.448217 0.403413 0.323522 0.296254 
0.262021 0.263876 0.378521 0.303263 0.421503 0.448456 0.385518 0.360528 0.372277 
0.289153 0.179185 0.255862 0.257781 0.24589 0.198565 0.176529 0.210188 0.287628 
0.372008 0.406406 0.453862 0.400221 0.219022 0.209427 0.184345 0.184345 0.296132 
0.23553 0.278971 0.24662 0.287978 0.289778 0.221034 0.25776 0.301492 0.335264 
0.31703 0.330207 0.312659 0.328414 0.354486 0.403826 0.428277 0.395675 0.492033 
0.424048 0.299103 0.253259 0.377191 0.282832 0.235845 0.230446 0.178425 0.146061 
0.157373 0.243315 0.187846 0.218034 0.275947 0.330897 0.332639 0.522956 0.308591 
0.375491 0.317315 0.0721201 0.161174 0.055671 0.0901931 0.129162 0.280535 0.275165 
0.235751 0.175858 0.181286 0.234017 0.283822 0.343902 0.210153 0.211879 0.110671 
0.240698 0.321545 0.384368 0.44674 0.433968 0.433968 0.360441 0.400494 0.36774 
0.47423 0.460044 0.460044 0.467753 0.468682 0.44593 0.425279 0.425279 0.407072 
0.401897 0.368498 0.398683 0.226518 0.248884 0.301348 0.29816 0.240375 0.214287 
0.228581 0.221801 0.260623 0.260623 0.305396 0.341296 0.380894 0.555571 0.718329 
0.870124 0.991629 1 1 0.974354 0.974354 0.961553 0.919008 0.919008 
0.699614 0.616072 0.480944 0.450911 0.202883 0.158982 0.198382 0.205758 0.271583 
0.251579 0.222696 0.230897 0.493201 0.355955 0.284233 0.466009 0.38137 0.241769 
0.161205 0.102205 0.0534147 0.248042 0.34071 0.421965 0.50147 0.546012 0.441439 
0.414933 0.414933 0.316051 0.326639 0.393887 0.412643 0.499226 0.440865 0.385705 
0.312828 0.306114 0.188475 0.200918 0.225523 0.235173 0.277593 0.301137 0.233534 
0.318857 0.315434 0.291656 0.412261 0.357244 0.282141 0.144984 0.0855969 0.308066 
0.286711 0.33201 0.422773 0.387767 0.393182 0.525647 0.525647 0.659086 0.851127 
0.851127 0.82399 0.787888 0.760421 0.624753 0.744341 0.822045 0.534554 0.66506 
0.672385 0.559367 0.523659 0.656287 0.656287 0.671212 0.671212 0.628105 0.490496 
0.403253 0.382252 0.406393 0.468971 0.462627 0.495969 0.49558 0.349777 0.251924 
0.25659 0.0931324 0.0962619 0.0675658 0.412657 0.588045 0.54191 0.53247 0.582537 
0.392518 0.428922 0.34069 0.381534 0.387814 0.42455 0.339885 0.365433 0.389256 
0.412041 0.412041 0.386514 0.445721 0.379789 0.513217 0.490225 0.490225 0.468719 
0.495639 0.421411 0.415553 0.411587 0.500147 0.423257 0.311585 0.305897 0.164596 
0.140111 0.0885297 0.162147 0.0998083 0.319191 0.319782 0.316129 0.301143 0.330286 
0.180218 0.2331 0.025715 0.0459477 0.0653485 0.0653485 0.250133 0.298853 0.360513 
0.387371 0.387371 0.432608 0.505984 0.554119 0.481326 0.412602 0.321071 0.291204 
0.357649 0.281635 0.225271 0.190266 0.372665 0.38194 0.414212 0.351796 0.270481 
0.217007 0.240601 0.201733 0.143159 0.300036 0.256099 0.236138 0.201102 0.314029 

WidthEq 1 369 double
1.31564 2.38794 1.90148 1.97735 3.38498 2.28139 2.37079 2.93434 4.04778 
3.24585 2.88783 2.76489 2.547 2.28764 2.74819 1 3.83567 1.81292 
2.33916 4.36055 2.62215 2.73142 4.19732 3.87364 4.12579 3.61568 3.12647 
2.77714 3.30087 3.29261 3.1184 2.87601 2.75645 2.83318 3.05027 3.32763 
3.30004 3.23556 2.93877 2.91478 2.7488 2.6856 2.62391 2.42981 2.18449 
2.18449 1.71383 1.64342 1.47412 1.45995 1.45995 1.46377 1.43229 1.53413 
1.52539 1.38699 1.38699 1.36125 1.39529 1.39529 1.42179 1.42179 1.37518 
1.42848 1.42848 1.51167 1.78756 1.82704 1.96652 2.11267 2.24535 2.28996 
2.32041 2.31184 2.14282 2.54686 2.43168 2.50605 2.77595 2.87039 2.87543 
3.09564 3.57149 3.51045 3.91919 3.25677 3.17047 3.41232 3.40133 3.12338 
2.73515 2.73635 2.70296 2.8888 3.11447 2.88623 3.04448 3.04448 2.83626 
3.03986 3.17512 3.31315 3.23473 3.21137 3.18257 3.27382 3.08149 2.83715 
2.89095 2.94034 3.23486 2.99861 2.78931 2.55889 2.49855 2.49897 2.1967 
2.28867 2.52569 2.76562 2.51524 3.23888 3.64597 4.05517 4.47698 4.57577 
4.49532 4.09475 4.12566 3.81293 3.6609 3.11488 2.93017 2.60371 3.00455 
2.87988 3.02116 3.877 3.73401 4.18329 3.68231 3.58883 3.39938 3.52431 
3.65194 3.3049 3.019 2.57881 2.38105 2.56015 3.59481 3.78858 4.45777 
3.87364 3.20041 3.09792 2.74801 2.28063 2.28063 2.25852 1.86249 2.00447 
1.7243 1.79638 1.79638 1.72692 1.69177 1.73347 1.78462 1.78462 1.79951 
1.91451 1.94332 2.18097 4.08039 3.67505 2.93434 2.95088 2.96984 3.20917 
3.18074 3.19148 3.04078 3.04078 2.83233 2.6536 2.52912 2.01131 1.68237 
1.6184 1.44995 1.47689 1.47689 1.47952 1.47952 1.45134 1.57497 1.57497 
1.8501 1.88473 2.18376 2.3549 4.35644 4.41229 4.09989 3.89944 3.54817 
3.48493 3.4724 3.38087 2.37643 2.6756 2.99523 2.1496 2.56964 3.16998 
3.60858 4.0499 4.47341 1.86321 2.52883 2.17457 1.87494 1.77706 2.05323 
2.13742 2.13742 2.54778 2.60249 2.67402 2.75221 2.3197 2.47285 2.66025 
2.97403 3.0158 2.75371 2.9285 2.86273 2.76258 2.6354 2.67862 2.9263 
2.65138 2.62517 2.71149 2.59793 2.71666 2.91569 2.59809 2.87965 3.23457 
3.31585 3.1609 2.59249 2.23603 1.95808 1.45225 1.45225 1.12821 1.00644 
1.00644 1.02129 1.07632 1.12349 1.17211 1.19691 1.13769 1.2949 1.16848 
1.09422 1.1074 1.15403 1.05491 1.05491 1.00005 1.00005 1.03765 1.3155 
1.49297 1.68699 2.03058 1.98575 2.29182 2.37286 2.3826 2.8515 3.23029 
3.16145 4.04031 3.98919 4.24777 2.85633 2.34333 2.33016 1.94684 1.84618 
1.9739 1.93575 2.09279 2.14364 2.25906 2.17863 2.45512 2.42876 2.39054 
2.27564 2.27564 2.26469 2.11181 2.31389 2.03777 1.98094 1.98094 1.96303 
1.89086 2.04848 2.13508 2.24926 2.12993 2.42915 2.72738 2.75024 3.40079 
3.53286 3.93571 2.31509 2.70671 2.31715 2.46556 2.66322 2.76231 2.82872 
3.23527 3.20404 2.24888 2.69776 3.35012 3.35012 1.98822 2.02655 1.84584 
1.77062 1.77062 1.61868 1.41198 1.42412 1.45523 1.55144 1.70423 1.78689 
1.84338 2.17483 2.41404 2.45714 1.67864 1.85831 1.91697 2.12649 2.36078 
2.48458 2.35838 2.34488 1.90148 2.09847 1.96941 2.16712 2.38967 1.91543 

rRFP 1 369 double
5444.36 8028.68 6856.27 7039.12 10431.6 7771.89 7987.33 9345.54 12029 
10096.3 9233.44 8937.14 8412.01 7786.95 8896.91 4683.64 11517.8 6642.83 
7911.12 12782.8 8593.14 8856.47 12389.4 11609.3 12217 10987.6 9808.58 
8966.68 10228.9 10209 9789.14 9204.96 8916.8 9101.73 9624.93 10293.4 
10226.9 10071.5 9356.21 9298.38 8898.37 8746.06 8597.38 8129.57 7538.35 
7538.35 6404.02 6234.32 5826.31 5792.14 5792.14 5801.35 5725.49 5970.94 
5949.86 5616.31 5616.31 5554.27 5636.31 5636.31 5700.19 5700.19 5587.86 
5716.31 5716.31 5916.81 6581.72 6676.86 7013.01 7365.25 7685.01 7792.54 
7865.91 7845.26 7437.91 8411.69 8134.09 8313.32 8963.79 9191.41 9203.56 
9734.27 10881.1 10734 11719.1 10122.6 9914.63 10497.5 10471 9801.14 
8865.47 8868.36 8787.89 9235.78 9779.67 9229.58 9610.98 9610.98 9109.15 
9599.85 9925.83 10258.5 10069.5 10013.2 9943.79 10163.7 9700.17 9111.3 
9240.95 9360 10069.8 9500.42 8996.01 8440.68 8295.25 8296.25 7567.77 
7789.43 8360.67 8938.9 8335.47 10079.5 11060.6 12046.8 13063.4 13301.5 
13107.6 12142.2 12216.7 11463 11096.6 9780.65 9335.48 8548.69 9514.75 
9214.27 9554.78 11617.4 11272.8 12355.6 11148.2 10922.9 10466.3 10767.4 
11075 10238.6 9549.58 8488.68 8012.06 8443.7 10937.3 11404.3 13017.1 
11609.3 9986.78 9739.77 8896.46 7770.04 7770.04 7716.75 6762.3 7104.47 
6429.25 6602.98 6602.98 6435.56 6350.86 6451.35 6574.62 6574.62 6610.51 
6887.67 6957.1 7529.86 12107.6 11130.7 9345.54 9385.4 9431.09 10007.9 
9939.37 9965.26 9602.07 9602.07 9099.69 8668.93 8368.93 7120.96 6328.2 
6174.02 5768.06 5832.98 5832.98 5839.31 5839.31 5771.41 6069.35 6069.35 
6732.43 6815.89 7536.59 7949.05 12772.9 12907.5 12154.6 11671.5 10824.9 
10672.5 10642.3 10421.7 8000.93 8721.96 9492.27 7454.26 8466.59 9913.44 
10970.5 12034.1 13054.8 6764.04 8368.23 7514.44 6792.31 6556.42 7221.99 
7424.89 7424.89 8413.9 8545.75 8718.15 8906.58 7864.21 8233.3 8684.96 
9441.2 9541.85 8910.21 9331.47 9172.94 8931.58 8625.06 8729.23 9326.16 
8663.59 8600.41 8808.46 8534.75 8820.91 9300.59 8535.14 9213.73 10069.1 
10265 9891.56 8521.65 7662.56 6992.68 5773.6 5773.6 4992.64 4699.15 
4699.15 4734.96 4867.57 4981.26 5098.43 5158.2 5015.49 5394.36 5089.7 
4910.72 4942.48 5054.86 4815.98 4815.98 4683.77 4683.77 4774.37 5444.02 
5871.73 6339.33 7167.4 7059.36 7797.02 7992.32 8015.81 9145.89 10058.8 
9892.88 12011 11887.8 12511 9157.52 7921.15 7889.41 6965.58 6722.99 
7030.8 6938.86 7317.33 7439.88 7718.05 7524.23 8190.58 8127.04 8034.93 
7758.01 7758.01 7731.63 7363.17 7850.21 7184.73 7047.77 7047.77 7004.62 
6830.68 7210.56 7419.27 7694.44 7406.85 8128 8846.75 8901.84 10469.7 
10788 11758.9 7853.09 8796.93 7858.06 8215.73 8692.11 8930.93 9090.99 
10070.8 9995.52 7693.53 8775.37 10347.6 10347.6 7065.32 7157.7 6722.17 
6540.89 6540.89 6174.69 5676.54 5705.81 5780.78 6012.64 6380.89 6580.1 
6716.25 7515.06 8091.57 8195.44 6319.2 6752.22 6893.59 7398.56 7963.21 
8261.57 7957.43 7924.9 6856.27 7331.04 7019.98 7496.48 8032.84 6889.88 

rGFP 1 369 double
3369.48 3820.21 3397.06 3555.25 4052.77 3273.1 3821.09 3654.64 4202.85 
4516.43 4448.25 4317.3 3659.41 4240.17 4319.67 3268.46 4128.23 3910.3 
4245.91 4810 4208.11 3794 4761.25 4695.21 4229.78 4357.14 4484.69 
4057.28 4123.48 4084.69 3995.35 3910.3 3907.94 4099.99 4160.86 4098.77 
4224.44 4133.48 4212.74 4129.52 4227.91 3997.35 4125.67 3991.86 4035.07 
4035.07 3989.7 3913.22 3990 3851.8 3851.8 3809.21 3844.65 3866.43 
3818.72 3912.56 3912.56 3851.11 3819.6 3819.6 3935.52 3935.52 3883.74 
3841.86 3841.86 3886.88 3786 3907.62 3990.02 4013.11 3940.98 3911.4 
3855.95 3854.91 3984.94 4087.96 4284.81 4403.06 4445.84 4445.32 4480.4 
4392.1 4317.19 4537.99 4783.89 4359.33 4169.19 4227.12 4328.73 4404.72 
4382.44 4471.42 4567.33 4565.27 4199.14 4047.7 4061.78 4061.78 4250.98 
4205.11 4410.75 4394.02 4474.16 4465.22 4242.58 4405.53 4419 4355.51 
4341.58 4409.56 4549.01 4442.63 4374.21 4336.52 4350.11 4274.12 4256.14 
4184.51 4064.81 4095.99 4242.22 4461.1 4548.83 4759.78 4778.12 4690 
4698.88 4831.32 4634.7 4579.67 4694.77 4525.72 4409.58 4659.41 4390.73 
4492.15 4425.94 4085.04 4337.51 4146.88 4067.1 4157.95 4551.63 4609.8 
4551.89 4170.25 4039.95 3940.81 3940.35 4193.75 4433.4 4544.46 4485.43 
4695.21 4553.68 4669.75 4583.68 4199.73 4199.73 4027.6 3827.25 3867.96 
3846.85 3879.85 3879.85 3838.44 3812.4 3808.14 3812.62 3812.62 3793 
3867.21 3827.2 4052.8 4758.91 4610.16 4326.33 4327.89 4179 4236.98 
4264.05 4249.79 4277.09 4277.09 4273.11 4249.59 4260.68 4226.48 4198.37 
4363.35 4333.01 4378.89 4378.89 4346.72 4346.72 4293.9 4385.09 4385.09 
4336.6 4223.77 4223.04 4292.89 4816.21 4664.67 4661.74 4582.33 4612.27 
4509.1 4407.9 4383.22 4403.52 4300.94 4316.49 4165.81 4290.25 4297.19 
4275.44 4270.43 4252.57 3561.75 4165.31 4095.62 4013.52 4007.94 4043.28 
4054.05 4054.05 4119.05 4179.91 4394.86 4499 4370.85 4360.09 4364.65 
4383.19 4390.86 3921.99 4047.23 4078.14 4047.43 4080.27 4165.47 4135.44 
4192.4 4167.12 4162 4385.26 4332.06 4262.19 3735.05 3710.19 4534.91 
4520.07 4559.14 4406.81 4069.48 3882.65 3702.17 3702.17 3571.93 3635.79 
3635.79 3626.8 3651.84 3674.01 3576.47 3733.58 3754.68 3581.26 3617.21 
3552.86 3448.49 3450.4 3498.65 3498.65 3460 3460 3454.7 3544.4 
3565.12 3672.1 3959.46 4043.32 4269.65 4406.79 4413.81 4403.72 4362.36 
4336.2 4231.88 4221.49 4219.79 4575.17 4584.96 4472.49 4128.59 4130.26 
3892.7 3931.52 3875.81 3991.56 4085.88 4103.9 4114.48 4155.11 4182.19 
4149.25 4149.25 4087.11 4096.16 4107.31 4168.54 4078.98 4078.98 4025.05 
4016.16 4001.26 4053.58 4129.02 4218.54 4286.93 4222.72 4222.62 4183.23 
4168.11 4169.73 3636.27 3672.73 3978.09 4074.98 4193.21 4217.94 4336.77 
4147.99 4290.63 3316.05 3532.73 3846.57 3846.57 3637.78 3752.44 3746.15 
3739.36 3739.36 3700.43 3642.46 3716.6 3644.26 3620.94 3586.57 3589.94 
3739.53 3809.99 3828.12 3771.52 3651.16 3791.95 3891.09 3920.3 3898.48 
3848.09 3831.05 3738 3397.06 3799.69 3637.89 3712.96 3760.49 3710.25 

bkstRFP 1 369 double
3170.79 5755.11 4582.7 4765.55 8158.03 5498.32 5713.76 7071.97 9755.43 
7822.73 6959.87 6663.57 6138.44 5513.38 6623.34 2410.07 9244.23 4369.26 
5637.55 10509.2 6319.57 6582.9 10115.8 9335.73 9943.43 8714.03 7535.01 
6693.11 7955.33 7935.43 7515.57 6931.39 6643.23 6828.16 7351.36 8019.83 
7953.33 7797.93 7082.64 7024.81 6624.8 6472.49 6323.81 5856 5264.78 
5264.78 4130.45 3960.75 3552.74 3518.57 3518.57 3527.78 3451.92 3697.37 
3676.29 3342.74 3342.74 3280.7 3362.74 3362.74 3426.62 3426.62 3314.29 
3442.74 3442.74 3643.24 4308.15 4403.29 4739.44 5091.68 5411.44 5518.97 
5592.34 5571.69 5164.34 6138.12 5860.52 6039.75 6690.22 6917.84 6929.99 
7460.7 8607.53 8460.43 9445.53 7849.03 7641.06 8223.93 8197.43 7527.57 
6591.9 6594.79 6514.32 6962.21 7506.1 6956.01 7337.41 7337.41 6835.58 
7326.28 7652.26 7984.93 7795.93 7739.63 7670.22 7890.13 7426.6 6837.73 
6967.38 7086.43 7796.23 7226.85 6722.44 6167.11 6021.68 6022.68 5294.2 
5515.86 6087.1 6665.33 6061.9 7805.93 8787.03 9773.23 10789.8 11027.9 
10834 9868.63 9943.13 9189.43 8823.03 7507.08 7061.91 6275.12 7241.18 
6940.7 7281.21 9343.83 8999.23 10082 8874.63 8649.33 8192.73 8493.83 
8801.43 7965.03 7276.01 6215.11 5738.49 6170.13 8663.73 9130.73 10743.5 
9335.73 7713.21 7466.2 6622.89 5496.47 5496.47 5443.18 4488.73 4830.9 
4155.68 4329.41 4329.41 4161.99 4077.29 4177.78 4301.05 4301.05 4336.94 
4614.1 4683.53 5256.29 9834.03 8857.13 7071.97 7111.83 7157.52 7734.33 
7665.8 7691.69 7328.5 7328.5 6826.12 6395.36 6095.36 4847.39 4054.63 
3900.45 3494.49 3559.41 3559.41 3565.74 3565.74 3497.84 3795.78 3795.78 
4458.86 4542.32 5263.02 5675.48 10499.3 10633.9 9881.03 9397.93 8551.33 
8398.93 8368.73 8148.13 5727.36 6448.39 7218.7 5180.69 6193.02 7639.87 
8696.93 9760.53 10781.2 4490.47 6094.66 5240.87 4518.74 4282.85 4948.42 
5151.32 5151.32 6140.33 6272.18 6444.58 6633.01 5590.64 5959.73 6411.39 
7167.63 7268.28 6636.64 7057.9 6899.37 6658.01 6351.49 6455.66 7052.59 
6390.02 6326.84 6534.89 6261.18 6547.34 7027.02 6261.57 6940.16 7795.53 
7991.43 7617.99 6248.08 5388.99 4719.11 3500.03 3500.03 2719.07 2425.58 
2425.58 2461.39 2594 2707.69 2824.86 2884.63 2741.92 3120.79 2816.13 
2637.15 2668.91 2781.29 2542.41 2542.41 2410.2 2410.2 2500.8 3170.45 
3598.16 4065.76 4893.83 4785.79 5523.45 5718.75 5742.24 6872.32 7785.23 
7619.31 9737.43 9614.23 10237.4 6883.95 5647.58 5615.84 4692.01 4449.42 
4757.23 4665.29 5043.76 5166.31 5444.48 5250.66 5917.01 5853.47 5761.36 
5484.44 5484.44 5458.06 5089.6 5576.64 4911.16 4774.2 4774.2 4731.05 
4557.11 4936.99 5145.7 5420.87 5133.28 5854.43 6573.18 6628.27 8196.13 
8514.43 9485.33 5579.52 6523.36 5584.49 5942.16 6418.54 6657.36 6817.42 
7797.23 7721.95 5419.96 6501.8 8074.03 8074.03 4791.75 4884.13 4448.6 
4267.32 4267.32 3901.12 3402.97 3432.24 3507.21 3739.07 4107.32 4306.53 