# vtk DataFile Version 3.0
vtk output
ASCII
DATASET POLYDATA
POINTS 544 float
2.61755 -0.759659 1.0455 2.08407 -1.44133 0.716696 0.308578 -0.629118 0.435897 
3.15924 -0.314236 0.331486 0.553495 -1.20393 0.192186 4.87075 -0.194774 0.192769 
3.14432 0.168636 0.251511 5.57175 0.159818 -0.00906718 5.37779 0.605379 -0.068582 
5.92258 -0.358499 -0.293908 4.0623 -0.0918436 -0.177511 5.59845 -0.729297 -0.674494 
4.98845 -1.15437 -0.717683 6.46944 0.363261 -0.71816 -0.248151 1.25558 -0.596658 
2.15212 1.39463 -0.326593 3.03773 0.670796 -0.627225 0.0561172 -1.12472 -1.02551 
2.19237 1.60385 -0.474351 6.49566 -0.0672923 -1.05396 5.96865 -0.695253 -1.55825 
-0.712328 0.318066 -0.86318 6.3269 -0.186826 -1.29424 6.32079 1.00216 -1.22215 
6.59089 0.402059 -1.33479 0.271066 -0.800425 -1.69033 5.71265 -0.791728 -1.87684 
-0.62599 0.404601 -1.81258 6.04347 -0.508713 -1.90325 5.98855 0.836559 -2.23724 
5.70301 0.637307 -2.29008 2.31997 1.02842 -2.31454 0.780494 0.827995 -2.34218 
0.789829 0.744209 -2.26663 0.750668 0.683222 -2.21428 0.691219 0.649668 -2.19205 
0.634847 0.648434 -2.18354 0.581319 0.660378 -2.17893 0.528307 0.674109 -2.17381 
0.475355 0.688044 -2.16863 0.422889 0.703664 -2.16296 0.373098 0.728532 -2.15463 
0.327364 0.767434 -2.14225 0.277573 0.792302 -2.13391 0.225136 0.808024 -2.12821 
0.17273 0.823847 -2.12249 0.123629 0.848512 -2.10651 0.0820663 0.894064 -2.06908 
0.0441286 0.944377 -2.00716 0.00695808 0.994358 -1.93762 -0.0285745 1.04607 -1.87534 
-0.0546671 1.09943 -1.82821 -0.0644027 1.14852 -1.78267 -0.078829 1.19473 -1.72243 
-0.0879856 1.23545 -1.64847 -0.113355 1.27835 -1.56582 -0.147923 1.31608 -1.45618 
-0.182872 1.33274 -1.2755 -0.215982 1.31146 -0.979889 2.25636 0.961516 -2.22482 
2.2041 0.893706 -2.14331 2.17977 0.8186 -2.06452 2.17862 0.7356 -1.98081 
2.20627 0.650884 -1.90591 2.2508 0.591795 -1.85471 2.3079 0.57966 -1.82082 
2.36426 0.564524 -1.78781 2.41903 0.533556 -1.72854 2.47395 0.492738 -1.64127 
2.52948 0.451413 -1.54644 2.58742 0.42362 -1.46313 2.64961 0.415727 -1.38948 
2.71016 0.407335 -1.3314 2.77222 0.409728 -1.28562 2.83073 0.414167 -1.26234 
2.88377 0.441047 -1.24778 2.92296 0.481601 -1.22892 2.96427 0.519307 -1.19549 
2.97995 0.557651 -1.13819 2.97177 0.596819 -1.05956 2.97797 0.625303 -0.953469 
3.00035 0.646456 -0.808685 5.73258 0.692563 -2.30531 5.78678 0.735224 -2.30157 
5.85281 0.768638 -2.27764 5.9207 0.801567 -2.25388 5.98279 -0.576964 -1.80561 
6.06227 -0.551517 -1.79974 0.395756 -0.707652 -1.88857 0.475329 -0.661671 -2.02822 
0.534341 -0.639401 -2.1059 0.594247 -0.619924 -2.13131 0.650275 -0.62063 -2.14038 
0.703774 -0.632676 -2.14502 0.756785 -0.646407 -2.15014 0.809767 -0.66024 -2.15529 
0.86275 -0.674073 -2.16044 0.915761 -0.687804 -2.16556 0.96926 -0.69985 -2.1702 
1.02546 -0.702547 -2.17214 1.08621 -0.689523 -2.16954 1.1456 -0.681184 -2.1683 
1.20687 -0.666375 -2.16519 1.26629 -0.657934 -2.16391 1.32755 -0.643123 -2.1608 
1.38695 -0.634785 -2.15956 1.44772 -0.62166 -2.15693 1.50459 -0.624661 -2.15125 
1.56171 -0.631937 -2.13139 1.62286 -0.633062 -2.08663 1.6806 -0.648604 -2.03831 
1.73871 -0.660265 -1.99659 1.80313 -0.642286 -1.96945 1.87055 -0.611376 -1.94627 
1.93815 -0.582455 -1.91596 2.00353 -0.568953 -1.86699 2.065 -0.571581 -1.81494 
2.13038 -0.558079 -1.76597 2.198 -0.529056 -1.73563 2.26582 -0.494166 -1.71902 
2.33352 -0.457082 -1.70948 2.40134 -0.422192 -1.69287 2.46896 -0.393169 -1.66253 
2.53424 -0.37964 -1.61355 2.59385 -0.381782 -1.56132 2.64775 -0.365282 -1.51123 
2.6894 -0.331642 -1.47128 2.74565 -0.301814 -1.43275 2.80929 -0.290022 -1.37652 
2.87057 -0.300682 -1.30367 2.93363 -0.310762 -1.21525 2.99502 -0.32145 -1.14241 
3.06063 -0.312336 -1.07928 3.12821 -0.293438 -1.02103 3.19229 -0.290084 -0.936397 
3.24124 -0.3119 -0.812518 3.26625 -0.334639 -0.642089 3.27697 -0.364954 -0.450432 
3.27894 -0.377406 -0.248187 3.25619 -0.370669 -0.0475167 3.21568 -0.350118 0.144717 
-0.677699 0.361291 -1.4896 -0.707306 0.333847 -1.17271 5.81628 -0.763592 -1.72843 
6.27152 1.00217 -1.41936 6.21203 1.01742 -1.58357 6.154 1.05212 -1.70089 
6.09815 1.08861 -1.78684 6.0403 1.10634 -1.84223 5.97682 1.09423 -1.87539 
5.91633 1.08729 -1.89165 5.86711 1.11932 -1.89667 5.81953 1.15962 -1.907 
5.77388 1.20658 -1.91542 5.72409 1.24181 -1.93492 5.67464 1.28082 -1.96105 
5.6322 1.33891 -1.96625 5.59343 1.39151 -1.91909 5.55363 1.41391 -1.80356 
5.51151 1.39362 -1.63876 5.48963 1.35014 -1.45804 5.51972 1.29503 -1.28952 
5.57488 1.25153 -1.14898 5.63774 1.23114 -1.03269 5.6987 1.21638 -0.953328 
5.76046 1.21476 -0.901001 5.8171 1.20579 -0.881629 5.87074 1.19165 -0.879158 
5.92372 1.17782 -0.884309 5.97604 1.16429 -0.897083 6.0254 1.1457 -0.92673 
6.07027 1.11935 -0.981734 6.11904 1.10912 -1.03981 6.17058 1.10656 -1.09052 
6.22265 1.09837 -1.12746 6.27332 1.07036 -1.16763 0.163792 -0.906932 -1.46367 
0.108661 -1.01889 -1.23775 6.10861 -0.610799 -1.40816 6.17965 -0.564097 -1.30125 
6.22941 -0.528036 -1.25046 6.26709 -0.47787 -1.25512 6.30888 -0.4217 -1.28578 
6.33422 -0.361234 -1.31483 6.3484 -0.304016 -1.32145 6.34973 -0.247549 -1.31258 
6.60366 0.449141 -1.30575 6.60363 0.472644 -1.19842 6.56118 0.449941 -0.987991 
6.54283 0.362905 -1.13681 6.50024 0.342721 -0.933359 6.57553 0.388274 -1.47755 
6.57084 0.355274 -1.5644 6.58235 0.295454 -1.57452 6.58075 0.216471 -1.50506 
6.56867 0.125845 -1.38475 6.54417 0.0281931 -1.22764 6.38303 0.882617 -1.12473 
6.42955 0.7762 -1.02572 6.45954 0.681307 -0.93584 6.47106 0.593577 -0.85892 
6.48173 0.492088 -0.788608 6.3934 -0.161748 -1.24187 6.44852 -0.133704 -1.1884 
6.47771 -0.100937 -1.12529 6.27165 -0.206737 -1.22174 6.21316 -0.243061 -1.13857 
6.15982 -0.271939 -1.02241 6.11226 -0.288593 -0.879603 6.06954 -0.293713 -0.718049 
6.02264 -0.310673 -0.567621 5.97293 -0.334789 -0.426968 -0.698088 0.192554 -0.689317 
-0.663417 0.0888862 -0.542907 -0.616232 0.0123519 -0.424799 -0.569562 -0.060212 -0.336415 
-0.520993 -0.125597 -0.248532 -0.474411 -0.195262 -0.169583 -0.425843 -0.260647 -0.0817 
-0.37926 -0.330312 -0.00275158 -0.330781 -0.393411 0.0780808 -0.283597 -0.453219 0.136751 
-0.229628 -0.481784 0.181303 -0.16934 -0.480719 0.211282 -0.112586 -0.491873 0.237735 
-0.0577023 -0.514679 0.276237 -0.000486549 -0.532017 0.324038 0.0606124 -0.533328 0.368742 
0.117325 -0.543151 0.390437 0.172292 -0.561042 0.402078 0.233402 -0.587647 0.416168 
-0.679799 0.387481 -0.833107 -0.667883 0.44833 -0.815438 -0.668547 0.503933 -0.796481 
-0.650367 0.551278 -0.772614 -0.64966 0.597639 -0.728087 -0.632597 0.639733 -0.685161 
-0.592982 0.675936 -0.644418 -0.566729 0.721788 -0.62373 -0.550187 0.774283 -0.616339 
-0.533934 0.830961 -0.623154 -0.508018 0.883061 -0.623786 -0.467355 0.929259 -0.618741 
-0.440909 0.978088 -0.607481 -0.419019 1.03529 -0.60139 -0.3673 1.1195 -0.600823 
5.82374 -0.762991 -1.23863 5.74128 -0.814798 -0.990254 5.68945 -0.83066 -0.831687 
5.6455 -0.795509 -0.738702 -0.0824285 1.34876 -0.539138 0.0201439 1.40472 -0.509302 
0.0923335 1.44482 -0.50412 0.156556 1.47861 -0.523798 0.215916 1.49721 -0.550427 
0.276486 1.52258 -0.582812 0.335329 1.53938 -0.609956 0.396014 1.56256 -0.635264 
0.455147 1.57518 -0.648194 0.516266 1.59208 -0.65219 0.575688 1.60052 -0.650916 
0.636952 1.61533 -0.647804 0.696345 1.62367 -0.64656 0.757092 1.6367 -0.643963 
0.813324 1.6341 -0.645873 0.867339 1.62384 -0.649993 0.923571 1.62125 -0.651903 
0.9842 1.63646 -0.656387 1.04377 1.65058 -0.668885 1.10664 1.68131 -0.692013 
1.16686 1.70289 -0.717779 1.21929 1.70011 -0.758286 1.2796 1.71941 -0.777001 
1.34187 1.74028 -0.779851 1.39592 1.71977 -0.756095 1.44322 1.66813 -0.718201 
1.49431 1.62443 -0.662595 1.54756 1.5882 -0.604833 1.59851 1.54659 -0.556333 
1.64563 1.49695 -0.525572 1.69905 1.47684 -0.509413 1.7589 1.48418 -0.500746 
1.81505 1.48129 -0.50274 1.86869 1.46715 -0.500269 1.92214 1.44715 -0.48408 
1.97602 1.42087 -0.446579 2.03056 1.39428 -0.401446 2.08812 1.38073 -0.360273 
6.45629 -0.0530176 -0.909945 6.41347 -0.0511047 -0.769485 6.37644 -0.0334548 -0.632248 
6.35314 -0.0032842 -0.514761 6.35569 0.0322213 -0.434859 6.36886 0.0795133 -0.405754 
6.38484 0.146 -0.440568 6.41309 0.240696 -0.552292 2.17895 1.53411 -0.425095 
2.16554 1.46437 -0.375849 3.00498 0.729926 -0.544789 2.99096 0.774363 -0.461911 
2.9644 0.817691 -0.384254 2.92568 0.857618 -0.322802 2.88019 0.88921 -0.289408 
2.83567 0.929696 -0.268858 2.7891 0.965701 -0.25731 2.74391 1.00649 -0.244381 
2.69466 1.03325 -0.235502 2.64542 1.06001 -0.226619 2.60023 1.1008 -0.213694 
2.55366 1.1368 -0.202146 2.50881 1.18137 -0.195838 2.46181 1.22365 -0.205602 
2.41572 1.27688 -0.235327 2.36492 1.31639 -0.276731 2.3111 1.34288 -0.314174 
2.25506 1.35393 -0.332946 2.19837 1.35752 -0.338458 3.1126 0.55753 -0.415459 
3.16849 0.451273 -0.197646 3.18591 0.321445 0.0243023 -0.159054 1.09907 -0.240362 
-0.0897736 0.993615 0.0283877 -0.0288705 0.942374 0.184545 0.0333356 0.925526 0.281288 
0.0904689 0.900128 0.349885 0.142596 0.860013 0.406515 0.192277 0.821799 0.432873 
0.249775 0.81581 0.453106 0.306411 0.806837 0.472488 0.364317 0.797075 0.507043 
0.428489 0.808981 0.547859 0.492371 0.825072 0.574462 0.549725 0.823764 0.580634 
0.606591 0.820772 0.58632 0.66728 0.825819 0.609737 0.724324 0.810483 0.650395 
0.778866 0.783896 0.695527 0.833407 0.757313 0.740651 0.890303 0.74406 0.774199 
0.95114 0.747023 0.804725 1.00812 0.741837 0.817489 1.0651 0.736654 0.830243 
1.12579 0.741706 0.853672 1.18269 0.728453 0.88722 1.23694 0.706052 0.918139 
1.29091 0.687834 0.934844 1.34725 0.683045 0.940012 1.408 0.696068 0.942608 
1.46736 0.704306 0.943823 1.52811 0.717329 0.946419 1.58431 0.714633 0.944481 
1.63784 0.702688 0.939874 1.69137 0.690744 0.935267 1.74757 0.688048 0.933328 
1.80832 0.701071 0.935925 1.86768 0.709308 0.93714 1.9284 0.722229 0.939706 
1.98409 0.717747 0.937252 2.03439 0.694665 0.929433 2.08016 0.655865 0.917079 
2.12995 0.630996 0.908744 2.18241 0.615377 0.903077 2.23537 0.601442 0.897896 
2.28835 0.587609 0.892744 2.34119 0.575868 0.880486 2.39373 0.568309 0.854023 
2.44596 0.564831 0.813316 2.49782 0.557476 0.779201 2.54709 0.530811 0.770348 
2.59022 0.472517 0.783203 2.63346 0.41203 0.803135 2.68265 0.377306 0.815078 
2.73203 0.348447 0.813302 2.77771 0.30936 0.800865 2.82684 0.284788 0.784905 
2.87565 0.264305 0.754714 2.91995 0.235968 0.699136 2.96492 0.215811 0.627403 
3.00723 0.187832 0.528723 3.06081 0.166841 0.400966 4.96431 -1.07482 -0.763287 
4.96535 -1.01417 -0.768622 4.98051 -0.969532 -0.732622 5.00929 -0.932556 -0.683705 
5.0641 -0.900429 -0.644471 5.12976 -0.870892 -0.613947 5.19471 -0.853283 -0.579194 
5.2552 -0.851514 -0.549013 5.31659 -0.846662 -0.517942 5.37351 -0.848854 -0.514596 
5.43175 -0.84071 -0.539128 5.50458 -0.79568 -0.596868 5.5977 -0.684051 -0.527286 
5.60959 -0.647838 -0.424189 5.63587 -0.611591 -0.365145 5.67922 -0.576976 -0.32237 
5.71965 -0.545093 -0.267474 5.77477 -0.517046 -0.213996 5.82941 -0.480657 -0.188956 
5.86997 -0.424165 -0.219487 5.29955 0.624156 -0.0588853 5.23137 0.613355 -0.0452241 
5.17085 0.597322 -0.0229678 5.10704 0.570529 -0.019254 5.04331 0.552349 -0.0387587 
4.98572 0.565796 -0.0799612 4.93088 0.588374 -0.118543 4.87556 0.59497 -0.138641 
4.82352 0.561536 -0.124256 4.78316 0.509075 -0.100258 4.72751 0.462793 -0.0895802 
4.66309 0.431012 -0.12079 4.60621 0.403425 -0.174097 4.56568 0.371567 -0.228984 
4.52248 0.334245 -0.262257 4.49592 0.288474 -0.282916 4.47748 0.238528 -0.297243 
4.45117 0.190637 -0.310805 4.41026 0.146557 -0.322947 4.38211 0.0992551 -0.336298 
4.35259 0.0541241 -0.348982 4.30146 0.0246912 -0.356604 4.24363 0.0118585 -0.351478 
4.18299 -0.0115483 -0.32624 4.12438 -0.0404945 -0.264065 5.88635 -0.323027 -0.174608 
5.84982 -0.283374 -0.0695117 5.81287 -0.237448 0.0142725 5.77533 -0.183156 0.0696382 
5.73692 -0.117503 0.0866506 5.6961 -0.03977 0.0671165 5.64473 0.0515794 0.0286386 
5.46176 0.136403 -0.0739618 5.38229 0.119709 -0.111236 5.32293 0.117221 -0.10613 
5.26643 0.104902 -0.0669001 5.20545 0.0634323 -0.0160791 5.15108 0.00641596 0.0377565 
5.11082 -0.0560984 0.0896861 5.05628 -0.111125 0.136385 4.99449 -0.150206 0.172474 
4.9346 -0.168429 0.191497 5.50237 0.253527 0.0292008 5.45325 0.326855 0.0615668 
5.41478 0.397799 0.0698473 5.38641 0.488939 0.0231132 5.46021 0.669251 -0.118385 
5.53221 0.720204 -0.151198 5.59711 0.752084 -0.163728 5.65646 0.761854 -0.167211 
5.71416 0.76174 -0.160694 5.76289 0.728007 -0.156176 5.81044 0.687617 -0.145867 
5.8558 0.644836 -0.151659 5.90491 0.618005 -0.160558 5.95157 0.589993 -0.169754 
5.97881 0.533705 -0.155986 5.96736 0.471642 -0.127678 5.92746 0.415088 -0.0971784 
5.88848 0.36229 -0.0810335 5.83277 0.314622 -0.0661235 5.76526 0.267226 -0.0447211 
5.68273 0.216706 -0.0239318 3.20365 0.181596 -0.00692564 3.22089 0.205662 -0.211804 
3.22427 0.195567 -0.341503 3.24731 0.144105 -0.384928 3.27119 0.0688446 -0.353509 
3.27193 -0.0182407 -0.258163 3.25936 -0.115591 -0.111507 3.22807 -0.219198 0.0903242 
3.12016 0.0686285 0.270451 3.10454 -0.0094052 0.298762 3.10194 -0.0805091 0.334009 
3.1164 -0.152967 0.35924 3.12892 -0.226357 0.360548 0.5172 -1.1397 0.211835 
0.490422 -1.07794 0.230558 0.478249 -1.02001 0.247862 0.451577 -0.958282 0.266575 
0.417035 -0.894503 0.286053 0.390402 -0.833404 0.307157 0.37812 -0.776822 0.334365 
0.3498 -0.711628 0.3773 0.39483 -0.620222 0.573197 0.470247 -0.609301 0.682995 
0.540043 -0.589885 0.754225 0.608442 -0.562637 0.796896 0.676179 -0.535807 0.834307 
0.741042 -0.524101 0.882766 0.799294 -0.537857 0.9316 0.85691 -0.551211 0.97283 
0.918266 -0.546452 1.00387 0.978208 -0.54658 1.03351 1.03985 -0.546002 1.07876 
1.09759 -0.561554 1.12707 1.15515 -0.575103 1.16825 1.21586 -0.569955 1.19169 
1.2727 -0.573049 1.19735 1.32939 -0.574051 1.1959 1.38968 -0.562629 1.19803 
1.44637 -0.563631 1.19658 1.50306 -0.564633 1.19513 1.56335 -0.553211 1.19727 
1.62004 -0.554213 1.19582 1.67673 -0.555215 1.19437 1.73701 -0.543794 1.1965 
1.79371 -0.544796 1.19505 1.8504 -0.545798 1.1936 1.91065 -0.534478 1.1957 
1.96697 -0.539358 1.20085 2.02079 -0.555485 1.21044 2.07487 -0.575897 1.23423 
2.13099 -0.586653 1.25308 2.18883 -0.588858 1.26671 2.24063 -0.60159 1.24645 
2.29724 -0.595124 1.22404 2.34915 -0.602286 1.18998 2.39509 -0.635303 1.16388 
2.44474 -0.657436 1.14605 2.49759 -0.673136 1.13005 2.55407 -0.70022 1.09776 
3.11619 -0.414502 0.467614 3.05878 -0.495738 0.583884 2.99468 -0.559791 0.669314 
2.93225 -0.605699 0.736875 2.87631 -0.625409 0.801724 2.82077 -0.642752 0.864677 
2.76038 -0.674554 0.923482 2.69612 -0.706528 0.984891 2.11094 -1.3751 0.666133 
2.1527 -1.31687 0.628363 2.18995 -1.26567 0.619507 2.23316 -1.22835 0.65278 
2.2622 -1.1935 0.708794 2.29123 -1.15864 0.764798 2.3343 -1.11923 0.790973 
2.37195 -1.07224 0.796311 2.41614 -1.02286 0.78678 2.45566 -0.976365 0.791936 
2.50995 -0.937832 0.809899 2.56286 -0.904346 0.846997 2.59131 -0.865242 0.893961 
2.60704 -0.819765 0.961098 
LINES 37 624
28 32 33 34 35 36 37 38 39 40 41 42 43 44 45 46 47 48 49 50 51 52 53 54 55 56 57 58 14 
25 31 59 60 61 62 63 64 65 66 67 68 69 70 71 72 73 74 75 76 77 78 79 80 81 16 
6 30 82 83 84 85 29 
4 27 141 142 21 
3 26 143 20 
34 23 144 145 146 147 148 149 150 151 152 153 154 155 156 157 158 159 160 161 162 163 164 165 166 167 168 169 170 171 172 173 174 175 23 
10 20 178 179 180 181 182 183 184 185 22 
5 24 186 187 188 13 
4 24 189 190 13 
8 24 191 192 193 194 195 196 19 
7 23 197 198 199 200 201 13 
5 22 202 203 204 19 
9 22 205 206 207 208 209 210 211 9 
21 21 212 213 214 215 216 217 218 219 220 221 222 223 224 225 226 227 228 229 230 2 
17 21 231 232 233 234 235 236 237 238 239 240 241 242 243 244 245 14 
6 20 246 247 248 249 11 
40 14 250 251 252 253 254 255 256 257 258 259 260 261 262 263 264 265 266 267 268 269 270 271 272 273 274 275 276 277 278 279 280 281 282 283 284 285 286 287 15 
10 19 288 289 290 291 292 293 294 295 13 
4 18 296 297 15 
21 16 298 299 300 301 302 303 304 305 306 307 308 309 310 311 312 313 314 315 316 15 
5 16 317 318 319 6 
62 14 320 321 322 323 324 325 326 327 328 329 330 331 332 333 334 335 336 337 338 339 340 341 342 343 344 345 346 347 348 349 350 351 352 353 354 355 356 357 358 359 360 361 362 363 364 365 366 367 368 369 370 371 372 373 374 375 376 377 378 379 6 
14 12 380 381 382 383 384 385 386 387 388 389 390 391 11 
10 11 392 393 394 395 396 397 398 399 9 
27 8 400 401 402 403 404 405 406 407 408 409 410 411 412 413 414 415 416 417 418 419 420 421 422 423 424 10 
9 9 425 426 427 428 429 430 431 7 
12 7 432 433 434 435 436 437 438 439 440 441 5 
6 7 442 443 444 445 8 
19 8 446 447 448 449 450 451 452 453 454 455 456 457 458 459 460 461 462 7 
10 6 463 464 465 466 467 468 469 470 3 
7 6 471 472 473 474 475 3 
10 4 476 477 478 479 480 481 482 483 2 
40 2 484 485 486 487 488 489 490 491 492 493 494 495 496 497 498 499 500 501 502 503 504 505 506 507 508 509 510 511 512 513 514 515 516 517 518 519 520 521 0 
10 3 522 523 524 525 526 527 528 529 0 
16 1 530 531 532 533 534 535 536 537 538 539 540 541 542 543 0 
5 20 86 28 87 20 
58 3 140 139 138 137 136 135 134 133 132 131 130 129 128 127 126 125 124 123 122 121 120 119 118 117 116 115 114 113 112 111 110 109 108 107 106 105 104 103 102 101 100 99 98 97 96 95 94 93 92 91 90 89 88 25 176 177 17 

POINT_DATA 544
SCALARS DY_raw double
LOOKUP_TABLE default
397.753 457.011 433.076 518.757 404.491 684.467 503.048 544.378 513.472 
499.047 621.291 482.349 480.55 499.004 408.31 497.057 422.513 328.281 
703.717 467.59 518.08 337.328 447.953 499.119 486.922 465.302 355.698 
334.385 522.46 502.566 639.822 550.707 596.07 590.949 488.008 476.775 
476.775 489.199 495.595 495.595 533.035 543.897 543.897 546.327 534.813 
537.99 537.99 500.542 488.457 494.705 520.967 506.727 449.145 454.693 
398.682 367.849 352.098 421.889 472.148 501.287 512.253 575.496 521.661 
489.647 484.941 484.941 466.588 462.906 509.789 462.873 463.245 403.638 
421.247 430.71 423.639 418.428 401.529 390.641 388.619 379.716 370.489 
362.578 623.542 582.008 562.284 510.686 520.265 515.167 404.248 355.631 
365.386 365.423 365.423 383.23 388.127 388.127 378.311 417.635 417.635 
414.836 414.836 450.513 424.057 454.814 411.219 407.009 407.009 516.727 
540.919 547.53 637.294 616.512 634.755 524.241 524.241 484.999 481.929 
509.682 495.623 423.013 414.521 405.501 380.623 423.44 435.121 417.803 
369.667 341.333 336.723 364.253 369.457 387.556 431.582 433.615 467.957 
476.423 485.898 411.773 444.75 492.373 505.049 410.008 340.533 448.917 
427.336 466.746 486.494 475.373 499.76 501.967 487.933 469.7 500.356 
500.356 510.756 428.399 414.292 441.576 455.751 421.988 366.932 432.38 
504.332 530.222 569.508 561.811 536.559 509.405 509.405 495.1 523.714 
523.714 532.472 502.476 503.556 529.733 418.871 358.805 475.113 512.671 
497.331 534.086 509.606 500.872 462.571 447.953 537.318 651.914 658.81 
604.638 594.34 520.201 457.985 438.705 450.259 453.21 450.263 527.297 
576.187 529.887 547.722 524.147 451.715 455.252 465.352 426.583 431.12 
471.855 459.409 426.524 473.842 465.626 385.445 431.346 438.003 453.373 
457.155 516.727 497.886 499.274 440.609 430.937 453.616 442.644 478.54 
539.456 458.73 458.73 394.825 389.506 410.561 336.988 342.148 360.855 
378.689 410.645 425.853 430.395 421.111 453.433 413.024 393.81 393.81 
377.775 403.412 390.15 405.139 429.176 406.841 437.159 427.922 455.43 
487.952 507.548 453.876 425.65 434.518 404.666 396.581 396.581 405.485 
378.49 390.27 390.27 386.175 403.591 403.591 413.009 389.853 381.01 
388.776 396.104 407.603 390.563 431.135 440.15 447.382 411.77 420.686 
432.303 432.303 428.162 428.162 443.425 487.353 532.806 545.809 497.057 
523.228 528.773 574.139 596.507 635.427 607.062 588.185 567.39 739.697 
655.705 444.2 463.917 452.624 434.231 488.393 394.687 429.592 382.076 
374.839 441.363 438.091 531.426 531.426 577.411 538.464 494.661 514.53 
479.69 486.958 538.672 533.662 580.958 410.278 466.077 469.395 465.079 
467.803 390.38 400.622 400.622 423.637 414.042 454.449 444.8 407.889 
377.609 400.86 402.911 421.254 456.579 444.157 477.01 480.74 518.702 
528.661 483.182 571.225 571.225 603.719 587.917 657.436 662.273 623.149 
623.149 633.744 633.744 613.15 711.244 711.244 718.788 710.452 710.452 
710.001 705.096 705.096 656.548 595.922 595.922 467.987 467.987 458.606 
446.17 478.399 507.482 550.338 550.338 556.209 532.805 507.169 530.937 
565.925 469.177 455.554 482.562 482.562 534.741 569.316 656.141 702.189 
755.089 647.182 631.874 546.566 510.778 575.119 583.394 566.713 539.2 
459.182 485.507 492.267 555.178 530.559 569.711 613.29 648.001 641.182 
629.211 566.328 509.34 504.265 511.528 489.836 513.366 487.348 529.865 
586.49 544.74 550.935 550.935 537.767 498.861 479.099 472.617 515.552 
521.155 541.889 631.946 628.439 634.389 805.808 673.822 642.851 580.777 
493.915 475.616 500.038 515.179 560.527 619.518 660.978 660.024 672.397 
661.814 569.884 629.065 628.108 588.635 510.992 531.654 547.762 596.904 
648.908 614.49 580.976 580.976 549.465 557.794 616.365 618.015 618.822 
597.416 581.583 574.054 591.597 538.569 414.855 379.643 360.308 389.211 
422.929 483.004 576.434 507.371 504.765 503.203 440.125 481.601 521.629 
467.503 529.397 463.101 508.388 498.78 460.916 443.232 497.228 527.938 
524.473 511.253 504.689 532.803 517.837 455.296 457.91 495.694 474.468 
467.998 516.092 509.456 523.441 551.837 531.674 558.491 534.798 482.365 
482.365 499.442 497.432 497.432 510.637 500.188 500.188 508.855 483.367 
520.125 505.644 505.644 467.031 487.406 487.406 442.199 411.897 411.831 
459.188 400.043 390.719 388.032 393.256 407.039 400.152 389.717 426.333 
392.646 382.587 411.906 468.189 455.481 487.252 435.556 412.621 419.97 
401.643 406.969 398.37 394.224 
FIELD FieldData 7
DY_minmax 1 544 double
0.145483 0.269578 0.219454 0.39888 0.159593 0.745898 0.365984 0.452534 0.387813 
0.357606 0.6136 0.322638 0.31887 0.357515 0.16759 0.353439 0.197335 0 
0.78621 0.291732 0.397464 0.0189452 0.250608 0.357757 0.332214 0.286939 0.0574145 
0.0127827 0.406635 0.364975 0.652406 0.465788 0.560784 0.55006 0.334488 0.310966 
0.310966 0.336982 0.350377 0.350377 0.428779 0.451527 0.451527 0.456616 0.432504 
0.439156 0.439156 0.360737 0.335429 0.348513 0.403509 0.373688 0.253104 0.264722 
0.147429 0.0828618 0.0498769 0.196027 0.301275 0.362296 0.38526 0.517698 0.404961 
0.337921 0.328066 0.328066 0.289633 0.281922 0.3801 0.281852 0.282632 0.157808 
0.194683 0.214501 0.199692 0.18878 0.15339 0.13059 0.126355 0.107712 0.0883894 
0.0718236 0.618314 0.531336 0.490031 0.381979 0.402039 0.391362 0.159086 0.0572748 
0.0777036 0.0777795 0.0777795 0.11507 0.125326 0.125326 0.104771 0.187118 0.187118 
0.181257 0.181257 0.255969 0.200568 0.264977 0.173683 0.164867 0.164867 0.39463 
0.445291 0.459136 0.647112 0.603591 0.641795 0.410365 0.410365 0.328187 0.321759 
0.379877 0.350434 0.19838 0.180598 0.161709 0.109612 0.199275 0.223736 0.18747 
0.0866673 0.0273328 0.0176795 0.0753295 0.0862285 0.12413 0.216326 0.220583 0.292499 
0.310227 0.33007 0.174844 0.2439 0.343629 0.370173 0.171147 0.0256568 0.252627 
0.207435 0.289963 0.331319 0.308029 0.359099 0.363721 0.334332 0.29615 0.360347 
0.360347 0.382125 0.20966 0.180118 0.237254 0.266939 0.196235 0.0809401 0.217997 
0.368672 0.422889 0.505159 0.489041 0.436161 0.379296 0.379296 0.349341 0.409262 
0.409262 0.427602 0.364786 0.367047 0.421866 0.189707 0.063922 0.307486 0.386136 
0.354011 0.430981 0.379718 0.361427 0.28122 0.250608 0.437749 0.677728 0.692169 
0.578726 0.55716 0.401905 0.271616 0.231243 0.255437 0.261617 0.255445 0.416764 
0.519145 0.422187 0.459538 0.410167 0.258486 0.265893 0.287044 0.205857 0.215357 
0.300661 0.274599 0.205734 0.304823 0.287618 0.119708 0.215832 0.229772 0.26196 
0.269878 0.39463 0.355174 0.358081 0.23523 0.214974 0.262468 0.239492 0.314661 
0.442227 0.273176 0.273176 0.139353 0.128213 0.172306 0.0182346 0.0290394 0.0682141 
0.10556 0.17248 0.204327 0.213841 0.194398 0.262083 0.177462 0.137226 0.137226 
0.103648 0.157334 0.129562 0.16095 0.211287 0.164514 0.228005 0.208662 0.266266 
0.33437 0.375408 0.263011 0.203903 0.222474 0.15996 0.14303 0.14303 0.161676 
0.105145 0.129813 0.129813 0.121239 0.157708 0.157708 0.177431 0.128941 0.110421 
0.126686 0.14203 0.16611 0.130426 0.21539 0.234267 0.249413 0.174837 0.193508 
0.217836 0.217836 0.209163 0.209163 0.241127 0.333117 0.428301 0.45553 0.353439 
0.408243 0.419856 0.514858 0.561698 0.643203 0.583801 0.544272 0.500724 0.861555 
0.685667 0.242749 0.284039 0.26039 0.221873 0.335294 0.139063 0.212158 0.112653 
0.0974982 0.236809 0.229955 0.425411 0.425411 0.52171 0.44015 0.348422 0.390029 
0.31707 0.33229 0.440585 0.430094 0.529137 0.171711 0.288563 0.295511 0.286472 
0.292177 0.130044 0.151491 0.151491 0.199688 0.179596 0.264211 0.244006 0.16671 
0.103299 0.15199 0.156286 0.194696 0.268672 0.24266 0.311456 0.319268 0.398765 
0.419622 0.324382 0.508756 0.508756 0.576802 0.543711 0.689291 0.699421 0.61749 
0.61749 0.639678 0.639678 0.596551 0.801972 0.801972 0.81777 0.800314 0.800314 
0.799368 0.789097 0.789097 0.687432 0.560473 0.560473 0.292562 0.292562 0.272917 
0.246874 0.314366 0.37527 0.465014 0.465014 0.47731 0.428299 0.374615 0.424388 
0.497656 0.295054 0.266526 0.323084 0.323084 0.432354 0.504758 0.686579 0.78301 
0.89379 0.667819 0.635762 0.457116 0.382171 0.51691 0.534238 0.499307 0.441691 
0.274123 0.329251 0.343408 0.475151 0.423594 0.505586 0.596845 0.669533 0.655253 
0.630186 0.4985 0.37916 0.368532 0.383742 0.338316 0.387592 0.333106 0.422141 
0.540721 0.453292 0.466265 0.466265 0.438689 0.357215 0.315831 0.302258 0.392168 
0.403902 0.447322 0.635913 0.628567 0.641028 1 0.723607 0.658749 0.528759 
0.346858 0.308538 0.359681 0.391389 0.486352 0.609887 0.696709 0.69471 0.720621 
0.69846 0.505946 0.62988 0.627875 0.545214 0.38262 0.425888 0.45962 0.56253 
0.671434 0.599358 0.529175 0.529175 0.463187 0.480629 0.603284 0.606738 0.608429 
0.563602 0.530446 0.51468 0.551417 0.440369 0.181298 0.10756 0.0670695 0.127596 
0.198206 0.32401 0.519664 0.375037 0.369579 0.366309 0.234215 0.321072 0.404894 
0.291548 0.421163 0.28233 0.377167 0.357046 0.277754 0.240722 0.353797 0.418107 
0.410852 0.383167 0.369421 0.428296 0.396953 0.265985 0.27146 0.350585 0.306134 
0.292585 0.393299 0.379404 0.408689 0.468154 0.425931 0.482088 0.432472 0.322672 
0.322672 0.358434 0.354223 0.354223 0.381876 0.359994 0.359994 0.378144 0.324769 
0.401746 0.371421 0.371421 0.290561 0.333228 0.333228 0.238559 0.175102 0.174965 
0.274136 0.15028 0.130754 0.125126 0.136066 0.164929 0.150507 0.128654 0.205334 
0.134789 0.113724 0.175122 0.292985 0.266372 0.332906 0.224647 0.176619 0.192008 
0.153629 0.164783 0.146775 0.138094 
WidthEq 1 544 double
3.06034 1.93478 2.73404 3.5787 2.28835 1.65724 3.88473 2.53834 2.58499 
2.97683 2.01779 2.63265 1.79573 4.00646 3.86694 2.52216 3.07488 4.16512 
1.49301 4.23237 3.61658 4.34752 4.56936 3.81836 4.91203 2.13287 2.25702 
2.26367 2.94642 2.60226 1.78455 1 1.49994 1.52585 2.08777 2.3157 
2.3157 2.26298 2.13999 2.13999 1.84535 1.77862 1.77862 1.78704 1.86489 
2.01247 2.01247 2.2587 2.36634 2.28119 2.34623 2.51802 2.78567 2.84147 
3.20979 3.53133 3.84315 3.73114 3.38514 1.49525 1.81045 1.72218 2.13314 
2.51331 2.67323 2.67323 2.65057 2.67421 2.55992 2.83099 2.84985 2.94347 
2.99914 2.94961 3.04832 3.08721 3.11925 3.09381 3.13543 2.95359 2.91859 
3.18388 2.09897 2.22459 2.39051 2.67567 3.19633 3.05512 2.41133 2.80959 
3.00711 2.90266 2.90266 2.61568 2.50208 2.50208 2.38789 2.27445 2.27445 
2.09504 2.09504 1.96371 1.84635 1.84204 1.91712 1.85536 1.85536 1.7352 
1.71317 1.67446 1.56121 1.62532 1.60201 1.86396 1.86396 1.89371 1.99975 
1.95759 2.04278 2.27565 2.27122 2.28448 2.38319 2.3805 2.40358 2.49512 
2.68414 2.73005 2.81744 2.79423 2.89611 2.79301 2.73468 2.59598 2.44186 
2.26813 2.30245 2.79597 3.17376 3.46105 3.63022 2.69218 3.66499 3.27612 
4.01573 3.50783 3.1247 3.22948 3.01554 2.84133 2.91045 2.72907 2.70485 
2.70485 2.60558 2.94419 3.11285 3.06812 3.2121 3.771 4.73292 4.39622 
3.82517 3.38431 3.12877 2.99693 2.88376 2.8951 2.8951 2.93126 2.82165 
2.82165 2.7611 3.17051 3.2864 3.23617 3.05291 4.17284 3.76328 3.52102 
3.73471 3.3961 3.80002 3.81654 4.41309 4.56936 4.5171 3.719 3.48493 
4.01802 3.86745 4.12838 4.18963 4.31334 4.41992 4.21089 4.05436 4.05716 
3.97841 4.31029 4.13948 4.17739 4.48665 4.30073 4.25 4.22946 3.89589 
3.81426 3.48388 3.39647 3.18352 3.14913 4.04506 3.56219 3.19045 2.75307 
2.52918 2.46056 2.08871 2.0551 2.09707 2.20746 2.13806 2.0989 2.02367 
1.87357 1.97118 1.97118 2.31327 2.46445 2.64276 4.48122 4.40505 4.2098 
3.95559 3.5526 3.54901 3.42747 3.39546 3.09556 3.2945 3.42271 3.42271 
3.54784 3.72249 3.81004 4.05715 3.91226 3.37881 3.01889 3.6496 3.30329 
3.0323 2.77266 2.77042 2.82384 2.7376 2.85059 2.90227 2.90227 2.92905 
2.91127 2.87131 2.87131 2.88293 2.86116 2.86116 2.79698 2.76054 2.719 
2.81812 2.79676 2.74364 2.70732 2.70559 2.6171 2.67697 2.71695 2.7627 
2.77686 2.77686 2.7323 2.7323 2.62362 2.51552 2.46661 2.45864 2.52216 
3.95038 3.71176 3.13302 2.84794 2.63312 2.73161 2.96658 3.34893 1.43667 
1.8497 2.99193 2.83128 2.87211 2.89322 2.74012 3.01575 2.90612 2.9671 
2.84212 2.73894 2.59402 2.35537 2.35537 2.16085 2.23528 2.32573 2.38121 
2.40821 2.43437 2.78074 3.3202 3.4545 4.22621 3.2437 3.01771 2.83089 
2.62505 2.63271 2.5193 2.5193 2.48578 2.2636 2.19815 2.31018 2.2585 
2.56977 2.55634 2.53539 2.6695 2.57583 2.67168 2.56499 2.48117 2.58518 
2.51482 2.46151 2.29198 2.29198 2.04407 1.92977 1.88578 1.79581 1.65007 
1.65007 1.70576 1.70576 1.774 1.77394 1.77394 1.85541 2.02258 2.02258 
2.08367 2.09635 2.09635 2.24129 2.4325 2.4325 2.88381 2.88381 2.98266 
3.03469 2.92186 2.86691 2.63707 2.63707 2.5661 2.53987 2.69919 2.8479 
2.84055 3.79555 2.2702 2.69944 2.69944 2.56774 2.2733 1.84629 1.75834 
1.57005 1.74533 1.91069 2.16639 2.49672 2.32087 2.19568 2.12678 2.08894 
2.52405 2.39187 2.70992 2.67759 2.48409 2.33221 2.19599 2.12029 2.17601 
2.25029 2.35044 2.44795 2.48774 2.47742 2.30758 2.07884 2.01299 1.7698 
1.75452 1.79755 2.04612 2.04612 2.13045 2.33726 2.35122 2.47449 2.44105 
2.42572 2.31615 2.30373 1.83575 1.70122 1.37653 1.72956 2.00929 2.38322 