# vtk DataFile Version 3.0
vtk output
ASCII
DATASET POLYDATA
POINTS 305 float
0.572454 2.30065 0.36993 1.20017 2.15059 0.330187 1.58796 2.43573 -0.11877 
1.85315 1.8298 0.175378 1.1903 1.12761 0.408597 -0.298729 0.401387 0.181552 
-0.624433 0.644434 -0.164884 -0.627669 1.24608 -0.537613 1.42844 -0.0370963 0.0282403 
-0.183706 -0.194752 -0.466245 -0.490742 0.212005 -0.392698 2.66177 0.831784 -0.436109 
2.67127 1.79478 -1.25818 0.677044 -0.290387 -0.224411 0.0830677 -0.224509 -0.28412 
2.13337 -0.0298061 -0.310788 -0.376128 0.839216 -1.44131 1.78238 -0.365036 -0.343248 
2.94405 0.493933 -1.16347 3.85541 -0.328432 -1.31315 0.991863 0.243745 -2.48735 
3.92635 -0.597148 -1.4036 0.563014 -0.234956 -2.23249 1.257 0.171641 -2.47309 
1.58454 0.205615 -2.45158 1.74831 0.222602 -2.44083 2.07586 0.256576 -2.41932 
1.07222 0.24389 -2.46853 1.13743 0.233205 -2.45914 1.19724 0.201984 -2.45592 
0.919324 0.226731 -2.39895 0.857095 0.204163 -2.33037 0.801513 0.169043 -2.28275 
0.74827 0.124911 -2.24668 0.695749 0.0776362 -2.21436 0.645898 0.0257682 -2.18751 
0.608552 -0.0394164 -2.17679 0.590667 -0.126938 -2.19303 2.08968 0.299836 -2.45419 
2.12555 0.350254 -2.48195 2.15769 0.410028 -2.49867 2.15044 0.480329 -2.50103 
2.10384 0.551418 -2.50032 2.04627 0.6165 -2.50598 2.00034 0.673047 -2.52217 
1.9831 0.732569 -2.53648 1.98779 0.804108 -2.53806 2.02041 0.883333 -2.53208 
2.06591 0.957553 -2.52965 2.11635 1.00852 -2.53601 2.16965 1.02799 -2.53461 
2.22466 1.02463 -2.52325 2.28147 0.994525 -2.49855 2.33862 0.945564 -2.4773 
2.38851 0.879771 -2.47221 2.42423 0.807551 -2.47363 2.47402 0.741663 -2.46848 
2.52921 0.690948 -2.44603 2.57276 0.648768 -2.41305 2.59137 0.604 -2.38171 
2.60902 0.554263 -2.35608 2.64247 0.501293 -2.33506 2.66896 0.457342 -2.3032 
2.69885 0.423487 -2.25982 2.71027 0.397458 -2.20635 2.71434 0.365796 -2.15902 
2.72652 0.334974 -2.11116 2.75276 0.310483 -2.05672 2.76148 0.298787 -1.98649 
2.76123 0.291032 -1.9112 2.77007 0.279347 -1.84097 2.79737 0.259837 -1.78081 
2.81965 0.239805 -1.72099 2.84558 0.239706 -1.63839 2.86155 0.273841 -1.51792 
2.8933 0.360639 -1.35172 1.69372 0.216939 -2.44441 1.63913 0.211277 -2.448 
3.90106 -0.458675 -1.34683 0.914113 0.339495 -2.49619 0.849394 0.410862 -2.50833 
0.800787 0.466541 -2.52746 0.767044 0.527653 -2.53914 0.714557 0.607874 -2.52752 
0.647843 0.710893 -2.48852 0.576803 0.826604 -2.43162 0.505218 0.937988 -2.36127 
0.435532 1.02263 -2.27759 0.369283 1.07489 -2.19511 0.308386 1.08128 -2.12167 
0.252231 1.05467 -2.06832 0.197867 1.01711 -2.02496 0.142579 0.985632 -1.97713 
0.0843473 0.976054 -1.91906 0.023844 0.98759 -1.85975 -0.0370474 0.993829 -1.78616 
-0.0978299 1.00008 -1.71256 -0.156417 1.01181 -1.65313 -0.202818 1.00346 -1.59428 
-0.231237 0.974768 -1.54469 -0.272893 0.933578 -1.50608 -0.323608 0.886491 -1.47364 
3.78084 -0.2526 -1.28401 3.71391 -0.237509 -1.24591 3.65608 -0.2373 -1.23049 
3.60041 -0.231741 -1.23647 3.54399 -0.212133 -1.25213 3.48631 -0.192881 -1.24806 
3.42684 -0.162684 -1.23399 3.36654 -0.11477 -1.23522 3.3079 -0.0750315 -1.2488 
3.25059 -0.05008 -1.25937 3.19199 -0.00878566 -1.27429 3.13224 0.054606 -1.27883 
3.07982 0.134816 -1.26721 3.04094 0.232301 -1.23881 2.99114 0.350461 -1.20035 
2.98349 0.63876 -1.15366 2.99338 0.742967 -1.14312 2.99804 0.821235 -1.14064 
3.00522 0.898002 -1.13649 2.98218 0.971541 -1.13423 2.96513 1.04082 -1.13723 
2.9578 1.10137 -1.15089 2.95036 1.16191 -1.16456 2.93128 1.23098 -1.16769 
2.89448 1.3031 -1.16634 2.86368 1.37095 -1.17025 2.83034 1.42393 -1.19126 
2.81558 1.4691 -1.22235 2.81073 1.51529 -1.25279 2.80404 1.57104 -1.27205 
2.78305 1.63991 -1.27532 2.73345 1.71556 -1.26916 2.84933 0.610085 -0.894695 
2.78778 0.718379 -0.682772 2.72587 0.796722 -0.543432 -0.267999 -0.114462 -0.567538 
-0.336505 -0.051662 -0.612953 -0.399907 0.0201694 -0.595087 -0.455788 0.106835 -0.513257 
-0.0312829 -0.204637 -0.380912 1.72441 -0.353033 -0.323207 1.66351 -0.329579 -0.277427 
1.59697 -0.28091 -0.195207 1.51897 -0.171595 -0.094641 2.17534 0.0650822 -0.287325 
2.20567 0.168508 -0.253327 2.2157 0.289312 -0.19807 2.22913 0.420208 -0.131298 
2.2383 0.545796 -0.0704482 2.27036 0.639655 -0.0476366 2.31848 0.701092 -0.0632969 
2.37273 0.7388 -0.106804 2.42795 0.771742 -0.15589 2.48403 0.799901 -0.210569 
2.54184 0.818501 -0.276427 2.60137 0.827534 -0.353472 0.168254 -0.299969 -0.41906 
0.23969 -0.351 -0.511594 0.30012 -0.364648 -0.556014 0.357593 -0.383225 -0.557435 
0.415198 -0.400935 -0.562836 0.474594 -0.429588 -0.578236 0.5325 -0.457368 -0.571706 
0.583708 -0.437733 -0.528249 0.629095 -0.369257 -0.412981 0.761717 -0.314151 -0.233546 
0.829516 -0.339098 -0.241001 0.890121 -0.37364 -0.244634 0.950312 -0.399658 -0.27524 
1.00954 -0.411306 -0.315024 1.06691 -0.423968 -0.324779 1.11873 -0.399982 -0.307856 
1.16781 -0.372232 -0.255318 1.21457 -0.322149 -0.202605 1.25998 -0.25113 -0.161471 
1.30627 -0.18486 -0.106312 1.35944 -0.115911 -0.0393046 0.13054 -0.13572 -0.104107 
0.175703 -0.0622853 0.00688616 0.226466 -0.0331832 0.042178 0.283471 -0.0418395 0.0322147 
0.342801 -0.0691075 0.0156203 0.400946 -0.0982821 0.0201071 0.458301 -0.114361 0.0165325 
0.519365 -0.141458 -0.0162895 0.591316 -0.203629 -0.0992167 2.59663 0.993499 -0.329311 
2.54914 1.14243 -0.238297 2.50072 1.26684 -0.175506 2.46181 1.3664 -0.139085 
2.4082 1.4457 -0.107234 2.3446 1.50973 -0.0540465 2.27661 1.58784 0.0158668 
2.20682 1.68827 0.0762235 2.13875 1.77906 0.125473 2.0759 1.82692 0.163159 
2.01779 1.84192 0.180609 1.96233 1.84113 0.182546 1.90774 1.83547 0.178962 
-0.495372 0.305145 -0.221189 -0.469113 0.390187 -0.0772279 -0.406664 0.422921 0.0516191 
-0.549116 0.344122 -0.321692 -0.587706 0.48774 -0.244391 -0.278977 0.113171 -0.151182 
-0.208232 0.0852225 -0.116361 1.43994 0.0955185 0.0572761 1.4583 0.21934 0.10142 
1.46834 0.342798 0.15767 1.49005 0.471364 0.221181 1.49848 0.596875 0.281982 
1.45851 0.707621 0.328307 1.40836 0.797826 0.351371 1.37199 0.874849 0.358398 
1.32123 0.945506 0.35883 1.25796 1.02948 0.375383 -0.676003 0.611378 -0.324499 
-0.688275 0.585894 -0.451801 -0.683878 0.574006 -0.552175 -0.678827 0.575816 -0.634725 
-0.676473 0.593537 -0.698574 -0.679186 0.639948 -0.728879 -0.686136 0.720022 -0.71992 
-0.687485 0.825035 -0.682353 -0.674122 0.934068 -0.64105 -0.672519 1.03547 -0.609758 
-0.666888 1.13796 -0.58369 -0.560348 1.31514 -0.44398 -0.50409 1.35286 -0.335067 
-0.455678 1.37929 -0.242253 -0.410099 1.40907 -0.167461 -0.373681 1.42393 -0.0862191 
-0.35386 1.42947 0.000429949 -0.330777 1.43396 0.0884692 -0.324644 1.43661 0.175475 
-0.328635 1.43821 0.261816 -0.335508 1.43472 0.342246 -0.351791 1.41711 0.403853 
-0.3902 1.37705 0.42238 -0.435359 1.32269 0.383381 -0.478479 1.25188 0.309707 
-0.520554 1.17009 0.235772 -0.562243 1.07707 0.174755 -0.600201 0.972786 0.0945316 
-0.62354 0.824294 -0.017611 -0.208384 0.529886 0.344042 -0.151994 0.653217 0.453352 
-0.107607 0.746208 0.521335 -0.063233 0.832215 0.556049 -0.0169412 0.90572 0.578843 
0.0319771 0.950558 0.606925 0.0830387 0.976974 0.631471 0.134104 1.00331 0.656089 
0.183953 1.0419 0.679851 0.234126 1.08718 0.688126 0.288292 1.10186 0.68393 
0.346265 1.08986 0.663889 0.405167 1.0717 0.639443 0.462346 1.06302 0.626255 
0.5178 1.0639 0.624246 0.57239 1.06956 0.62783 0.626976 1.0753 0.631342 
0.682361 1.07764 0.628073 0.739115 1.07798 0.607105 0.797914 1.07553 0.559405 
0.858053 1.0582 0.514798 0.917323 1.04575 0.475726 0.973464 1.0591 0.443532 
1.02807 1.07802 0.425963 1.08162 1.10564 0.410612 1.13579 1.12041 0.406344 
1.22562 1.19259 0.397739 1.24417 1.26556 0.397071 1.2671 1.34387 0.402349 
1.28565 1.41684 0.401681 1.32172 1.47702 0.385223 1.35695 1.53225 0.363066 
1.36808 1.58984 0.344969 1.3748 1.66159 0.343526 1.39367 1.73947 0.348537 
1.39645 1.81081 0.346834 1.38101 1.87052 0.332643 1.34681 1.92829 0.317221 
1.31398 1.99593 0.313179 1.26246 2.07138 0.319212 1.57058 2.41159 -0.0615499 
1.52653 2.39442 0.00521114 1.46988 2.38082 0.0768028 1.41132 2.36701 0.148261 
1.35448 2.34364 0.208533 1.30031 2.31568 0.263338 1.25865 2.2744 0.302022 
1.23473 2.22036 0.324928 1.14333 2.17922 0.306748 1.08565 2.19839 0.310889 
1.02581 2.22304 0.339446 0.965103 2.25239 0.373675 0.904914 2.28436 0.395921 
0.846838 2.31206 0.392707 0.791385 2.31118 0.394715 0.737687 2.28658 0.407468 
0.683445 2.27352 0.410261 0.62843 2.27688 0.398897 
LINES 26 358
5 20 27 28 29 23 
10 20 30 31 32 33 34 35 36 37 22 
40 26 38 39 40 41 42 43 44 45 46 47 48 49 50 51 52 53 54 55 56 57 58 59 60 61 62 63 64 65 66 67 68 69 70 71 72 73 74 75 18 
4 25 76 77 24 
25 20 79 80 81 82 83 84 85 86 87 88 89 90 91 92 93 94 95 96 97 98 99 100 101 16 
19 18 117 118 119 120 121 122 123 124 125 126 127 128 129 130 131 132 133 12 
5 18 134 135 136 11 
6 9 137 138 139 140 10 
3 9 141 14 
6 17 142 143 144 145 8 
14 15 146 147 148 149 150 151 152 153 154 155 156 157 11 
11 14 158 159 160 161 162 163 164 165 166 13 
14 13 167 168 169 170 171 172 173 174 175 176 177 178 8 
11 14 179 180 181 182 183 184 185 186 187 13 
15 11 188 189 190 191 192 193 194 195 196 197 198 199 200 3 
5 10 201 202 203 5 
4 10 204 205 6 
3 9 206 5 
3 9 207 5 
12 8 208 209 210 211 212 213 214 215 216 217 4 
28 5 247 248 249 250 251 252 253 254 255 256 257 258 259 260 261 262 263 264 265 266 267 268 269 270 271 272 4 
16 4 273 274 275 276 277 278 279 280 281 282 283 284 285 286 1 
10 2 287 288 289 290 291 292 293 294 1 
12 1 295 296 297 298 299 300 301 302 303 304 0 
19 21 78 19 102 103 104 105 106 107 108 109 110 111 112 113 114 115 116 18 
32 6 218 219 220 221 222 223 224 225 226 227 228 7 229 230 231 232 233 234 235 236 237 238 239 240 241 242 243 244 245 246 6 

POINT_DATA 305
SCALARS DY_raw double
LOOKUP_TABLE default
1743.27 1425.7 1155.57 1505.22 1457.97 1938.04 1537.91 1177.65 1207.41 
1476.98 1598.8 1084.76 1531.69 1499.99 1587.01 1318.76 1344.08 966.211 
1180.24 1563.32 1204.33 1301.18 1534.62 1374.92 1847.39 1848.7 1941.56 
1234.22 1389.35 1389.85 1336.28 1395 1440.38 1496.58 1580.39 1620.12 
1631.53 2005.42 1941.56 1910.6 1739.72 1821.21 1802.55 1595.97 1641.45 
1307.49 1155.15 1223.51 1228.06 1228.77 1235.59 1235.59 1408.29 1457.36 
1297.79 1259.01 1483.22 1382.82 1634.47 1728.33 1551.64 1477.79 1339.34 
1339.34 1443.32 1234.39 1251.87 1344.71 1344.71 1254.42 1359.23 1436.95 
1276.58 1376.41 1391.45 1210.85 1828.35 1828.35 1576.79 1274.95 1392.22 
1326.56 1200.65 1256.72 1118.08 990.72 996.516 1099.12 1092.02 1214.54 
1249.94 1225.94 1250.9 1237.94 1163.75 1246.74 1228.99 1300.91 1257.6 
1315.91 1333.65 1344.08 1586.59 1798.17 2007.68 2084.64 2008.54 1655.64 
1810.68 1611.3 1699.69 1354.19 1291.86 1128.12 1203.46 1202.89 1142.15 
980.613 1016.84 980.353 1028.34 1051.15 993.423 1076.99 1030.99 991.471 
1069.78 1095.97 1095.97 1126.35 1010.59 1141.37 1156.76 1246.41 1331.27 
1286.41 1102.2 1280.13 1284.11 1267.96 1418.01 1488.35 1175.85 1109.06 
1129.14 1151.3 1218.78 1222.74 1329.89 1236.39 1187.36 1046.65 908.18 
908.18 933.352 1004.55 947.944 937.54 1405.15 1103.63 1014.32 1071.14 
1202.57 1217.42 1252.6 1399.41 1487.42 1519.63 1626.55 1570.07 1524.84 
1418.9 1335.6 1437.53 1550.56 1518.74 1435.09 1400.91 1177.79 1781.35 
1694.27 1572.88 1462.66 1462.66 1369.29 1417.59 1444.04 1469.11 1009.07 
935.808 1055.26 1080.93 994.545 974 1078.83 1175.18 1035.82 1117.76 
1231.6 1362.96 1362.96 1711.46 1615.82 1677.52 1575.32 1679.25 1943.7 
1780.54 1125.65 1103.96 1077.25 1089.17 1222.88 1617.69 1235.12 1469.86 
1380.5 1323.6 1633.61 1498.48 1394.16 1292.97 1372.64 1393.19 1493.03 
1592.98 1636.62 1332.18 1297.7 1337.97 1344.89 1642.61 1648.13 1470.45 
1410.13 1443.8 1546.71 1631.39 1745.34 1941.48 2320.77 2330.93 2184.27 
1747.27 1511.36 1463.77 1395.31 1714.06 1828.65 1598.81 1592.61 1371.11 
1371.11 1163.14 1110.76 1223.71 1384.07 1384.07 1264.91 1236.31 1236.31 
1434.76 1582.73 1545.55 1807.81 1790.5 1790.5 1818.18 1559.08 1452.22 
1409.22 1409.22 1421.2 1450.53 1399.87 1495.92 1366.2 1468.27 1304.24 
1341.04 1360.42 1465.62 1477.34 1592.38 1517.18 1442.18 1598.76 1255.01 
1386.7 1483.32 1587.06 1511.55 1573.74 1508.77 1493.78 1546.5 1666.56 
1784.38 1825.82 1825.82 1753.96 1709.12 1709.12 1668.55 1668.55 
FIELD FieldData 7
DY_minmax 1 305 double
0.586952 0.363747 0.173884 0.419641 0.386425 0.723851 0.442618 0.189399 0.210318 
0.39979 0.485409 0.124113 0.438243 0.415964 0.477124 0.288585 0.306376 0.0407874 
0.191223 0.460472 0.208152 0.276225 0.440304 0.328055 0.660136 0.66106 0.726323 
0.229164 0.338197 0.33855 0.300896 0.342167 0.374063 0.413565 0.472473 0.500395 
0.508417 0.771211 0.726323 0.704564 0.584461 0.641734 0.628621 0.483426 0.515393 
0.280663 0.173589 0.221636 0.22483 0.225334 0.230126 0.230126 0.351511 0.386002 
0.273842 0.246588 0.404174 0.333606 0.510487 0.576456 0.452266 0.400355 0.303046 
0.303046 0.376129 0.22928 0.24157 0.306819 0.306819 0.243359 0.317024 0.371656 
0.258932 0.329105 0.339674 0.212739 0.646752 0.646752 0.469943 0.257789 0.340218 
0.294064 0.205566 0.244979 0.14753 0.058014 0.0620877 0.134206 0.129213 0.215329 
0.240212 0.223342 0.240887 0.231777 0.179629 0.237964 0.225487 0.276034 0.245592 
0.286578 0.299046 0.306376 0.47683 0.625543 0.772797 0.826893 0.773402 0.525364 
0.634336 0.494201 0.556322 0.313483 0.269678 0.15459 0.20754 0.207138 0.164447 
0.0509101 0.0763709 0.0507273 0.0844563 0.100485 0.0599142 0.118647 0.0863151 0.0585424 
0.113586 0.131991 0.131991 0.153344 0.0719834 0.1639 0.174718 0.237733 0.297372 
0.265843 0.136367 0.261433 0.264226 0.252877 0.358339 0.407778 0.188132 0.141193 
0.155306 0.170881 0.218313 0.221089 0.296408 0.23069 0.196225 0.0973252 0 
0 0.0176925 0.0677322 0.0279486 0.0206359 0.349303 0.137375 0.0746051 0.11454 
0.206914 0.217356 0.24208 0.345267 0.407125 0.429769 0.504915 0.46522 0.433428 
0.358965 0.300415 0.372061 0.451504 0.429137 0.370346 0.346322 0.1895 0.613723 
0.552513 0.467191 0.389727 0.389727 0.324095 0.358048 0.37664 0.394254 0.0709138 
0.0194187 0.103377 0.121417 0.0607025 0.0462626 0.119944 0.187667 0.0897119 0.147309 
0.227318 0.319652 0.319652 0.564598 0.497376 0.540743 0.468912 0.541956 0.72783 
0.613153 0.152852 0.137606 0.118833 0.127214 0.221189 0.498686 0.229795 0.394788 
0.331979 0.291987 0.50988 0.414903 0.341577 0.270457 0.326453 0.340897 0.411067 
0.481321 0.511997 0.298011 0.27378 0.302083 0.306947 0.516206 0.520086 0.3952 
0.352803 0.376469 0.448803 0.508316 0.58841 0.726271 0.99286 1 0.896921 
0.589767 0.423951 0.390503 0.342387 0.566426 0.646964 0.485421 0.481058 0.325374 
0.325374 0.1792 0.142389 0.221778 0.334485 0.334485 0.250735 0.230631 0.230631 
0.370114 0.474119 0.447982 0.632317 0.62015 0.62015 0.639609 0.457495 0.382384 
0.352162 0.352162 0.36058 0.381201 0.345594 0.413099 0.321928 0.393667 0.278378 
0.30424 0.317862 0.391807 0.400041 0.480898 0.428042 0.375326 0.485384 0.243776 
0.336332 0.404247 0.477158 0.42409 0.467796 0.422134 0.411594 0.448649 0.533041 
0.615852 0.644978 0.644978 0.594466 0.562952 0.562952 0.53444 0.53444 
WidthEq 1 305 double
2.2993 2.49926 1.90594 2.13213 2.82201 2.69974 2.70914 3.02961 3.81983 
2.32828 2.49978 3.06529 1.62694 2.73689 2.68249 2.42512 2.0731 2.20801 
3.38954 1.65031 1.97223 1.31618 1.15999 1.4966 1.13048 1.26139 1.55584 
1.82621 1.64653 1.58123 1.88387 1.7764 1.7099 1.62187 1.62258 1.55623 
1.44423 1 1.55584 1.54275 1.68441 1.5985 1.49847 1.62409 1.50214 
1.79092 1.89052 1.93123 1.8911 1.77969 1.75719 1.75719 1.73855 1.75323 
1.82459 1.78684 1.62544 1.6551 1.46454 1.43485 1.47799 1.67326 1.77197 
1.77197 1.79423 1.91655 1.90415 1.77054 1.77054 1.82306 1.66944 1.63942 
1.6981 1.68558 1.84983 2.60408 1.17976 1.17976 1.48002 1.88878 1.74842 
1.79589 1.97353 2.00749 2.36517 2.72973 2.85731 2.72884 2.52592 2.43938 
2.34256 2.09358 2.1257 2.06938 2.13836 2.21361 2.26254 2.23695 2.37386 
2.40074 2.24948 2.0731 1.62796 1.45378 1.28681 1.19425 1.0934 1.16728 
1.13668 1.17468 1.20586 1.34113 1.52001 1.79711 2.14178 2.4492 2.96156 
3.6287 3.18417 2.88235 2.61842 2.51722 2.58161 2.47972 2.66831 2.7582 
2.64998 2.68597 2.68597 2.60599 2.63345 2.55633 2.45108 1.9721 2.99208 
2.74151 2.94078 2.65054 2.74399 2.82121 2.66277 2.58961 2.08003 2.72643 
3.15789 3.44942 2.68252 2.85767 2.77066 3.15766 3.70436 4.17408 4.24312 
4.24312 3.78127 3.05868 3.07492 3.12555 2.7578 3.13972 3.14718 2.90615 
2.82423 2.5611 2.44557 2.35367 2.449 2.75228 2.71019 2.78612 2.85555 
2.93832 2.94085 2.85618 2.70636 2.69347 2.82439 3.02863 3.62991 2.43774 
2.6454 2.80573 2.7929 2.7929 2.84222 2.78953 2.79642 2.78114 3.42698 
3.50494 3.36994 3.24931 3.1266 2.86386 2.81 2.88093 3.10566 2.98946 
2.7928 2.4478 2.4478 2.43559 2.62017 2.72775 2.6916 2.47408 2.16919 
2.53445 4.11655 4.04552 3.92476 3.34889 3.05812 2.4655 2.72161 2.47575 
2.71279 3.00183 2.35983 2.45343 2.47464 2.39562 2.17993 2.18269 2.18062 
2.41457 2.58725 3.17496 3.18374 2.89403 2.66936 2.37279 2.37089 2.49322 
2.52799 2.53032 2.41501 2.40102 2.35058 2.18581 1.931 1.91956 2.06405 
2.47296 2.79837 3.02917 3.10157 3.0256 2.77389 2.72373 2.62563 2.86019 
2.86019 2.95213 2.91692 2.85124 2.59966 2.59966 2.63033 2.50972 2.50972 
2.36409 2.26588 2.31041 2.13231 2.16238 2.16238 2.14225 2.31958 2.45848 
2.6053 2.6053 2.73204 2.87329 2.88209 2.72513 2.72711 2.51493 2.74014 
2.65163 2.71085 2.60866 2.54694 2.41822 2.45903 2.40721 2.18693 2.3367 
2.28323 2.09604 2.13045 2.18107 2.18268 2.43425 2.40693 2.20889 2.16162 
2.08383 2.09051 2.09051 2.24164 2.37341 2.37341 2.43696 2.43696 
rRFP 1 305 double
5288.65 5548.93 4776.62 5071.04 5969.05 5809.89 5822.12 6239.27 7267.89 
5326.37 5549.6 6285.72 4413.44 5858.25 5787.44 5452.42 4994.2 5169.81 
6707.79 4443.86 4862.9 4008.93 3805.62 4243.78 3767.21 3937.62 4320.89 
4672.83 4438.94 4353.95 4747.89 4607.99 4521.43 4406.84 4407.77 4321.4 
4175.62 3597.37 4320.89 4303.86 4488.25 4376.42 4246.22 4409.74 4251 
4626.9 4756.54 4809.53 4757.3 4612.28 4582.99 4582.99 4558.72 4577.84 
4670.72 4621.58 4411.49 4450.1 4202.05 4163.4 4219.56 4473.74 4602.23 
4602.23 4631.21 4790.43 4774.28 4600.37 4600.37 4668.73 4468.77 4429.69 
4506.07 4489.77 4703.58 5685.37 3831.36 3831.36 4222.2 4754.28 4571.58 
4633.37 4864.6 4908.8 5374.38 5848.93 6014.99 5847.77 5583.63 5470.98 
5344.95 5020.86 5062.67 4989.36 5079.15 5177.1 5240.8 5207.49 5385.7 
5420.69 5223.79 4994.2 4414.77 4188.05 3970.7 3850.22 3718.95 3815.11 
3775.28 3824.75 3865.33 4041.41 4274.26 4634.95 5083.6 5483.77 6150.7 
7019.1 6440.46 6047.59 5704.04 5572.3 5656.12 5523.49 5768.98 5885.99 
5745.12 5791.96 5791.96 5687.86 5723.6 5623.22 5486.21 4862.74 6190.42 
5864.26 6123.65 5745.85 5867.49 5968.01 5761.77 5666.53 5003.22 5844.63 
6406.25 6785.73 5787.47 6015.46 5902.21 6405.95 7117.59 7729.01 7818.88 
7818.88 7217.7 6277.12 6298.25 6364.16 5885.46 6382.6 6392.31 6078.57 
5971.94 5629.42 5479.04 5359.42 5483.51 5878.28 5823.49 5922.33 6012.7 
6120.44 6123.74 6013.53 5818.51 5801.73 5972.15 6238 7020.68 5468.85 
5739.16 5947.85 5931.15 5931.15 5995.35 5926.77 5935.74 5915.84 6756.52 
6858 6682.27 6525.26 6365.52 6023.52 5953.41 6045.74 6338.27 6187.01 
5931.02 5481.94 5481.94 5466.05 5706.31 5846.35 5799.3 5516.15 5119.28 
5594.73 7654.12 7561.67 7404.48 6654.88 6276.38 5504.98 5838.36 5518.32 
5826.88 6203.11 5367.43 5489.27 5516.88 5414.02 5133.26 5136.86 5134.16 
5438.69 5663.46 6428.47 6439.9 6062.79 5770.35 5384.31 5381.83 5541.07 
5586.33 5589.36 5439.26 5421.05 5355.4 5140.91 4809.23 4794.35 4982.43 
5514.7 5938.27 6238.7 6332.94 6234.05 5906.41 5841.12 5713.42 6018.74 
6018.74 6138.42 6092.59 6007.1 5679.62 5679.62 5719.54 5562.54 5562.54 
5372.98 5245.14 5303.1 5071.27 5110.42 5110.42 5084.22 5315.04 5495.85 
5686.96 5686.96 5851.94 6035.8 6047.25 5842.94 5845.52 5569.32 5862.48 
5747.27 5824.35 5691.33 5610.99 5443.44 5496.56 5429.11 5142.37 5337.33 
5267.72 5024.07 5068.86 5134.75 5136.84 5464.31 5428.75 5170.96 5109.43 
5008.17 5016.86 5016.86 5213.59 5385.11 5385.11 5467.84 5467.84 
rGFP 1 305 double
6594.3 6149.2 4788.46 5795.33 6700.4 7818.2 6752.42 6153.81 7198.1 
6024.83 6582.63 5911.11 5077.96 6691.32 6843.14 5784.16 5372.4 4719.4 
6586.48 5165.95 4961.21 4298.58 4366.14 4643.7 4674.43 4917.94 5606.74 
4839.95 4873.6 4783.68 5103.38 5064.07 5048.9 5013.25 5150.31 5107.27 
4942.31 4591.42 5606.74 5533.58 5516.4 5497.19 5287.07 5178.01 5051.7 
4927.62 4769.84 4948.88 4908.38 4772.84 4757.17 4757.17 5034.38 5141.1 
4953.93 4835.65 4996.88 4874.7 4979.75 5065.89 4879.31 5058.72 4959.27 
4959.27 5175.65 4951.77 4969.75 4966.86 4966.86 4872.88 4855.15 4941.77 
4753.75 4906.05 5159.95 5739.16 4743.01 4743.01 4919.68 4994.1 5020.2 
4968.36 4955.52 5108.86 5230.44 5290.4 5433.35 5585.33 5344.35 5548.72 
5514.06 5152.6 5245.04 5147.77 5074.51 5345.8 5366.65 5496.07 5571.36 
5745.16 5586.01 5372.4 5168.9 5200.15 5169.49 5075.58 4782.14 4518.59 
4644.16 4478.77 4635.58 4402.14 4549.65 4613.36 5163.54 5532.11 5968.54 
6144.35 5823.78 5411.72 5278.63 5231.96 5150.63 5256.62 5336.99 5320.68 
5420.91 5529.74 5529.74 5521.26 5247.35 5503.72 5421.31 5044.06 6569.25 
6112.7 5827.32 5979.05 6109.58 6163.19 6361.83 6440.23 5031.79 5609.78 
6151.7 6557.32 5855.41 6080.17 6270.69 6490.11 6984.41 6954.8 6439.52 
6439.52 6115.26 5658.59 5500.85 5516.33 6461.12 6051.09 5778.26 5698.9 
5982.33 5703.94 5649.32 5879.75 6228.69 6768.46 6994.25 6960.41 6940.25 
6755.17 6513.79 6691.85 6782.37 6676.67 6639.26 6828.84 6861.28 6928.48 
7068.02 6999.06 6671.07 6671.07 6477.81 6540.42 6624.16 6671.78 6044.07 
5865.95 6142.16 6098.27 5695.54 5375.4 5617.51 5971.62 5802.9 5927.51 
6025.6 5922.26 5922.26 6754.42 6819.72 7161.86 6826.15 6740.59 6802.25 
7098.69 7219.79 7052.09 6813.95 6233.53 6325.7 6574.4 5947.52 6225.01 
6331.02 6559.23 6441.04 6262.42 6036.04 5683.47 5578.26 5626.91 5841.72 
6432.36 6820.35 6815.6 6717.54 6458.12 6176 6483.58 6493.54 6252.16 
6150.8 6239.28 6321.33 6502.99 6688.57 6829.7 7067.4 7060.37 7094.46 
6906.94 6815.33 7020 6913.65 7772.06 7658.47 6940.74 6767.59 6507.62 
6507.62 6019.73 5826.01 6075.11 6184.11 6184.11 5913.14 5688.79 5688.79 
5977.9 6172.28 6156.84 6440.8 6457.74 6457.74 6481.01 6202.41 6156.25 
6257.44 6257.44 6468.77 6753.81 6620.56 6662.57 6311.79 6278.59 6159.81 
6141.94 6273.89 6409.31 6348.69 6436.72 6316.78 6057.62 6082.37 5518.59 
5752.14 5695.11 5967.15 5882.81 6020.96 6258.73 6181.42 6002.04 6188.48 
6304.35 6402.89 6402.89 6517.74 6642.44 6642.44 6652.21 6652.21 
bkstRFP 1 305 double
2992.96 3253.24 2480.93 2775.35 3673.36 3514.2 3526.43 3943.58 4972.2 
3030.68 3253.91 3990.03 2117.75 3562.56 3491.75 3156.73 2698.51 2874.12 
4412.1 2148.17 2567.21 1713.24 1509.93 1948.09 1471.52 1641.93 2025.2 
2377.14 2143.25 2058.26 2452.2 2312.3 2225.74 2111.15 2112.08 2025.71 
1879.93 1301.68 2025.2 2008.17 2192.56 2080.73 1950.53 2114.05 1955.31 
2331.21 2460.85 2513.84 2461.61 2316.59 2287.3 2287.3 2263.03 2282.15 
2375.03 2325.89 2115.8 2154.41 1906.36 1867.71 1923.87 2178.05 2306.54 
2306.54 2335.52 2494.74 2478.59 2304.68 2304.68 2373.04 2173.08 2134 
2210.38 2194.08 2407.89 3389.68 1535.67 1535.67 1926.51 2458.59 2275.89 
2337.68 2568.91 2613.11 3078.69 3553.24 3719.3 3552.08 3287.94 3175.29 
3049.26 2725.17 2766.98 2693.67 2783.46 2881.41 2945.11 2911.8 3090.01 
3125 2928.1 2698.51 2119.08 1892.36 1675.01 1554.53 1423.26 1519.42 
1479.59 1529.06 1569.64 1745.72 1978.57 2339.26 2787.91 3188.08 3855.01 
4723.41 4144.77 3751.9 3408.35 3276.61 3360.43 3227.8 3473.29 3590.3 
3449.43 3496.27 3496.27 3392.17 3427.91 3327.53 3190.52 2567.05 3894.73 
3568.57 3827.96 3450.16 3571.8 3672.32 3466.08 3370.84 2707.53 3548.94 
4110.56 4490.04 3491.78 3719.77 3606.52 4110.26 4821.9 5433.32 5523.19 
5523.19 4922.01 3981.43 4002.56 4068.47 3589.77 4086.91 4096.62 3782.88 
3676.25 3333.73 3183.35 3063.73 3187.82 3582.59 3527.8 3626.64 3717.01 
3824.75 3828.05 3717.84 3522.82 3506.04 3676.46 3942.31 4724.99 3173.16 
3443.47 3652.16 3635.46 3635.46 3699.66 3631.08 3640.05 3620.15 4460.83 
4562.31 4386.58 4229.57 4069.83 3727.83 3657.72 3750.05 4042.58 3891.32 
3635.33 3186.25 3186.25 3170.36 3410.62 3550.66 3503.61 3220.46 2823.59 
3299.04 5358.43 5265.98 5108.79 4359.19 3980.69 3209.29 3542.67 3222.63 
3531.19 3907.42 3071.74 3193.58 3221.19 3118.33 2837.57 2841.17 2838.47 
3143 3367.77 4132.78 4144.21 3767.1 3474.66 3088.62 3086.14 3245.38 
3290.64 3293.67 3143.57 3125.36 3059.71 2845.22 2513.54 2498.66 2686.74 
3219.01 3642.58 3943.01 4037.25 3938.36 3610.72 3545.43 3417.73 3723.05 
3723.05 3842.73 3796.9 3711.41 3383.93 3383.93 3423.85 3266.85 3266.85 
3077.29 2949.45 3007.41 2775.58 2814.73 2814.73 2788.53 3019.35 3200.16 
3391.27 3391.27 3556.25 3740.11 3751.56 3547.25 3549.83 3273.63 3566.79 
3451.58 3528.66 3395.64 3315.3 3147.75 3200.87 3133.42 2846.68 3041.64 
2972.03 2728.38 2773.17 2839.06 2841.15 3168.62 3133.06 2875.27 2813.74 
2712.48 2721.17 2721.17 2917.9 3089.42 3089.42 3172.15 3172.15 
bkstGFP 1 305 double
4008.3 3563.2 2202.46 3209.33 4114.4 5232.2 4166.42 3567.81 4612.1 
3438.83 3996.63 3325.11 2491.96 4105.32 4257.14 3198.16 2786.4 2133.4 
4000.48 2579.95 2375.21 1712.58 1780.14 2057.7 2088.43 2331.94 3020.74 
2253.95 2287.6 2197.68 2517.38 2478.07 2462.9 2427.25 2564.31 2521.27 
2356.31 2005.42 3020.74 2947.58 2930.4 2911.19 2701.07 2592.01 2465.7 
2341.62 2183.84 2362.88 2322.38 2186.84 2171.17 2171.17 2448.38 2555.1 
2367.93 2249.65 2410.88 2288.7 2393.75 2479.89 2293.31 2472.72 2373.27 
2373.27 2589.65 2365.77 2383.75 2380.86 2380.86 2286.88 2269.15 2355.77 
2167.75 2320.05 2573.95 3153.16 2157.01 2157.01 2333.68 2408.1 2434.2 
2382.36 2369.52 2522.86 2644.44 2704.4 2847.35 2999.33 2758.35 2962.72 
2928.06 2566.6 2659.04 2561.77 2488.51 2759.8 2780.65 2910.07 2985.36 
3159.16 3000.01 2786.4 2582.9 2614.15 2583.49 2489.58 2196.14 1932.59 
2058.16 1892.77 2049.58 1816.14 1963.65 2027.36 2577.54 2946.11 3382.54 
3558.35 3237.78 2825.72 2692.63 2645.96 2564.63 2670.62 2750.99 2734.68 
2834.91 2943.74 2943.74 2935.26 2661.35 2917.72 2835.31 2458.06 3983.25 
3526.7 3241.32 3393.05 3523.58 3577.19 3775.83 3854.23 2445.79 3023.78 
3565.7 3971.32 3269.41 3494.17 3684.69 3904.11 4398.41 4368.8 3853.52 
3853.52 3529.26 3072.59 2914.85 2930.33 3875.12 3465.09 3192.26 3112.9 
3396.33 3117.94 3063.32 3293.75 3642.69 4182.46 4408.25 4374.41 4354.25 
4169.17 3927.79 4105.85 4196.37 4090.67 4053.26 4242.84 4275.28 4342.48 
4482.02 4413.06 4085.07 4085.07 3891.81 3954.42 4038.16 4085.78 3458.07 
3279.95 3556.16 3512.27 3109.54 2789.4 3031.51 3385.62 3216.9 3341.51 
3439.6 3336.26 3336.26 4168.42 4233.72 4575.86 4240.15 4154.59 4216.25 
4512.69 4633.79 4466.09 4227.95 3647.53 3739.7 3988.4 3361.52 3639.01 
3745.02 3973.23 3855.04 3676.42 3450.04 3097.47 2992.26 3040.91 3255.72 
3846.36 4234.35 4229.6 4131.54 3872.12 3590 3897.58 3907.54 3666.16 
3564.8 3653.28 3735.33 3916.99 4102.57 4243.7 4481.4 4474.37 4508.46 
4320.94 4229.33 4434 4327.65 5186.06 5072.47 4354.74 4181.59 3921.62 
3921.62 3433.73 3240.01 3489.11 3598.11 3598.11 3327.14 3102.79 3102.79 
3391.9 3586.28 3570.84 3854.8 3871.74 3871.74 3895.01 3616.41 3570.25 
3671.44 3671.44 3882.77 4167.81 4034.56 4076.57 3725.79 3692.59 3573.81 
3555.94 3687.89 3823.31 3762.69 3850.72 3730.78 3471.62 3496.37 2932.59 
3166.14 3109.11 3381.15 3296.81 3434.96 3672.73 3595.42 3416.04 3602.48 
3718.35 3816.89 3816.89 3931.74 4056.44 4056.44 4066.21 4066.21 
tubeWidth 1 305 double
0.331018 0.197751 0.279541 0.228212 0.210497 0.222115 0.150502 0.276474 0.262401 
0.12305 0.0402079 0.20105 0.263896 0.224359 0.138486 0.251822 0.237648 0.204494 
0.269884 0.234147 0.189142 0.133446 0.103281 0.12043 0.083045 0.0740609 0.0677671 
0.200194 0.210424 0.187431 0.157047 0.180886 0.154193 0.183792 0.198228 0.206842 
0.16583 0.13909 0.108128 0.106733 0.129086 0.165618 0.182413 0.150436 0.155255 
0.23608 0.234734 0.208066 0.171535 0.200029 0.22736 0.186673 0.206898 0.220789 
0.209951 0.227144 0.219876 0.154506 0.130151 0.103224 0.127017 0.147796 0.156237 
0.20738 0.219097 0.21771 0.236113 0.238205 0.245691 0.235354 0.184439 0.189654 
0.184412 0.151167 0.0663029 0.140349 0.0723243 0.104323 0.163246 0.170444 0.120885 
0.173312 0.222596 0.25776 0.253564 0.26042 0.280952 0.249324 0.290521 0.289258 
0.25665 0.237817 0.2348 0.250175 0.229963 0.212597 0.232214 0.226986 0.209599 
0.25974 0.294061 0.256435 0.265911 0.211453 0.189575 0.183741 0.173509 0.193566 
0.195019 0.21167 0.210767 0.209727 0.209303 0.205954 0.227272 0.193051 0.249667 
0.276929 0.217546 0.189629 0.226328 0.230133 0.22124 0.220104 0.251225 0.281257 
0.264836 0.265173 0.261715 0.286355 0.29943 0.257269 0.282479 0.311261 0.22825 
0.183015 0.178879 0.227279 0.245166 0.246789 0.19636 0.19172 0.218817 0.239644 
0.199122 0.21828 0.256136 0.199234 0.197017 0.181542 0.272188 0.266638 0.25636 
0.235179 0.201315 0.165617 0.245235 0.230462 0.134103 0.245152 0.224234 0.210134 
0.195041 0.193393 0.165957 0.138982 0.156617 0.230665 0.239359 0.252979 0.277752 
0.298512 0.278088 0.296939 0.243086 0.212615 0.237263 0.219624 0.253359 0.1367 
0.170571 0.240681 0.237878 0.222003 0.222377 0.214146 0.246783 0.198092 0.215783 
0.244845 0.27333 0.2386 0.268258 0.239434 0.222084 0.221729 0.280126 0.299911 
0.326725 0.314556 0.295952 0.0602759 0.103036 0.170698 0.131216 0.173919 0.145358 
0.136994 0.228466 0.219579 0.224464 0.213724 0.266199 0.200833 0.211646 0.200139 
0.197935 0.233738 0.129391 0.171243 0.174029 0.159909 0.145672 0.184653 0.193285 
0.196473 0.238665 0.239392 0.310664 0.24032 0.209146 0.232871 0.245104 0.220677 
0.248483 0.262311 0.285444 0.255306 0.244712 0.232116 0.195982 0.136264 0.133753 
0.215922 0.217351 0.228258 0.182761 0.214232 0.25065 0.198007 0.219188 0.24872 
0.309498 0.304783 0.297802 0.290859 0.294457 0.281135 0.246682 0.236819 0.282116 
0.297699 0.294652 0.288917 0.242164 0.200298 0.228769 0.260714 0.240193 0.233429 
0.214897 0.205836 0.226597 0.237241 0.264602 0.25218 0.220482 0.228455 0.248372 
0.244607 0.253237 0.226699 0.23423 0.246289 0.236763 0.227673 0.199283 0.3307 
0.308633 0.255199 0.222283 0.207054 0.228392 0.195995 0.219591 0.209253 0.210695 
0.242515 0.252086 0.226291 0.238821 0.244956 0.29816 0.324183 0.37939 
