# vtk DataFile Version 3.0
vtk output
ASCII
DATASET POLYDATA
POINTS 650 float
1.90431 -0.484332 1.70351 2.35669 1.22833 1.81233 2.6771 -0.786376 1.25563 
0.24064 0.537273 1.2074 3.36661 0.989866 1.37952 0.145294 0.888738 1.10742 
-0.0562767 -1.17239 0.127862 -0.419466 0.129776 -0.0524426 5.3945 -0.245301 -0.0272712 
-0.327959 -0.790988 -0.418052 0.32138 -1.47665 -0.563684 2.32742 -1.81201 -0.557797 
3.17538 2.05631 0.185525 2.94158 -1.54688 -0.500895 5.31166 -0.358881 -0.251965 
6.1213 -0.702715 -0.300362 6.4772 -0.699385 -0.294142 5.22699 0.355863 -0.329254 
5.72259 0.589202 -0.279885 6.15743 -0.968582 -0.550281 -0.267174 -1.00766 -0.861992 
0.424103 -1.47532 -0.934301 5.15665 -0.532948 -0.691735 5.31911 -0.841009 -0.743998 
0.772855 -1.67411 -1.16734 7.28266 0.297318 -0.713506 7.41372 -0.446124 -0.843759 
1.86561 -1.799 -1.37546 1.11824 -1.67749 -1.63654 6.72129 -0.962177 -1.42062 
5.70493 1.15736 -1.19488 7.06526 -0.626453 -1.5586 0.784968 2.25011 -1.32461 
0.688078 -1.45954 -1.94316 3.49036 -0.632858 -1.75171 6.42255 1.41818 -1.54344 
7.73894 -0.0540292 -1.89942 6.38442 1.3736 -2.09376 3.15717 -0.258854 -2.50308 
7.72344 0.732467 -2.66076 2.10887 0.165478 -3.05363 6.01243 1.16669 -2.92281 
7.12978 1.2468 -2.8495 1.48472 0.986731 -3.12049 1.86175 1.18828 -3.07865 
1.90749 0.491968 -3.2696 5.76364 0.601927 -3.12132 5.81006 0.739957 -3.09602 
6.55468 0.537752 -3.12024 6.72719 0.55889 -3.11375 7.01888 0.33571 -3.14886 
7.06338 -0.280247 -3.25779 5.86774 0.488242 -3.34308 6.24416 0.9659 -3.25211 
6.72969 0.87004 -3.26149 6.90343 0.338964 -3.35327 7.20363 0.815959 -3.33135 
7.31185 0.975896 -3.23345 6.67693 0.161747 -3.59157 7.29961 0.832195 -3.32443 
7.33842 0.870134 -3.30201 7.33958 0.919677 -3.2681 7.25362 0.915303 -3.28529 
6.71431 0.0570695 -3.44407 6.73263 -0.0287226 -3.33112 6.76398 -0.10205 -3.26843 
6.80726 -0.159042 -3.24779 6.85596 -0.195962 -3.24607 6.90427 -0.234712 -3.2522 
6.95588 -0.256976 -3.25535 7.00946 -0.26949 -3.25673 6.7563 0.215483 -3.51302 
6.81462 0.257873 -3.44435 6.85282 0.298971 -3.39129 6.59538 0.16696 -3.59193 
6.53418 0.188426 -3.58907 6.48672 0.23829 -3.58095 6.44308 0.300026 -3.57065 
6.40167 0.363289 -3.56005 6.37019 0.424701 -3.54961 6.35536 0.482825 -3.5395 
6.33547 0.541951 -3.52929 6.32064 0.600076 -3.51918 6.28927 0.661467 -3.50875 
6.24988 0.724441 -3.49816 6.22028 0.78416 -3.48048 6.21691 0.836061 -3.44872 
6.22489 0.881761 -3.39531 6.23453 0.92449 -3.32736 7.27189 0.676258 -3.2849 
7.30124 0.578663 -3.21151 7.33362 0.497009 -3.11768 7.37592 0.427765 -3.029 
7.42358 0.379165 -2.96166 7.47094 0.329926 -2.90947 7.52089 0.291416 -2.83277 
7.5698 0.243352 -2.71262 7.61319 0.162933 -2.5513 7.65536 0.0678593 -2.36063 
7.7024 -0.0167236 -2.14356 7.28147 1.02917 -3.1793 7.26417 1.08034 -3.12782 
7.23116 1.13261 -3.06135 7.18488 1.18705 -2.96962 7.09677 0.890031 -3.28725 
7.02383 0.921225 -3.26028 6.96661 0.931893 -3.24925 6.91015 0.930689 -3.24785 
6.85055 0.91324 -3.25189 6.7916 0.898996 -3.25536 6.85865 0.385833 -3.24781 
6.81433 0.437895 -3.17153 6.77059 0.496446 -3.1317 6.96335 0.347886 -3.2454 
6.68602 0.931814 -3.25119 6.6404 0.983944 -3.24263 6.59145 1.01948 -3.23708 
6.54278 1.05637 -3.23128 6.48883 1.06702 -3.23024 6.42961 1.05143 -3.23395 
6.37066 1.0372 -3.23742 6.30838 1.00637 -3.24389 6.73216 0.809074 -3.24221 
6.74746 0.742932 -3.20859 6.74768 0.678446 -3.16739 6.73821 0.617194 -3.13329 
6.19865 1.02145 -3.27304 6.14986 1.05698 -3.2562 6.10226 1.0968 -3.18214 
6.05296 1.13432 -3.05961 5.81878 0.541253 -3.23659 1.83025 0.445144 -3.31426 
1.7739 0.396434 -3.32382 1.74812 0.338602 -3.29439 1.73455 0.275038 -3.24322 
1.72477 0.209995 -3.18722 1.72727 0.145787 -3.13841 1.75887 0.0904363 -3.10262 
1.80779 0.062918 -3.08417 1.86151 0.0509899 -3.07792 1.91815 0.053708 -3.07654 
1.98006 0.0826732 -3.0704 2.04428 0.123144 -3.06219 7.04881 1.26118 -2.91342 
6.98559 1.27696 -2.95677 6.93049 1.29068 -2.97526 6.87654 1.30217 -2.97909 
6.82261 1.31293 -2.97803 6.76904 1.32544 -2.97665 6.71731 1.3464 -2.96621 
6.66852 1.37987 -2.93092 6.61804 1.40055 -2.85279 6.56769 1.41675 -2.72027 
6.51273 1.40822 -2.53957 6.45218 1.38845 -2.32582 6.66568 0.531904 -3.11952 
6.60904 0.529176 -3.1209 6.0165 1.2069 -2.79143 6.0316 1.24761 -2.68988 
6.05589 1.28705 -2.61476 6.1061 1.32369 -2.55853 6.16746 1.35386 -2.48948 
6.2297 1.3692 -2.39296 6.29693 1.36471 -2.25726 5.79214 0.67766 -3.10739 
5.67099 0.550663 -3.12439 5.59785 0.499987 -3.10446 5.54243 0.443163 -3.04774 
5.50267 0.377284 -2.95474 5.44801 0.311747 -2.84687 5.38534 0.247794 -2.73886 
5.33091 0.184853 -2.64557 5.29134 0.118979 -2.55258 5.2387 0.0556831 -2.45932 
5.18583 -0.0102059 -2.3515 5.14612 -0.0800152 -2.23663 5.09503 -0.148896 -2.11425 
5.05551 -0.221384 -1.98481 5.05538 -0.30429 -1.84155 5.05169 -0.390244 -1.67631 
5.04068 -0.473612 -1.49568 5.03406 -0.537065 -1.30391 5.04759 -0.558879 -1.11194 
5.08781 -0.573259 -0.940793 5.1324 -0.562822 -0.802778 1.97221 0.393345 -3.18579 
2.02239 0.309077 -3.11723 2.06603 0.234897 -3.07456 1.8853 0.571916 -3.22311 
1.90594 0.628349 -3.19016 1.92575 0.67924 -3.17076 1.93805 0.731639 -3.15873 
1.94692 0.785085 -3.14907 1.94599 0.840465 -3.13923 1.9319 0.898444 -3.12913 
1.94057 0.95193 -3.11948 1.96219 1.00286 -3.11007 1.9442 1.06161 -3.0999 
1.90482 1.12458 -3.08931 1.45692 1.0461 -3.10284 1.45175 1.09835 -3.07104 
1.44792 1.14638 -3.01741 1.42912 1.19604 -2.95619 1.41368 1.24626 -2.90235 
1.38137 1.30061 -2.86309 1.3372 1.34729 -2.82538 1.28809 1.37709 -2.77571 
1.24167 1.42012 -2.7161 1.19683 1.47105 -2.65507 1.15052 1.5154 -2.60277 
1.10116 1.54382 -2.54582 1.05427 1.5838 -2.47925 1.00726 1.62248 -2.40538 
0.957672 1.6483 -2.33384 0.911265 1.69013 -2.26693 0.868695 1.74255 -2.2056 
0.836502 1.79607 -2.15144 0.820868 1.84511 -2.09029 0.800273 1.89513 -2.02903 
0.786757 1.94507 -1.97521 0.768507 1.99859 -1.93587 0.766913 2.04882 -1.89686 
0.774881 2.0932 -1.83616 0.784222 2.13247 -1.74813 0.79325 2.16724 -1.62516 
0.799806 2.20686 -1.48069 7.11588 1.30794 -2.7084 7.10351 1.35108 -2.56548 
7.07072 1.38979 -2.42115 7.02687 1.42746 -2.27718 6.97894 1.45444 -2.13769 
6.92599 1.45708 -2.00262 6.87257 1.45655 -1.86059 6.82158 1.46748 -1.70895 
6.76764 1.46368 -1.55999 6.7122 1.45533 -1.44195 6.65674 1.45124 -1.36831 
6.60012 1.44638 -1.34749 6.54087 1.43283 -1.37342 6.48295 1.43026 -1.44251 
2.15526 0.11719 -3.06149 2.20638 0.0917556 -3.05768 2.25933 0.0746778 -3.04484 
2.31051 0.0473192 -3.0188 2.3591 0.00711198 -2.99509 2.41209 -0.0119014 -2.96001 
2.46815 -0.0149831 -2.92957 2.51869 -0.04545 -2.9041 2.57073 -0.0677746 -2.88468 
2.62618 -0.0738674 -2.85478 2.68467 -0.0662711 -2.80736 2.7401 -0.0746087 -2.75529 
2.79324 -0.0943447 -2.70529 2.84421 -0.124182 -2.66465 2.8921 -0.170059 -2.61939 
2.94293 -0.201303 -2.57146 2.99581 -0.221603 -2.5291 3.04939 -0.236254 -2.50829 
3.10323 -0.248203 -2.50203 7.73203 0.762197 -2.51989 7.7405 0.790628 -2.37173 
7.74864 0.816484 -2.20897 7.7545 0.838608 -2.02435 7.74778 0.856701 -1.82559 
7.71157 0.85536 -1.62324 7.66317 0.803411 -1.43761 7.62524 0.7281 -1.27102 
7.58365 0.654922 -1.1342 7.55733 0.583788 -1.02688 7.5298 0.5195 -0.95599 
7.47786 0.463992 -0.906492 7.41444 0.412071 -0.864065 7.34878 0.356632 -0.799728 
6.40874 1.40218 -1.81489 7.7071 -0.0418849 -1.6438 7.65265 -0.0390172 -1.409 
7.60082 -0.0311338 -1.20902 7.54946 -0.0222344 -1.0521 7.502 0.00912904 -0.926874 
7.45707 0.0567318 -0.836341 7.41296 0.111283 -0.774657 7.36934 0.171132 -0.742122 
7.32594 0.233576 -0.724167 6.37309 1.43455 -1.36824 6.31682 1.41914 -1.22138 
6.25348 1.37148 -1.11046 6.18839 1.3187 -1.03812 6.1253 1.27879 -0.993548 
6.06561 1.25869 -0.975496 6.00356 1.22833 -0.974354 5.94165 1.19937 -0.980488 
5.8828 1.18634 -0.991266 5.82327 1.1721 -1.02484 5.76534 1.16945 -1.09394 
7.10311 -0.677518 -1.70755 7.09804 -0.71389 -1.84202 7.05336 -0.741577 -1.95802 
7.00569 -0.773319 -2.04469 6.98014 -0.815438 -2.09773 6.95405 -0.864756 -2.09941 
6.90461 -0.908879 -2.0353 6.84728 -0.936179 -1.89307 6.78695 -0.955341 -1.67923 
3.53988 -0.604607 -1.64807 3.5768 -0.568583 -1.57336 3.62904 -0.530303 -1.52809 
3.68941 -0.492307 -1.49027 3.74153 -0.455324 -1.43772 3.77857 -0.418003 -1.3703 
3.82844 -0.384539 -1.29583 3.87653 -0.350723 -1.22132 3.90177 -0.311072 -1.15366 
3.92545 -0.268473 -1.10056 3.96231 -0.225836 -1.06229 3.98421 -0.180245 -1.02373 
3.99608 -0.135315 -0.970403 4.00605 -0.091331 -0.909736 4.01602 -0.0460264 -0.85637 
4.02635 0.00317142 -0.824878 4.03668 0.0536875 -0.800669 4.0451 0.103259 -0.76914 
4.0435 0.152169 -0.722833 4.02715 0.205313 -0.683533 4.02613 0.262032 -0.680981 
4.03371 0.324977 -0.722329 4.03183 0.393754 -0.785371 4.00517 0.463459 -0.826056 
3.97948 0.523728 -0.815735 3.98755 0.568088 -0.755041 4.02328 0.600383 -0.658429 
4.0555 0.630619 -0.547185 4.09023 0.654351 -0.414498 4.09373 0.667817 -0.269076 
4.05336 0.6502 -0.114826 3.99474 0.612188 0.027978 3.93861 0.596967 0.174868 
3.88712 0.60462 0.33344 3.83283 0.596935 0.504282 3.77712 0.582865 0.666438 
3.72382 0.583735 0.801202 3.67633 0.61713 0.904211 3.63139 0.664626 0.994725 
3.58693 0.715282 1.07829 3.54261 0.767345 1.15457 3.49876 0.824597 1.2017 
3.45501 0.883148 1.24153 3.41104 0.939102 1.29594 0.640539 -1.42423 -1.86238 
0.587894 -1.41578 -1.77141 0.532604 -1.42395 -1.65334 0.478393 -1.43944 -1.50646 
0.435766 -1.46067 -1.33032 0.421763 -1.47833 -1.13804 0.690332 -1.54858 -1.7558 
0.718006 -1.62884 -1.56648 0.753225 -1.67156 -1.37036 0.747364 -1.44073 -1.96897 
0.799306 -1.45775 -2.00881 0.851797 -1.47276 -2.04075 0.905393 -1.48517 -2.04211 
0.958679 -1.50342 -2.00187 1.01142 -1.53197 -1.91833 1.06424 -1.58472 -1.79144 
0.718869 2.25429 -1.1951 0.648758 2.22474 -1.09801 0.586835 2.19734 -1.02486 
0.523492 2.15582 -0.971165 0.458558 2.10746 -0.935656 0.393617 2.06123 -0.922339 
0.329101 2.01745 -0.923624 0.268271 1.97426 -0.932273 0.227157 1.92718 -0.941303 
0.217538 1.87388 -0.950942 0.188009 1.82452 -0.960196 0.153849 1.77606 -0.96936 
[...]
POINT_DATA 650
SCALARS DY_raw double
LOOKUP_TABLE default
401.285 345.189 277.526 386.582 474.757 500.267 531.876 654.56 630.326 
660.949 447.943 405.186 277.274 385.332 456.168 465.987 565.035 507.225 
607 596.531 380.754 416.143 565.044 426.136 350.8 486.404 812.379 
353.617 354.813 716.066 398.615 634.687 511.188 285.195 405.477 535.934 
487.274 515.087 353.918 394.277 516.568 491.102 374.219 344.056 606.851 
357.16 564.027 584.564 716.733 550.645 499.571 377.008 325.971 454.171 
460.953 332.312 480.961 366.042 370.88 404.179 392.376 398.04 461.709 
441.82 521.166 533.945 514.671 455.898 423.995 423.995 408.55 395.573 
395.99 350.397 398.606 428.673 494.452 517.636 499.781 496.274 544.498 
516.766 535.749 543.563 462.737 467.483 423.918 388.073 423.766 514.715 
580.373 560.832 544.06 532.823 419.607 471.4 435.162 415.95 452.424 
420.515 404.928 322.704 308.691 327.234 536.212 520.739 522.381 537.013 
549.537 497.058 399.92 457.593 526.695 386.531 484.444 511.225 527.806 
527.806 529.888 516.792 474.893 439.896 450.872 491.645 501.7 496.397 
457.08 471.263 480.997 485.109 435.92 361.452 421.643 462.501 456.97 
487.891 469.65 415.702 399.421 445.362 456.434 472.408 513.977 365.364 
374.597 407.945 466.701 466.701 476.169 465.609 461.789 496.942 461.645 
483.174 526.831 542.32 590.287 525.26 543.781 579.579 532.25 491.113 
481.213 535.659 576.915 603.377 594.978 487.167 361.643 435.796 400.142 
382.37 459.368 422.858 407.004 471.986 405.521 495.859 560.444 556.421 
480.357 445.553 463.879 460.292 492.822 411.435 452.86 502.383 390.344 
428.187 437.097 470.201 470.201 493.066 500.112 500.112 492.956 520.708 
561.531 345.268 349.898 395.732 441.2 486.731 487.924 467.431 482.939 
514.673 522.565 505.561 497.54 518.429 518.173 506.825 525.752 523.24 
551.038 571.332 520.233 558.183 474.193 473.248 510.977 450.971 466.489 
470.232 413.702 429.821 427.207 416.269 417.36 438.917 494.603 575.567 
541.874 523.998 538.098 542.228 564.337 493.882 516.568 538.449 516.49 
575.522 529.569 577.965 468.282 478.592 478.592 478.937 524.609 589.987 
516.24 564.116 532.437 420.5 456.404 401.47 353.918 431.709 444.76 
364.607 374.25 432.573 508.671 564.957 547.687 606.139 554.766 588.195 
599.898 490.802 540.297 545.834 494.526 548.679 573.553 581.749 530.323 
503.047 462.999 436.872 452.57 677.962 628.113 520.709 574.742 564.405 
495.764 451.603 449.39 437.857 437.857 383.609 593.856 537.482 500.796 
461.442 442.407 500.535 520.413 526.395 583.068 492.9 476.064 499.132 
499.132 504.249 450.177 479.196 436.182 486.834 411.529 422.183 412.365 
421.748 405.996 430.79 433.093 466.96 466.96 481.492 445.064 445.064 
402.653 378.118 358.404 351.244 346.166 363.32 332.866 326.33 327.193 
336.859 322.898 324.091 359.857 368.246 384.404 373.146 420.563 427.505 
443.054 451.574 448.832 452.857 464.57 323.668 360.446 378.118 452.699 
438.936 385.389 321.419 322.504 346.45 313.462 311.765 314.866 314.866 
282.568 298.199 335.756 614.751 655.191 675.478 679.443 680.616 750.12 
605.563 632.975 654.052 589.276 589.276 584.278 558.529 638.296 598.768 
578.235 649.507 578.629 578.629 544.92 503.502 581.127 550.075 540.867 
561.057 608.271 653.54 788.306 760.871 813.174 813.174 758.02 758.02 
763.331 839.853 896.804 989.452 986.207 833.217 718.868 714.44 647.655 
611.746 628.698 720.475 895.72 917.924 931.087 800.966 616.092 509.388 
525.35 524.774 540.042 524.825 534.768 554.85 376.285 363.725 391.866 
407.707 411.632 456.795 445.432 441.973 441.973 393.522 368.602 368.602 
383.06 419.193 402.762 371.707 371.707 546.797 605.885 626.691 629.951 
541.899 490.989 506.558 533.09 588.16 548.642 530.68 532.196 501.601 
494.967 494.967 494.359 514.302 514.302 573.398 587.675 651.733 598.808 
630.879 747.317 814.788 709.138 707.963 695.514 607 345.833 382.255 
424.355 402.059 395.508 392.977 457.341 482.239 526.234 509.284 593.593 
619.878 619.878 591.47 571.825 571.825 572.011 570.956 572.329 575.657 
441.212 404.665 476.934 496.272 542.578 598.442 549.666 464.299 462.219 
502.496 456.142 398.258 436.855 431.997 450.573 490.911 574.02 540.118 
497.341 485.983 481.635 515.722 563.847 594.666 630.398 596.531 606.856 
552.049 515.639 479.906 443.111 429.445 454.818 551.831 453.599 508.928 
404.13 452.467 442.232 401.936 365.163 378.939 356.738 340.782 379.569 
379.569 260.232 283.642 309.721 373.236 386.838 403.448 431.242 441.302 
452.271 427.617 432.932 356.375 319.598 333.827 310.663 304.981 321.306 
333.079 377.064 401.662 461.67 459.256 482.811 447.95 441.146 397.905 
369.729 361.332 383.762 408.515 408.515 492.579 525.681 497.442 484.25 
452.093 461.835 514.539 477.136 318.822 332.087 351.591 357.941 389.055 
375.115 347.992 357.687 330.377 318.141 313.159 335.671 380.126 436.583 
529.744 558.408 554.857 549.199 560.954 510.626 467.406 467.406 470.745 
399.707 417.147 403.767 460.429 478.206 554.925 596.261 502.249 513.817 
513.817 462.243 515.801 586.309 629.298 594.879 738.477 717.091 602.716 
479.764 462.588 395.905 446.298 408.608 421.383 415.974 361.507 359.268 
350.806 362.717 345.105 345.105 336.936 367.456 357.284 353.425 353.425 
350.268 369.555 392.599 379.357 365.997 365.997 318.225 354.78 366.815 
391.205 380.326 395.665 403.096 337.736 302.937 302.937 308.995 368.62 
394.286 477.373 
FIELD FieldData 7
DY_minmax 1 650 double
0.19343 0.116504 0.0237149 0.173266 0.294184 0.329166 0.372513 0.540752 0.50752 
0.549514 0.257413 0.198779 0.0233701 0.171552 0.268692 0.282157 0.417985 0.338708 
0.475533 0.461176 0.165275 0.213805 0.417996 0.227508 0.124199 0.310156 0.757175 
0.12806 0.129701 0.625097 0.189768 0.513501 0.344143 0.0342319 0.199178 0.378078 
0.311349 0.349489 0.128473 0.183819 0.35152 0.316598 0.156313 0.11495 0.475328 
0.13292 0.416602 0.444764 0.626012 0.398251 0.328212 0.160138 0.090149 0.265954 
0.275254 0.0988449 0.302692 0.145099 0.151734 0.197398 0.181212 0.188979 0.276291 
0.249017 0.357826 0.37535 0.348919 0.268322 0.224572 0.224572 0.203392 0.185596 
0.186168 0.123646 0.189755 0.230988 0.321192 0.352984 0.328499 0.32369 0.389822 
0.351792 0.377824 0.38854 0.2777 0.284208 0.224466 0.175311 0.224259 0.348979 
0.439017 0.412221 0.389221 0.373812 0.218555 0.28958 0.239886 0.213541 0.263558 
0.219801 0.198425 0.0856688 0.0664532 0.0918815 0.378459 0.357241 0.359492 0.379557 
0.396732 0.324765 0.191557 0.270646 0.365408 0.173197 0.307468 0.344194 0.366931 
0.366931 0.369786 0.351827 0.29437 0.246378 0.26143 0.317342 0.331131 0.323859 
0.269943 0.289393 0.30274 0.30838 0.240925 0.138805 0.221347 0.277377 0.269792 
0.312195 0.28718 0.2132 0.190874 0.253874 0.269057 0.290963 0.347967 0.14417 
0.156831 0.202563 0.283137 0.283137 0.29612 0.281639 0.276401 0.324606 0.276203 
0.305726 0.365595 0.386834 0.452614 0.36344 0.388838 0.437929 0.373025 0.316613 
0.303037 0.3777 0.434276 0.470564 0.459047 0.311202 0.139068 0.240756 0.191862 
0.167491 0.27308 0.223012 0.201272 0.290383 0.199238 0.323121 0.411689 0.406172 
0.301863 0.254136 0.279267 0.274347 0.318957 0.207349 0.264156 0.332068 0.178426 
0.230321 0.24254 0.287936 0.287936 0.319291 0.328953 0.328953 0.319141 0.357198 
0.41318 0.116612 0.122961 0.185814 0.248166 0.310604 0.312239 0.284137 0.305404 
0.348922 0.359744 0.336426 0.325427 0.354073 0.353721 0.338159 0.364115 0.36067 
0.398789 0.42662 0.356546 0.408588 0.29341 0.292114 0.343854 0.261565 0.282846 
0.287978 0.210457 0.232562 0.228978 0.213977 0.215473 0.245035 0.321399 0.432427 
0.386224 0.36171 0.381045 0.386709 0.417028 0.320411 0.35152 0.381526 0.351414 
0.432366 0.369349 0.435715 0.285305 0.299443 0.299443 0.299916 0.362547 0.452201 
0.35107 0.416724 0.373282 0.21978 0.269016 0.193683 0.128473 0.235151 0.253048 
0.143131 0.156356 0.236335 0.340691 0.417877 0.394194 0.474351 0.403903 0.449745 
0.465794 0.316187 0.384061 0.391653 0.321294 0.395556 0.429665 0.440905 0.370383 
0.332979 0.27806 0.242231 0.263757 0.572844 0.504485 0.357198 0.431296 0.41712 
0.322991 0.262432 0.259397 0.243582 0.243582 0.16919 0.457507 0.380201 0.329891 
0.275925 0.249821 0.329533 0.356793 0.364996 0.442713 0.319063 0.295975 0.327609 
0.327609 0.334627 0.260476 0.300272 0.241285 0.310745 0.207478 0.222087 0.208624 
0.22149 0.19989 0.23389 0.237048 0.283491 0.283491 0.303419 0.253465 0.253465 
0.195306 0.161659 0.134626 0.124807 0.117844 0.141367 0.0996041 0.0906412 0.0918252 
0.105081 0.0859355 0.0875718 0.136619 0.148123 0.170279 0.154842 0.219867 0.229386 
0.250709 0.262392 0.258632 0.264151 0.280215 0.0869907 0.137426 0.161659 0.263935 
0.245061 0.17163 0.0839067 0.0853948 0.118232 0.072996 0.0706678 0.0749213 0.0749213 
0.0306297 0.0520643 0.103567 0.486161 0.541618 0.569439 0.574875 0.576484 0.671796 
0.473562 0.511152 0.540056 0.451227 0.451227 0.444373 0.409062 0.518449 0.464243 
0.436087 0.533824 0.436626 0.436626 0.3904 0.333602 0.440052 0.397469 0.384842 
0.412529 0.477275 0.539353 0.724162 0.686539 0.758265 0.758265 0.68263 0.68263 
0.689913 0.79485 0.872949 1 0.995549 0.78575 0.62894 0.622867 0.531284 
0.48204 0.505288 0.631144 0.871462 0.901911 0.919962 0.741524 0.488 0.341674 
0.363563 0.362774 0.38371 0.362843 0.376479 0.404018 0.159146 0.141922 0.180513 
0.202237 0.207619 0.269552 0.25397 0.249227 0.249227 0.182784 0.14861 0.14861 
0.168437 0.217987 0.195455 0.152868 0.152868 0.392974 0.474003 0.502535 0.507006 
0.386257 0.316443 0.337794 0.374178 0.449696 0.395504 0.370873 0.372951 0.330996 
0.321898 0.321898 0.321065 0.348412 0.348412 0.429453 0.449031 0.536876 0.464299 
0.508278 0.667953 0.760477 0.615597 0.613986 0.596913 0.475533 0.117387 0.167333 
0.225066 0.19449 0.185507 0.182037 0.2703 0.304444 0.364775 0.341532 0.457147 
0.493193 0.493193 0.454236 0.427296 0.427296 0.427551 0.426105 0.427987 0.43255 
0.248183 0.198065 0.297169 0.323688 0.387189 0.463796 0.396909 0.279843 0.27699 
0.332223 0.268656 0.189278 0.242207 0.235546 0.261019 0.316337 0.430306 0.383815 
0.325153 0.309579 0.303616 0.35036 0.416355 0.458618 0.507619 0.461176 0.475334 
0.400177 0.350247 0.301245 0.250786 0.232046 0.26684 0.399878 0.265169 0.341044 
0.197331 0.263617 0.249582 0.194323 0.143894 0.162786 0.13234 0.11046 0.16365 
0.16365 0 0.032103 0.0678659 0.154965 0.173617 0.196395 0.23451 0.248306 
0.263348 0.22954 0.236828 0.131842 0.0814097 0.100923 0.0691573 0.0613658 0.0837518 
0.0998967 0.160214 0.193947 0.276238 0.272927 0.305229 0.257422 0.248092 0.188794 
0.150155 0.13864 0.1694 0.203344 0.203344 0.318624 0.364017 0.325292 0.307202 
0.263104 0.276464 0.348738 0.297447 0.080345 0.0985359 0.125283 0.133991 0.176658 
0.157542 0.120348 0.133643 0.0961919 0.079412 0.0725799 0.103451 0.164414 0.241834 
0.369589 0.408897 0.404027 0.396268 0.412388 0.343372 0.284104 0.284104 0.288681 
0.191265 0.215181 0.196833 0.274535 0.298913 0.40412 0.460805 0.331884 0.347748 
0.347748 0.277023 0.350469 0.447158 0.50611 0.458911 0.65583 0.626503 0.469657 
0.30105 0.277495 0.186052 0.255156 0.203471 0.22099 0.213573 0.13888 0.135811 
0.124207 0.14054 0.116388 0.116388 0.105185 0.147038 0.13309 0.127798 0.127798 
0.123468 0.149918 0.181518 0.163359 0.145038 0.145038 0.0795263 0.129655 0.14616 
0.179606 0.164687 0.185722 0.195913 0.106283 0.0585626 0.0585626 0.0668702 0.148635 
0.183831 0.297771 
WidthEq 1 650 double
2.2684 1.88985 2.02016 2.51488 1.97399 2.49698 1.80652 1.69242 2.18117 
2.36015 3.82173 2.67079 6.50074 2.47043 2.03102 3.02392 1.89959 2.39684 
2.55457 2.42448 3.12694 3.25726 2.94286 2.24514 3.42268 2.94405 2.17325 
1.7242 2.71638 2.90548 2.26032 2.93481 4.85362 4.2217 2.06258 4.3049 
5.17944 4.98855 2.60865 4.75883 3.47863 3.56939 4.61705 3.36996 1.91501 
4.10812 3.65392 2.61116 1.92635 2.82539 2.8935 1.97703 3.13343 3.40576 
3.03939 3.89501 3.27151 2.62472 3.98877 3.21941 3.04544 2.85478 3.20853 
3.3392 2.69132 2.6716 2.97489 3.32936 3.381 3.381 3.11741 3.54015 
3.33925 3.56044 4.07091 3.92121 3.56673 3.27581 3.08469 2.91716 2.64158 
2.60127 2.35972 2.22338 2.4497 2.41852 2.695 3.33027 3.23494 2.93708 
3.02557 3.43102 3.89173 3.95215 4.80746 4.42369 4.55951 4.84391 4.86351 
5.53066 3.01327 3.75861 4.45366 4.75032 3.1767 3.12119 3.06974 3.03009 
3.14945 3.21035 4.06834 3.72105 3.34628 3.61701 3.17611 3.04049 2.93463 
2.93463 2.82138 2.79661 3.00286 3.27529 2.8573 2.78206 2.77669 3.01933 
3.59275 3.58856 3.47983 3.58684 4.11995 4.10601 3.65602 3.42613 3.20771 
3.18287 3.18143 3.49211 3.7699 3.62677 3.58612 3.64701 3.50305 4.44665 
3.99239 3.71784 3.38961 3.38961 3.35195 3.33453 3.34349 3.19824 3.5399 
4.04974 4.27628 3.00992 2.64259 3.36233 3.08515 2.95731 3.12148 3.43988 
3.80581 4.18227 3.3348 3.40889 3.11454 3.36697 4.29107 4.13633 4.37979 
4.37646 4.01309 4.02688 4.22187 4.01117 4.06232 3.76691 3.45106 3.54652 
4.65166 5.03533 4.67285 4.16236 3.62449 3.63361 3.15911 3.03608 4.13968 
3.84375 3.53818 2.91545 2.91545 2.65041 2.48012 2.48012 2.4421 2.41261 
2.38438 3.61 3.99862 4.29528 4.03852 3.87842 3.85699 4.06947 4.09448 
3.74934 3.83456 3.95815 3.86489 3.38642 3.52168 3.7227 3.45552 3.42951 
3.43107 3.41286 3.74468 3.71254 4.01201 4.04527 4.00082 4.36761 4.84999 
5.20113 4.35903 4.39033 4.66655 4.88715 4.95912 4.89725 4.27583 3.67215 
3.65643 3.97251 3.87682 4.10767 4.13963 4.72015 3.47863 3.20799 3.4188 
3.20477 3.36437 3.19426 3.58631 3.56733 3.56733 3.64578 3.57401 3.38216 
3.60274 3.49963 3.58616 3.69414 3.5038 3.45938 2.60865 4.74247 4.90909 
4.80616 5.01917 4.5605 4.01845 3.48169 3.17049 3.00512 3.51108 3.45922 
3.47885 3.64181 3.26827 4.93397 4.79493 3.76518 3.42402 3.16543 3.18207 
3.12521 3.21654 3.35615 3.12882 3.22603 2.82149 3.3423 2.91088 2.73202 
3.10944 3.43028 3.47497 3.64326 3.64326 3.46089 3.52646 4.03125 4.30874 
4.54215 4.70607 4.48744 4.04744 3.91601 3.58051 2.15345 2.4257 2.5738 
2.5738 2.48403 2.51725 2.53298 2.74582 2.82525 3.01414 3.07028 2.96249 
3.00881 2.77554 2.75651 2.6422 2.46995 2.46995 2.39968 2.53104 2.53104 
2.85505 3.30137 3.34278 4.41718 4.74858 4.71099 4.79394 4.93644 4.64541 
4.9333 4.92925 4.68845 4.09178 3.85459 3.6504 3.52381 3.10174 2.86702 
2.75814 2.41539 2.49429 2.17799 2.0153 4.43695 4.16025 4.01515 3.16132 
3.19078 3.66362 4.11624 3.6685 3.4531 4.1491 3.29805 2.85568 2.85568 
2.61479 2.47324 2.37082 4.19955 3.87366 3.65871 3.46803 3.19672 2.85169 
3.39918 3.26235 3.11346 3.17296 3.17296 3.00697 2.98632 2.87197 3.16829 
3.43889 3.36852 4.41837 4.41837 4.87458 5.39213 4.68343 4.66089 3.70876 
3.60523 2.78964 2.45345 2.21552 1.69951 1.43404 1.43404 1.15465 1.15465 
1.13349 1.28461 1.28558 1.48375 1.51499 1.64588 2.65063 2.52036 2.67889 
2.77393 2.62965 3.18212 2.67611 2.47208 2.37381 2.82648 2.97023 3.08784 
2.92578 2.66851 2.66814 2.5118 2.48761 2.47803 2.77645 2.85877 2.61203 
2.62131 2.76707 2.62518 2.78904 2.85548 2.85548 2.79135 2.53853 2.53853 
2.79436 2.89777 3.00653 3.27976 3.27976 2.94846 2.56513 2.45889 2.34443 
2.22179 2.1852 2.0424 1.9552 1.90475 2.00032 2.00227 2.06328 2.25278 
2.39945 2.39945 2.53766 2.73168 2.73168 2.74632 2.86284 2.79013 2.80976 
2.63337 2.45768 2.35283 2.43477 2.57959 2.6928 2.55457 3.52013 3.2805 
3.01556 3.50294 3.73155 3.7225 2.25247 2.31716 2.30863 2.27226 2.03401 
1.91313 1.91313 1.84658 1.90572 1.90572 2.02401 2.27283 2.34503 2.40412 
3.81963 3.41556 3.31372 3.29595 2.78125 2.41906 2.52294 2.87125 3.12916 
3.06006 3.14435 3.03599 2.85572 2.75453 2.3791 2.22699 2.27408 2.754 
3.1191 3.10471 3.04719 2.81711 2.46536 2.40558 2.19597 2.23513 2.08131 
2.11827 1.93928 2.12316 2.24724 2.06848 2.19162 2.27984 2.25811 2.26811 
2.50159 2.53768 2.7151 2.80568 2.96612 3.02159 3.35251 3.54337 3.33633 
3.33633 6.80741 6.4009 5.95327 5.02957 4.35487 4.32117 4.00389 3.9036 
3.90935 3.48014 3.52939 3.82092 3.79792 3.84419 4.22531 4.37124 4.24501 
4.078 3.41053 2.9762 2.47083 2.20811 2.15711 2.06154 1.98645 2.1251 
2.16769 2.15588 2.13637 2.1652 2.1652 2.12412 2.06532 2.07491 1.95593 
2.01969 1.87159 1.84407 1.90454 5.69732 5.22363 4.60611 4.02121 3.72278 
3.2901 3.28317 3.12445 2.7256 2.55181 2.33414 2.07867 2.00377 1.95799 
3.17192 2.97017 2.85945 2.813 2.66192 2.80017 2.74063 2.74063 2.5279 
2.67788 2.82305 2.93656 2.51951 2.05517 1.91258 1.76682 2.04177 1.91141 
1.91141 2.03674 1.80629 1.60386 1.34065 1.29986 1 1.06041 1.19658 
1.63082 1.60803 1.99105 2.14085 2.33798 2.35861 2.40714 2.60683 2.59624 
2.72035 2.67922 2.67758 2.67758 2.46901 2.2917 2.22645 2.05208 2.05208 
2.16967 2.41289 2.39284 2.52023 2.40206 2.40206 2.09769 2.43223 2.70885 
2.56087 2.58891 2.43996 2.31887 2.32977 2.34892 2.34892 2.42685 2.42927 
2.48722 2.09318 
rRFP 1 650 double
4686.11 4280.02 4419.81 4950.52 4370.28 4931.32 4190.63 4068.22 4592.53 
4784.53 6352.44 5117.77 9226.35 4902.84 4431.46 5496.59 4290.47 4823.89 
4993.1 4853.54 5607.11 5746.91 5409.64 4661.16 5924.36 5410.91 4584.04 
4102.32 5166.68 5369.54 4677.44 5401 7459.41 6781.51 4465.31 6870.77 
7808.93 7604.15 5051.11 7357.72 5984.38 6081.75 7205.62 5867.81 4307.01 
6659.67 6172.42 5053.8 4319.17 5283.62 5356.68 4373.54 5614.07 5906.21 
5513.19 6431.05 5762.19 5068.35 6531.64 5706.3 5519.68 5315.15 5694.63 
5834.81 5139.8 5118.64 5443.99 5824.25 5879.65 5879.65 5596.88 6050.38 
5834.86 6072.14 6619.75 6459.16 6078.89 5766.81 5561.78 5382.06 5086.44 
5043.19 4784.07 4637.81 4880.6 4847.15 5143.74 5825.23 5722.96 5403.43 
5498.36 5933.31 6427.54 6492.35 7409.89 6998.2 7143.9 7448.99 7470.01 
8185.7 5485.17 6284.73 7030.35 7348.59 5660.49 5600.94 5545.75 5503.21 
5631.25 5696.58 6616.99 6244.44 5842.4 6132.83 5659.85 5514.37 5400.81 
5400.81 5279.32 5252.75 5474 5766.25 5317.85 5237.14 5231.38 5491.67 
6106.81 6102.31 5985.67 6100.46 6672.36 6657.41 6174.68 5928.06 5693.75 
5667.11 5665.56 5998.84 6296.84 6143.3 6099.69 6165.01 6010.58 7022.83 
6535.52 6241 5888.89 5888.89 5848.49 5829.8 5839.41 5683.59 6050.11 
6597.04 6840.06 5481.57 5087.52 5859.62 5562.28 5425.14 5601.25 5942.81 
6335.37 6739.21 5830.09 5909.57 5593.81 5864.6 6855.93 6689.93 6951.1 
6947.53 6557.73 6572.52 6781.69 6555.67 6610.54 6293.64 5954.81 6057.21 
7242.75 7654.33 7265.48 6717.85 6140.85 6150.64 5641.62 5509.64 6693.52 
6376.07 6048.26 5380.23 5380.23 5095.91 4913.23 4913.23 4872.44 4840.81 
4810.53 6125.31 6542.2 6860.44 6585.01 6413.26 6390.27 6618.21 6645.04 
6274.79 6366.21 6498.79 6398.74 5885.46 6030.56 6246.21 5959.59 5931.69 
5933.36 5913.83 6269.79 6235.31 6556.57 6592.25 6544.56 6938.04 7455.51 
7832.2 6928.83 6962.41 7258.73 7495.37 7572.58 7506.21 6839.58 6191.98 
6175.12 6514.19 6411.54 6659.19 6693.47 7316.22 5984.38 5694.05 5920.2 
5690.6 5861.81 5679.32 6099.9 6079.54 6079.54 6163.69 6086.7 5880.89 
6117.52 6006.91 6099.74 6215.57 6011.38 5963.73 5051.11 7340.17 7518.91 
7408.49 7637 7144.96 6563.47 5987.67 5653.83 5476.42 6019.19 5963.56 
5984.62 6159.43 5758.72 7545.6 7396.44 6291.78 5925.8 5648.4 5666.25 
5605.25 5703.23 5852.99 5609.12 5713.41 5279.44 5838.14 5375.33 5183.46 
5588.33 5932.52 5980.46 6160.99 6160.99 5965.35 6035.69 6577.21 6874.88 
7125.27 7301.12 7066.58 6594.57 6453.58 6093.67 4562.8 4854.85 5013.73 
5013.73 4917.42 4953.06 4969.94 5198.26 5283.47 5486.1 5546.32 5430.69 
5480.38 5230.14 5209.73 5087.1 4902.32 4902.32 4826.94 4967.86 4967.86 
5315.44 5794.23 5838.65 6991.21 7346.72 7306.4 7395.38 7548.25 7236.05 
7544.88 7540.54 7282.22 6642.14 6387.69 6168.65 6032.85 5580.07 5328.28 
5211.48 4843.79 4928.43 4589.12 4414.59 7012.42 6715.59 6559.93 5643.99 
5675.59 6182.83 6668.38 6188.07 5957 6703.63 5790.67 5316.11 5316.11 
5057.7 4905.85 4795.98 6757.75 6408.15 6177.56 5973.01 5681.96 5311.83 
5899.15 5752.37 5592.65 5656.47 5656.47 5478.41 5456.26 5333.59 5651.46 
5941.75 5866.26 6992.49 6992.49 7481.89 8037.09 7276.83 7252.65 6231.26 
6120.19 5245.27 4884.62 4629.38 4075.83 3791.05 3791.05 3491.33 3491.33 
3468.63 3630.75 3631.79 3844.37 3877.89 4018.3 5096.15 4956.4 5126.46 
5228.41 5073.64 5666.3 5123.48 4904.6 4799.19 5284.79 5439 5565.16 
5391.31 5115.33 5114.93 4947.22 4921.27 4910.99 5231.12 5319.43 5054.74 
5064.69 5221.06 5068.84 5244.62 5315.9 5315.9 5247.1 4975.89 4975.89 
5250.33 5361.27 5477.94 5771.04 5771.04 5415.64 5004.43 4890.46 4767.67 
4636.11 4596.85 4443.67 4350.12 4296 4398.52 4400.62 4466.06 4669.35 