# vtk DataFile Version 3.0
vtk output
ASCII
DATASET POLYDATA
POINTS 508 float
0.556547 1.15884 1.34374 0.235067 -0.94815 1.05022 1.31161 1.48624 1.04762 
1.07851 1.39053 0.812775 1.71112 1.45638 0.696154 2.67384 0.419994 0.43599 
2.71258 0.572625 0.404319 2.94361 0.251845 0.225574 0.186393 -1.47905 -0.784771 
5.91294 -0.182082 -0.199175 6.11038 0.00662036 -0.572253 5.97688 0.172445 -0.384233 
5.42921 0.735172 -0.443494 5.19876 -0.845485 -0.510888 -0.388381 -1.08813 -1.25522 
5.68592 -0.459809 -0.898714 5.35401 -0.142842 -0.681352 -0.562762 -0.559893 -1.46772 
5.53817 0.924506 -0.96278 1.50077 2.04829 -1.33577 6.31858 0.559976 -1.03629 
6.64092 -0.0264914 -0.906475 6.08073 0.658575 -0.964531 6.35562 -0.0698607 -1.34879 
4.67194 0.890483 -1.48169 3.02873 -0.389148 -1.5943 -0.116068 -0.31108 -2.00824 
6.65156 0.151598 -1.3045 6.13016 0.739489 -1.76328 6.37891 -0.44317 -1.48896 
2.97987 0.349521 -1.7853 2.09781 1.54595 -1.87396 6.47005 0.110535 -1.53125 
5.51541 0.978273 -1.63718 6.144 -0.688053 -1.66028 4.08508 0.586678 -1.83543 
2.72592 0.457712 -2.01814 5.93048 0.774953 -1.78885 2.49268 -0.115938 -2.26417 
2.45918 -0.267642 -2.27214 6.21175 0.301397 -2.2528 6.36624 -0.229696 -1.95651 
6.12781 -0.414448 -1.99235 6.03914 -0.0448669 -2.27795 5.35344 0.0324683 -2.68967 
5.39836 0.0635579 -2.683 5.43803 0.102998 -2.67683 5.46969 0.155159 -2.67143 
5.51038 0.192967 -2.66517 5.56274 0.213968 -2.66523 5.62709 0.219336 -2.67902 
5.69269 0.227847 -2.71499 5.76827 0.222035 -2.75745 5.84566 0.206312 -2.78495 
5.9083 0.181711 -2.76977 5.94255 0.142107 -2.7019 5.96917 0.0979286 -2.58431 
6.00664 0.0456648 -2.43558 6.29796 0.1717 -2.36722 6.36822 0.107863 -2.42028 
6.40563 0.0614656 -2.40361 6.41679 0.00683672 -2.34041 6.4006 -0.0640455 -2.24705 
6.37757 -0.144053 -2.11743 6.10822 0.128064 -2.26456 6.11406 -0.0914619 -2.14058 
6.15306 -0.138404 -2.0274 6.19032 -0.179076 -1.95915 6.2622 -0.206042 -1.93982 
6.32235 0.34154 -2.09844 6.38284 0.330572 -1.98713 6.4304 0.301421 -1.90893 
6.4584 0.25771 -1.82083 6.46996 0.196594 -1.69367 6.05424 0.727719 -1.86328 
5.98556 0.740836 -1.87206 6.11828 -0.483685 -1.96034 6.11886 -0.54621 -1.89695 
6.11887 -0.616043 -1.79395 6.37002 -0.157947 -1.65537 6.39128 -0.294012 -1.80771 
6.38541 -0.367195 -1.65325 6.19438 0.488645 -2.07455 6.17273 0.616627 -1.91107 
2.47593 -0.19179 -2.26815 2.56692 -0.133138 -2.24728 2.63819 -0.149051 -2.21581 
2.70026 -0.155487 -2.16291 2.7479 -0.140914 -2.10395 2.79393 -0.12737 -2.04523 
2.84433 -0.14126 -1.99406 2.87729 -0.179829 -1.93828 2.89988 -0.227307 -1.88408 
2.91417 -0.280216 -1.83111 2.92568 -0.334899 -1.77855 2.96958 -0.367559 -1.69878 
2.50942 -0.0400852 -2.26018 2.52623 0.0356741 -2.25619 2.54304 0.109724 -2.24476 
2.56327 0.174894 -2.21814 2.58969 0.225112 -2.16864 2.6134 0.278037 -2.11194 
2.64687 0.319566 -2.06171 2.68684 0.370601 -2.03281 6.00664 0.776913 -1.77126 
5.86394 0.793619 -1.86448 5.79653 0.812172 -1.93275 5.72782 0.831241 -1.97875 
5.66326 0.855645 -1.97925 5.61358 0.893135 -1.91768 5.56612 0.935617 -1.7959 
6.21867 0.774809 -1.67602 6.2778 0.79273 -1.58556 6.32192 0.777008 -1.4792 
6.33637 0.728779 -1.35884 6.32438 0.652969 -1.20898 2.72829 0.559672 -1.94071 
2.72412 0.637604 -1.86469 2.70602 0.696853 -1.79844 2.68716 0.751854 -1.76976 
2.64369 0.789275 -1.77463 2.59892 0.82452 -1.80214 2.54581 0.85489 -1.8234 
2.49739 0.888703 -1.83648 2.44225 0.918671 -1.84307 2.39296 0.952371 -1.8488 
2.33943 0.98337 -1.85516 2.3001 1.02343 -1.85942 2.26923 1.06889 -1.86244 
2.23987 1.11532 -1.86524 2.21052 1.16175 -1.86803 2.17955 1.20715 -1.87107 
2.13879 1.24629 -1.87554 2.07868 1.27296 -1.88286 2.02951 1.30445 -1.88863 
2.02932 1.35537 -1.88746 2.05706 1.40615 -1.88261 2.07997 1.47182 -1.87805 
2.80627 0.434255 -1.9109 2.87741 0.41307 -1.83473 2.93814 0.38765 -1.7974 
4.1437 0.618273 -1.92411 4.19748 0.649011 -1.97607 4.24446 0.678547 -1.97664 
4.28659 0.707226 -1.9405 4.3278 0.735641 -1.89703 4.37096 0.762688 -1.86079 
4.41845 0.781121 -1.81671 4.4711 0.786233 -1.74984 4.5135 0.803755 -1.6666 
4.55298 0.830031 -1.591 4.60244 0.859139 -1.53147 6.0649 -0.725416 -1.51216 
5.97975 -0.728431 -1.38896 5.90176 -0.709646 -1.29384 5.83652 -0.673722 -1.19557 
5.76087 -0.606364 -1.06627 6.21824 -0.653948 -1.65464 6.26682 -0.613611 -1.63732 
6.29678 -0.559968 -1.6047 6.33319 -0.508859 -1.55135 5.52271 0.991531 -1.42165 
5.52134 0.976728 -1.19797 5.44128 0.993577 -1.64663 5.37441 0.999072 -1.66282 
5.32383 0.982114 -1.69232 5.28056 0.956962 -1.736 5.23203 0.938451 -1.77274 
5.17156 0.932059 -1.78089 5.1143 0.913722 -1.75899 5.05601 0.895299 -1.72975 
4.99154 0.890117 -1.71598 4.92947 0.882187 -1.70692 4.85523 0.887281 -1.67677 
4.76793 0.894342 -1.59846 6.42251 0.0148379 -1.4426 6.54724 0.13023 -1.48321 
6.60922 0.136014 -1.40762 6.35789 -0.408493 -1.26173 6.34886 -0.350188 -1.09714 
6.34671 -0.284054 -1.03111 6.34414 -0.221805 -1.06986 6.35407 -0.149262 -1.18643 
6.0844 0.692921 -1.35935 6.65559 0.225161 -1.20508 6.6619 0.298381 -1.13528 
6.663 0.366035 -1.10366 6.64177 0.418544 -1.09028 6.6 0.458321 -1.07619 
6.5304 0.483889 -1.0549 6.43843 0.512439 -1.04024 6.66155 0.100875 -1.16983 
6.66174 0.0439002 -1.0366 -0.0489224 -0.293016 -2.0961 0.0335331 -0.295851 -2.19737 
0.123189 -0.308412 -2.3054 0.212844 -0.320973 -2.41341 0.29433 -0.323979 -2.50735 
0.361415 -0.305823 -2.59521 0.424564 -0.286551 -2.66116 0.491827 -0.278958 -2.7044 
0.54709 -0.259153 -2.71905 0.595097 -0.231248 -2.71953 0.641165 -0.201976 -2.71275 
0.687175 -0.172611 -2.70599 0.734097 -0.142981 -2.70657 0.781078 -0.111735 -2.71457 
0.824685 -0.0734111 -2.73033 0.863605 -0.0310696 -2.73167 0.917675 -0.0145093 -2.72413 
0.968081 0.00615554 -2.70951 1.01803 0.0326859 -2.71724 1.07341 0.0523047 -2.73188 
1.13976 0.0579227 -2.76035 1.20343 0.066091 -2.78164 1.27609 0.0597646 -2.80207 
1.35066 0.043586 -2.80754 1.41678 0.0203054 -2.80682 1.4677 -0.0123589 -2.80085 
1.52131 -0.0433043 -2.79448 1.56054 -0.0834273 -2.79023 1.58971 -0.129973 -2.78746 
1.60738 -0.183855 -2.78639 1.60231 -0.252254 -2.78865 1.58727 -0.327017 -2.79239 
1.56958 -0.40289 -2.78902 1.54884 -0.477532 -2.77109 1.51884 -0.542614 -2.73174 
1.47352 -0.585073 -2.6864 1.4238 -0.618822 -2.64892 1.38128 -0.65887 -2.63306 
1.34871 -0.711295 -2.63111 1.30904 -0.750736 -2.63728 1.26308 -0.781903 -2.63661 
1.21519 -0.811705 -2.62869 1.16536 -0.841849 -2.60609 1.11649 -0.873531 -2.58339 
1.07197 -0.913829 -2.55285 1.03546 -0.966847 -2.52154 0.98797 -1.00586 -2.47641 
0.928881 -1.02815 -2.42496 0.860705 -1.03601 -2.37436 0.801499 -1.05469 -2.33779 
0.744291 -1.07312 -2.31588 0.680913 -1.08174 -2.29457 0.627077 -1.11067 -2.25005 
0.578394 -1.15292 -2.18273 0.512567 -1.17136 -2.10218 0.449591 -1.19262 -2.02878 
0.387588 -1.21371 -1.96274 0.323701 -1.23181 -1.89687 0.273077 -1.27441 -1.81487 
0.210565 -1.30497 -1.70427 0.132892 -1.3181 -1.56537 0.0674961 -1.35207 -1.40291 
0.0342665 -1.40963 -1.24422 0.0438849 -1.45575 -1.10949 0.0857826 -1.47365 -0.999741 
0.132176 -1.47118 -0.896385 4.67148 0.963425 -1.24338 4.69113 0.993402 -1.03828 
4.72699 0.98061 -0.871902 4.75972 0.946833 -0.73633 4.80131 0.914615 -0.626944 
4.84196 0.87943 -0.555133 4.89428 0.849007 -0.526497 4.94723 0.816739 -0.535205 
5.01826 0.794223 -0.571179 5.09865 0.777363 -0.61327 5.17862 0.762843 -0.647874 
5.24949 0.756139 -0.653614 5.30745 0.761391 -0.623401 5.36764 0.7528 -0.548385 
6.23925 -0.0253369 -0.95955 5.54845 -0.511138 -0.91275 5.45492 -0.531842 -0.891435 
5.39573 -0.564613 -0.831688 5.35396 -0.618806 -0.761603 5.3119 -0.671583 -0.693662 
5.27893 -0.737088 -0.632283 5.24505 -0.801137 -0.571001 5.62535 0.920335 -0.879109 
5.68858 0.925841 -0.810829 5.75245 0.917744 -0.752751 5.82159 0.900606 -0.716607 
5.8848 0.87681 -0.693853 5.93766 0.844489 -0.702573 5.99506 0.814172 -0.725588 
6.04044 0.77439 -0.780299 6.07041 0.723425 -0.859749 6.12756 0.620275 -0.97792 
6.20692 0.591442 -1.00173 6.31424 0.448854 -0.796556 6.29578 0.36371 -0.595458 
6.28448 0.29726 -0.449025 6.26563 0.225643 -0.359759 6.24349 0.151489 -0.319581 
6.21926 0.0873261 -0.339235 6.17731 0.0445446 -0.427992 1.46235 2.02229 -1.40873 
1.41677 2.00616 -1.47492 1.3554 2.01337 -1.52023 1.29118 2.03513 -1.52821 
1.2328 2.06559 -1.49038 1.1578 2.08736 -1.42504 1.07158 2.10319 -1.33891 
0.984871 2.11642 -1.25291 0.904411 2.11951 -1.16632 0.84121 2.10032 -1.10038 
0.786347 2.07303 -1.05595 0.732 2.05177 -1.04121 0.675933 2.03667 -1.0415 
0.631636 2.00458 -1.04811 0.57654 1.98965 -1.05574 0.524186 1.96865 -1.05568 
0.474297 1.94031 -1.04052 0.422406 1.91001 -1.00325 0.370572 1.87961 -0.965959 
0.321651 1.84974 -0.950706 0.277582 1.82071 -0.972153 0.234485 1.79186 -1.00095 
0.189445 1.76267 -1.01506 0.141554 1.73287 -1.00714 0.0946291 1.70153 -0.999125 
0.0520498 1.66157 -0.983268 0.0155938 1.60846 -0.951957 -0.0328087 1.56748 -0.892055 
-0.0874396 1.53467 -0.8253 -0.142128 1.50196 -0.75856 -0.19247 1.46235 -0.691406 
-0.24007 1.41666 -0.616545 -0.299439 1.38796 -0.535387 -0.34601 1.34235 -0.467865 
-0.393331 1.30136 -0.415287 -0.436758 1.25761 -0.377212 -0.467674 1.19227 -0.330511 
-0.492303 1.11694 -0.283202 -0.514934 1.04015 -0.243149 -0.534652 0.963878 -0.225118 
-0.553399 0.889485 -0.221858 -0.575577 0.823973 -0.233797 -0.605819 0.772983 -0.253929 
-0.631427 0.71806 -0.288494 -0.660812 0.669138 -0.323418 -0.687447 0.615846 -0.35808 
-0.725 0.57476 -0.371481 -0.764493 0.531613 -0.362757 -0.792497 0.466789 -0.338079 
-0.812272 0.392318 -0.32749 -0.827047 0.31696 -0.346147 -0.839176 0.242712 -0.371914 
-0.845218 0.174141 -0.366838 -0.834429 0.119 -0.314385 -0.817643 0.0694777 -0.231112 
-0.799888 0.0201273 -0.155173 -0.789016 -0.0349607 -0.102707 -0.796254 -0.102951 -0.0753567 
-0.803492 -0.170942 -0.0480065 -0.791649 -0.225858 -0.00288479 -0.77089 -0.274635 0.0510453 
-0.748515 -0.322382 0.105203 -0.725078 -0.369898 0.15203 -0.702519 -0.417527 0.206215 
-0.679409 -0.464356 0.267968 -0.64882 -0.505965 0.338309 -0.603944 -0.538453 0.410751 
-0.561852 -0.57272 0.482773 -0.506995 -0.598839 0.556683 -0.453025 -0.625076 0.63794 
-0.41117 -0.658598 0.724912 -0.357609 -0.6842 0.821072 -0.295367 -0.705158 0.903556 
-0.23769 -0.730821 0.95542 -0.196751 -0.769855 0.959921 -0.16084 -0.814337 0.926267 
-0.122985 -0.858475 0.877915 -0.0762233 -0.89648 0.838371 -0.0106891 -0.920712 0.831516 
0.0608741 -0.939174 0.855499 0.129144 -0.95566 0.908978 0.189276 -0.962439 0.976561 
5.57206 -0.348973 -0.808686 5.49062 -0.292063 -0.75593 5.44232 -0.248062 -0.734056 
5.3969 -0.198727 -0.71996 5.47854 0.865829 -0.742835 5.45255 0.805774 -0.56831 
-0.576477 -0.629777 -1.4039 -0.574933 -0.69037 -1.34532 -0.565867 -0.747059 -1.30061 
-0.526936 -0.786031 -1.27395 -0.490289 -0.827356 -1.2626 -0.459506 -0.872872 -1.25959 
-0.430245 -0.919359 -1.25681 -0.402691 -0.966936 -1.25428 -0.385025 -1.02082 -1.2532 
5.37928 -0.0924728 -0.615166 5.42136 -0.0589488 -0.535951 5.46528 -0.0429524 -0.45877 
5.51427 -0.0561673 -0.383467 5.55707 -0.0875669 -0.311285 5.61454 -0.112333 -0.244473 
5.68237 -0.131515 -0.191105 5.75561 -0.149039 -0.166889 5.83282 -0.165818 -0.172016 
5.81217 -0.396229 -0.725721 5.87474 -0.35493 -0.577689 5.90291 -0.314566 -0.452369 
5.91155 -0.253201 -0.32808 6.03806 -0.0912784 -0.419679 5.97282 -0.146751 -0.295064 
6.05227 0.118176 -0.472699 6.01442 0.093574 -0.485744 5.47014 0.696139 -0.438993 
5.52377 0.665199 -0.432627 5.57297 0.63144 -0.42691 5.6265 0.600441 -0.420558 
5.66582 0.560377 -0.416295 5.6967 0.51492 -0.413275 5.72614 0.46855 -0.410465 
5.75702 0.423093 -0.407446 5.79626 0.382976 -0.403195 5.84807 0.350883 -0.397095 
5.88578 0.309788 -0.393069 5.90839 0.259056 -0.391265 5.92659 0.20551 -0.39011 
2.71369 0.508885 0.414932 2.90842 0.296557 0.253355 2.8598 0.336149 0.298673 
2.77932 0.370758 0.362084 2.72865 0.642218 0.310905 2.72618 0.699537 0.207288 
2.72123 0.755713 0.110781 2.72344 0.818255 0.0452766 2.70803 0.871793 0.0145945 
2.68039 0.919311 0.0120496 2.64734 0.965171 0.0386474 2.60925 1.01006 0.101919 
2.56575 1.05328 0.194342 2.51381 1.09112 0.285523 2.45155 1.12057 0.345237 
2.39837 1.15359 0.368874 2.34226 1.18338 0.369628 2.29199 1.21691 0.371243 
2.23546 1.24734 0.386898 2.18763 1.28511 0.433774 2.13546 1.32145 0.502469 
2.06184 1.34501 0.582965 1.99016 1.3689 0.648791 1.94087 1.40561 0.695447 
1.89633 1.4414 0.712814 1.83802 1.45568 0.712916 1.77892 1.45091 0.704991 
2.68 0.515764 0.425592 2.5628 0.364083 0.669633 2.4788 0.322653 0.860847 
2.41244 0.288905 0.994782 2.35386 0.257379 1.08197 2.29712 0.22793 1.14852 
2.23506 0.206925 1.21456 2.16397 0.198562 1.28718 2.10088 0.177478 1.36056 
2.04602 0.150175 1.40499 1.99167 0.130643 1.41229 1.93223 0.12433 1.39681 
1.87891 0.104868 1.39678 1.82793 0.0765415 1.41927 1.77592 0.0481357 1.4491 
1.7186 0.029884 1.47099 1.64688 0.0345208 1.49152 1.56696 0.0489484 1.52613 
1.48657 0.0658073 1.56822 1.41551 0.0881715 1.60418 1.361 0.117601 1.62008 
1.30108 0.130846 1.61995 1.24183 0.12611 1.612 1.17305 0.133123 1.60308 
1.09983 0.146983 1.59372 1.03005 0.153672 1.59213 0.967302 0.14576 1.60606 
0.898951 0.14161 1.64177 0.833346 0.13138 1.68518 0.765086 0.127289 1.7209 
0.703953 0.120407 1.73508 0.644083 0.133554 1.73495 0.593548 0.163728 1.72149 
0.532934 0.188731 1.69164 0.476871 0.215424 1.64002 0.444434 0.256748 1.58437 
0.429262 0.30954 1.53876 0.425474 0.370941 1.51727 0.407156 0.423964 1.50861 
0.379601 0.471541 1.50608 0.352047 0.519117 1.50355 0.33285 0.572027 1.50225 
0.328912 0.634228 1.4957 0.324221 0.695053 1.47409 0.3377 0.765683 1.4252 
0.362541 0.84222 1.35553 0.389933 0.919808 1.27875 0.414561 0.995136 1.23145 
0.439707 1.05936 1.2288 0.474407 1.09984 1.26423 0.514478 1.13007 1.30761 
1.11687 1.41663 0.885724 1.16146 1.43455 0.951829 1.21605 1.44 1.00401 
1.26549 1.45877 1.03341 
LINES 51 617
15 44 45 46 47 48 49 50 51 52 53 54 55 56 57 43 
8 40 58 59 60 61 62 63 41 
3 43 64 40 
6 43 65 66 67 68 41 
7 40 69 70 71 72 73 32 
4 28 74 75 37 
5 42 76 77 78 34 
3 41 79 23 
4 41 80 81 29 
4 40 82 83 28 
3 39 84 38 
13 38 85 86 87 88 89 90 91 92 93 94 95 25 
10 38 96 97 98 99 100 101 102 103 36 
3 37 104 28 
8 37 105 106 107 108 109 110 33 
7 28 111 112 113 114 115 20 
24 36 116 117 118 119 120 121 122 123 124 125 126 127 128 129 130 131 132 133 134 135 136 137 31 
5 36 138 139 140 30 
13 35 141 142 143 144 145 146 147 148 149 150 151 24 
7 34 152 153 154 155 156 15 
6 34 157 158 159 160 29 
4 33 161 162 18 
14 33 163 164 165 166 167 168 169 170 171 172 173 174 24 
3 32 175 23 
4 32 176 177 27 
7 29 178 179 180 181 182 23 
3 28 183 22 
9 27 184 185 186 187 188 189 190 20 
4 27 191 192 21 
68 26 193 194 195 196 197 198 199 200 201 202 203 204 205 206 207 208 209 210 211 212 213 214 215 216 217 218 219 220 221 222 223 224 225 226 227 228 229 230 231 232 233 234 235 236 237 238 239 240 241 242 243 244 245 246 247 248 249 250 251 252 253 254 255 256 257 258 8 
16 24 259 260 261 262 263 264 265 266 267 268 269 270 271 272 12 
3 23 273 10 
9 15 274 275 276 277 278 279 280 13 
11 18 281 282 283 284 285 286 287 288 289 22 
4 22 290 291 20 
9 20 292 293 294 295 296 297 298 10 
84 19 299 300 301 302 303 304 305 306 307 308 309 310 311 312 313 314 315 316 317 318 319 320 321 322 323 324 325 326 327 328 329 330 331 332 333 334 335 336 337 338 339 340 341 342 343 344 345 346 347 348 349 350 351 352 353 354 355 356 357 358 359 360 361 362 363 364 365 366 367 368 369 370 371 372 373 374 375 376 377 378 379 380 1 
4 18 385 386 12 
11 17 387 388 389 390 391 392 393 394 395 14 
6 15 405 406 407 408 9 
4 10 409 410 9 
3 10 411 11 
3 10 412 11 
15 12 413 414 415 416 417 418 419 420 421 422 423 424 425 11 
3 5 426 6 
5 7 427 428 429 5 
25 6 430 431 432 433 434 435 436 437 438 439 440 441 442 443 444 445 446 447 448 449 450 451 452 4 
3 6 453 5 
52 5 454 455 456 457 458 459 460 461 462 463 464 465 466 467 468 469 470 471 472 473 474 475 476 477 478 479 480 481 482 483 484 485 486 487 488 489 490 491 492 493 494 495 496 497 498 499 500 501 502 503 0 
6 3 504 505 506 507 2 
16 15 381 382 383 384 16 396 397 398 399 400 401 402 403 404 9 

POINT_DATA 508
SCALARS DY_raw double
LOOKUP_TABLE default
641.072 477.754 524.258 320.041 361.887 324.671 483.403 469.098 1016.03 
648.807 550.93 580.216 580.097 718.918 390.453 595.378 487.063 431.311 
525.599 485.032 664.947 984.065 656.063 668.783 521.632 834.122 351.54 
683.332 577.357 611.763 639.474 655.104 594.936 524.237 447.337 454.62 
423.832 493.789 492.217 435.435 521.685 548.061 493.233 507.307 778.482 
691.646 700.689 707.152 707.152 724.032 699.61 678.343 645.538 578.117 
526.626 499.079 465.116 451.806 529.396 521.493 523.678 518.752 506.489 
537.619 566.764 568.349 564.365 534.957 530.685 605.101 626.464 606.151 
579.682 553.319 521.321 474.226 483.302 433.042 433.107 613.545 576.766 
635.096 490.169 570.936 475.529 492.217 592.35 649.799 603.752 576.753 
602.198 643.814 642.762 668.433 638.322 744.078 453.341 497.888 474.749 
488.057 450.892 472.113 414.014 432.07 514.713 403.088 360.196 326.232 
322.756 385.892 460.773 558.312 578.22 608.077 650.208 682.325 453.64 
552.488 645.976 629.486 622.652 552.292 549.649 485.696 485.696 460.764 
486.036 486.036 534.526 501.384 501.384 511.723 499.434 499.434 436.744 
456.51 520.14 586.161 505.765 562.961 560.241 428.814 404.465 407.483 
391.208 476.728 484.714 484.714 480.84 466.089 511.619 508.617 488.923 
482.075 488.69 516.376 571.462 507 549.061 573.383 568.528 608.239 
560.179 449.599 412.176 386.173 381.38 371.493 371.493 411.894 411.894 
453.982 412.456 415.642 456.095 639.611 685.877 730.749 591.885 561.237 
600.657 665.989 654.94 677.132 660.55 600.996 630.181 640.94 717.138 
708.976 708.718 726.065 835.824 352.253 403.313 348.943 320.315 341.561 
334.554 341.541 350.992 407.809 436.129 484.457 488.382 422.957 422.957 
433.571 412.315 405.985 405.985 407.64 384.676 361.846 370.156 340.486 
325.523 341.673 367.439 393.703 393.703 424.09 503.386 435.945 422.477 
451.296 393.731 440.887 437.485 448.362 426.725 463.745 456.158 422.052 
424.435 460.715 387.176 389.073 389.073 391.887 376.061 424.718 424.718 
395.066 387.252 429.052 501.112 446.362 469.141 479.987 451.25 430.989 
492.308 502.996 509.101 519.485 584.657 808.508 937.995 546.278 622.694 
764.405 755.358 716.022 654.858 654.858 613.771 576.35 549.259 554.537 
507.035 531.187 553.49 615.577 547.636 562.511 571.097 564.121 652.26 
574.956 580.39 574.149 582.366 570.356 577.211 561.351 609.559 570.111 
616.431 640.263 658.558 662.552 731.335 732.747 797.435 785.712 788.528 
796.749 681.84 406.468 381.939 303.799 268.556 295.263 319.258 335.598 
329.746 331.831 329.371 313.015 335.043 357.212 404.6 404.6 458.529 
456.009 430.564 437.655 414.57 414.57 366.171 349.027 342.825 326.467 
326.467 322.168 314.003 350.567 367.531 304.565 320.315 342.125 344.24 
295.487 294.476 336.589 384.204 396.638 408.953 406.922 418.282 417.399 
417.399 377.385 342.26 359.874 343.066 363.187 393.726 439.633 419.397 
421.954 434.138 387.945 410.021 390.263 397.82 338.44 344.964 337.454 
354.044 346.053 346.053 359.814 331.811 344.325 357.18 357.79 404.653 
351.574 364.475 386.401 382.723 399.743 375.531 403.911 403.911 377.471 
390.852 409.881 438.432 542.042 553.487 522.476 488.857 530.406 526.945 
421.936 395.419 413.188 447.015 436.011 433.244 433.244 413.961 419.015 
525.549 566.233 609.442 649.618 650.314 628.179 590.508 606.661 568.447 
577.311 594.314 615.041 597.443 644.029 631.795 570.001 533.89 581.476 
576.478 601.315 601.315 602.055 594.847 606.538 550.209 550.209 547.661 
564.593 564.593 575.481 426.397 412.333 430.113 403.945 442.548 418.803 
407.805 356.106 334.347 289.855 308.221 308.578 314.066 354.562 374.556 
332.692 356.733 334.568 344.616 344.541 375.001 388.831 415.233 422.487 
413.627 394.515 360.615 346.948 325.108 319.246 359.067 374.568 398.002 
403.221 419.144 431.854 358.939 360.03 342.374 333.854 310.524 318.961 
299.931 338.2 366.854 387.303 390.222 400.938 402.909 419.186 409.142 
399.891 348.783 325.434 314.788 324.927 341.835 347.25 383.312 384.024 
411.042 453.032 425.756 446.318 470.135 470.135 462.399 462.399 410.733 
402.917 412.433 394.637 362.075 384.473 350.744 432.083 432.083 533.267 
353.025 392.621 411.588 434.968 
FIELD FieldData 7
DY_minmax 1 508 double
0.498369 0.279875 0.34209 0.0688785 0.124862 0.0750735 0.287432 0.268294 1 
0.508717 0.377773 0.416952 0.416793 0.602515 0.163079 0.437237 0.292328 0.217741 
0.343883 0.289612 0.530309 0.95724 0.518425 0.535441 0.338576 0.756639 0.11102 
0.554906 0.413128 0.459158 0.496231 0.517141 0.436645 0.342061 0.239181 0.248925 
0.207736 0.301327 0.299223 0.223259 0.338648 0.373934 0.300583 0.319412 0.682202 
0.566029 0.578127 0.586773 0.586773 0.609356 0.576683 0.548231 0.504343 0.414144 
0.345258 0.308404 0.262966 0.24516 0.348963 0.33839 0.341314 0.334723 0.318317 
0.359965 0.398956 0.401077 0.395747 0.356404 0.350687 0.450245 0.478825 0.451649 
0.416238 0.380969 0.338161 0.275154 0.287297 0.220057 0.220144 0.461541 0.412337 
0.490373 0.296483 0.404538 0.276898 0.299223 0.433186 0.510044 0.44844 0.41232 
0.446362 0.502037 0.50063 0.534974 0.49469 0.636175 0.247214 0.306811 0.275855 
0.293658 0.243937 0.272327 0.1946 0.218757 0.32932 0.179983 0.1226 0.0771621 
0.072511 0.156978 0.257156 0.387648 0.414282 0.454226 0.510591 0.553558 0.247614 
0.379857 0.50493 0.482868 0.473725 0.379595 0.376059 0.290499 0.290499 0.257145 
0.290955 0.290955 0.355826 0.311488 0.311488 0.32532 0.308879 0.308879 0.22501 
0.251453 0.33658 0.424906 0.317348 0.393868 0.390229 0.2144 0.181826 0.185863 
0.164089 0.278501 0.289186 0.289186 0.284004 0.264269 0.32518 0.321165 0.294816 
0.285655 0.294505 0.331545 0.405241 0.319001 0.375271 0.407811 0.401316 0.454443 
0.390146 0.242208 0.192141 0.157353 0.150942 0.137714 0.137714 0.191763 0.191763 
0.248072 0.192516 0.196778 0.250899 0.496414 0.558311 0.618343 0.432564 0.391561 
0.4443 0.531703 0.516922 0.546611 0.524427 0.444752 0.483798 0.498192 0.600133 
0.589214 0.588869 0.612075 0.758916 0.111974 0.180284 0.107545 0.0692459 0.0976698 
0.0882957 0.0976428 0.110286 0.186299 0.224186 0.288842 0.294094 0.206564 0.206564 
0.220764 0.192327 0.183859 0.183859 0.186073 0.15535 0.124807 0.135925 0.0962305 
0.0762125 0.0978194 0.13229 0.167427 0.167427 0.20808 0.314167 0.22394 0.205922 
0.244477 0.167465 0.230552 0.226 0.240553 0.211605 0.261133 0.250982 0.205353 
0.208542 0.257079 0.158695 0.161233 0.161233 0.164998 0.143825 0.208921 0.208921 
0.169251 0.158797 0.214719 0.311124 0.237877 0.268352 0.282862 0.244416 0.21731 
0.299346 0.313644 0.321812 0.335704 0.422894 0.722371 0.895605 0.371549 0.473782 
0.663369 0.651266 0.59864 0.516812 0.516812 0.461844 0.41178 0.375537 0.382598 
0.319048 0.35136 0.381197 0.464261 0.373366 0.393266 0.404753 0.39542 0.513336 
0.409916 0.417186 0.408836 0.419829 0.403762 0.412932 0.391714 0.456209 0.403433 
0.465402 0.497286 0.521762 0.527105 0.619126 0.621015 0.707558 0.691874 0.695641 
0.706641 0.55291 0.184505 0.151689 0.0471502 0 0.0357297 0.0678311 0.0896917 
0.0818634 0.0846522 0.0813605 0.0594791 0.0889493 0.118607 0.182006 0.182006 0.254155 
0.250783 0.216742 0.226228 0.195344 0.195344 0.130594 0.107657 0.0993608 0.0774765 
0.0774765 0.0717243 0.0608009 0.109718 0.132414 0.048175 0.069245 0.0984238 0.101254 
0.0360296 0.0346768 0.0910179 0.154719 0.171354 0.18783 0.185112 0.20031 0.199129 
0.199129 0.145596 0.0986045 0.122169 0.0996827 0.126602 0.167458 0.228875 0.201802 
0.205222 0.221523 0.159723 0.189258 0.162826 0.172935 0.0934942 0.102222 0.0921748 
0.114369 0.103679 0.103679 0.12209 0.084626 0.101368 0.118565 0.119382 0.182076 
0.111065 0.128325 0.157658 0.152738 0.175508 0.143116 0.181084 0.181084 0.145711 
0.163612 0.189071 0.227267 0.365882 0.381194 0.339706 0.294728 0.350315 0.345684 
0.205198 0.169723 0.193495 0.23875 0.224029 0.220327 0.220327 0.194529 0.201291 
0.343817 0.398245 0.456053 0.509801 0.510733 0.481119 0.430722 0.452331 0.401207 
0.413066 0.435814 0.463543 0.44 0.502325 0.485957 0.403286 0.354975 0.418639 
0.411952 0.44518 0.44518 0.44617 0.436526 0.452168 0.376808 0.376808 0.373398 
0.396052 0.396052 0.410618 0.211167 0.192351 0.216139 0.18113 0.232774 0.201007 
0.186294 0.117128 0.0880185 0.0284949 0.0530649 0.0535428 0.0608859 0.115063 0.141811 
0.0858045 0.117968 0.0883139 0.101756 0.101657 0.142406 0.160909 0.196232 0.205935 
0.194082 0.168513 0.123161 0.104876 0.0756572 0.0678158 0.121089 0.141827 0.173179 
0.180161 0.201463 0.218467 0.120919 0.122378 0.0987576 0.0873591 0.0561468 0.0674336 
0.0419748 0.0931733 0.131508 0.158865 0.16277 0.177107 0.179743 0.201519 0.188082 
0.175705 0.107331 0.0760943 0.0618515 0.0754163 0.0980365 0.10528 0.153526 0.154478 
0.190625 0.2468 0.210309 0.237817 0.269681 0.269681 0.259332 0.259332 0.19021 
0.179754 0.192485 0.168677 0.125114 0.155078 0.109954 0.218774 0.218774 0.354142 
0.113007 0.165979 0.191355 0.222634 
WidthEq 1 508 double
1.72515 2.86287 2.47233 2.61091 3.60612 4.94404 4.74951 3.44554 1 
4.25037 6.23523 5.04086 5.45762 2.92577 2.81731 4.47787 4.71836 3.09957 
5.63252 3.77914 5.33872 2.97959 6.17856 6.31773 4.53895 2.05763 5.05383 
3.35728 6.73772 5.46919 2.74717 1.98644 6.30461 5.11831 5.27296 1.55296 
4.5726 7.06344 3.51989 2.24937 6.21591 6.51533 5.2366 6.67731 2.02021 
2.26224 2.78879 2.91664 2.91664 2.88416 2.93653 2.94383 2.90557 3.24441 
3.83169 4.30857 5.56478 6.79932 5.48984 4.91811 4.58774 4.14741 4.76324 
5.33524 6.79124 6.61679 6.57749 6.9933 6.91372 5.26999 4.86963 5.04702 
5.39606 5.89235 6.76388 7.00071 5.09124 4.74404 4.90289 6.72589 6.74256 
5.82864 7.59122 7.3196 3.2256 3.51989 3.30743 2.91199 3.01469 3.34017 
3.20087 2.89381 2.74803 2.78543 2.37068 2.08923 3.54763 3.93965 3.89192 
3.79582 4.08792 4.11547 4.45692 4.53562 6.60068 7.49903 7.57159 7.49406 
6.29772 5.6299 5.49331 6.63985 6.17408 5.43764 5.17948 5.05658 4.08219 
3.19346 2.71768 2.85002 3.35287 3.64806 3.90943 4.2486 4.2486 4.12167 
4.20503 4.20503 4.17478 4.36603 4.36603 4.59983 4.74706 4.74706 4.81471 
4.78565 4.13644 3.07918 4.3219 3.94419 3.63577 2.35269 2.31809 2.60987 
2.77501 2.74233 3.24644 3.24644 3.56729 4.32711 4.29225 4.55078 5.36696 
5.40214 5.31177 4.89265 4.52094 4.86542 4.67904 4.69258 5.61517 5.05127 
5.07977 6.02191 6.0752 6.20207 5.32014 4.68751 4.68751 3.44132 3.44132 
3.00482 3.18455 3.74921 4.0104 6.4297 5.43318 4.77325 6.20662 6.72345 
6.29523 5.85413 6.27425 6.42838 4.03383 4.07871 3.50543 3.52903 3.42644 
3.9219 4.43908 4.26123 3.09592 5.52045 5.27163 5.25874 5.60356 4.91677 
4.02642 3.82773 3.49258 2.97687 2.93986 2.62109 2.7581 3.53565 3.53565 
3.74612 4.17047 4.31298 4.31298 4.42615 4.69309 4.70981 4.78751 4.75438 
4.66443 4.49674 4.37544 4.07789 4.07789 3.93928 3.76565 4.01085 4.19224 
4.19997 4.62546 4.39538 4.32835 3.86145 3.826 3.56311 3.52627 3.54423 
3.19855 3.05707 3.39325 3.50846 3.50846 3.58138 3.85623 3.70475 3.70475 
4.0114 3.91036 3.76007 3.42901 3.60982 3.40982 3.58865 3.74267 3.95622 
3.79278 3.97393 4.26154 4.27704 3.89419 2.42032 1.54788 4.42708 3.98364 
3.14741 2.83582 2.77153 2.82313 2.82313 3.19169 3.79089 4.157 4.35334 
5.02795 5.63296 5.40208 5.98704 4.12359 3.94022 3.7828 3.96735 3.70166 
4.24896 3.84754 5.29418 5.06429 4.8999 4.66025 4.51695 4.584 4.96803 
5.50483 5.88487 6.22352 5.85656 4.73217 4.70997 4.62089 4.79062 4.89894 
5.04859 5.72299 5.20621 5.52449 6.41264 6.61332 6.07349 5.28002 4.76399 
4.59707 4.68352 4.38126 3.33121 3.22235 2.72082 1.98744 1.98744 1.8076 
1.97287 2.06154 2.62265 3.02122 3.02122 3.67573 3.84821 4.17527 4.40757 
4.40757 4.52288 4.59883 4.20854 3.9913 4.24781 4.31484 4.19708 4.25588 
4.65965 4.75583 4.37705 4.35794 4.47687 4.39817 4.52654 4.53165 4.57981 
4.57981 4.91317 5.28232 4.85697 5.22275 5.18151 4.78707 4.31284 4.35279 
4.0216 3.39961 3.2835 3.22429 2.96425 2.9634 3.15878 3.35228 3.69999 
3.69194 3.92014 3.92014 4.011 3.99358 3.98364 4.00582 3.63894 3.80728 
4.14339 4.1333 3.9534 3.82432 3.61116 3.75715 3.42852 3.42852 3.49157 
3.45954 3.46076 3.29179 4.58015 4.59784 4.63169 4.78252 5.75102 6.04871 
3.21811 3.39267 3.61663 3.46493 3.54163 3.45119 3.45119 3.28284 3.05084 
4.61939 4.40539 4.15146 3.91724 3.68941 3.39027 3.85186 3.93267 4.37843 
4.57077 4.6759 4.53526 4.74367 5.58904 5.17951 5.66786 5.55039 5.62268 
5.38197 4.71572 4.71572 4.21807 4.09697 4.40545 4.54383 4.54383 4.52227 
4.49006 4.49006 4.58583 4.88208 4.0734 4.33048 4.46832 5.19098 5.39387 
6.45459 7.31316 7.54281 8.05067 7.90754 7.57248 6.37218 5.90163 5.17041 
4.53021 4.34046 4.00429 3.98463 3.76839 3.93972 4.19521 4.10828 4.2241 
4.30699 4.29821 3.9915 5.22631 5.11904 4.79494 4.151 3.96926 3.86444 
3.79374 3.66172 3.57583 3.61904 3.44226 3.58428 3.36116 3.46768 3.41728 
3.28478 3.06664 2.75822 2.53362 2.50526 2.62426 2.76767 2.87614 2.9083 
2.90661 3.11511 3.25355 3.11002 3.14248 3.0203 3.0247 2.81334 2.70441 
2.58931 2.53776 2.52238 2.58069 2.63698 2.63698 2.79035 2.79035 3.18443 
3.22691 3.15551 3.23063 3.29693 3.13699 3.2957 3.00955 3.00955 2.56989 
2.65541 3.18808 3.1427 3.14268 
rRFP 1 508 double
3341.35 4063.06 3815.32 3903.23 4534.54 5383.25 5259.85 4432.68 2881.35 
4943.22 6202.32 5444.67 5709.04 4102.96 4034.16 5087.54 5240.09 4213.21 
5819.99 4644.3 5633.62 4137.1 6166.37 6254.65 5126.28 3552.26 5452.9 
4376.69 6521.07 5716.38 3989.67 3507.1 6246.33 5493.8 5591.9 3232.12 
5147.63 6727.69 4479.84 3673.89 6190.06 6380 5568.84 6482.75 3528.52 
3682.05 4016.07 4097.17 4097.17 4076.57 4109.79 4114.42 4090.15 4305.09 
4677.63 4980.14 5777.02 6560.15 5729.48 5366.8 5157.23 4877.91 5268.56 
5631.41 6555.02 6444.36 6419.43 6683.2 6632.72 5590.02 5336.05 5448.58 
5669.99 5984.81 6537.67 6687.9 5476.63 5256.38 5357.15 6513.57 6524.14 
5944.4 7062.49 6890.19 4293.16 4479.84 4345.07 4094.22 4159.37 4365.84 
4277.47 4082.69 3990.21 4013.94 3750.84 3572.3 4497.44 4746.12 4715.84 
4654.88 4840.17 4857.65 5074.25 5124.17 6434.14 7004.01 7050.04 7000.86 
6241.96 5818.33 5731.68 6458.99 6163.53 5696.37 5532.6 5454.64 4836.54 
4272.77 3970.96 4054.91 4373.89 4561.15 4726.95 4942.1 4942.1 4861.58 
4914.46 4914.46 4895.27 5016.59 5016.59 5164.9 5258.3 5258.3 5301.21 