# vtk DataFile Version 3.0
vtk output
ASCII
DATASET POLYDATA
POINTS 403 float
0.967072 -0.0604624 1.40408 1.00968 -0.616388 1.35522 0.810737 -1.00131 1.17251 
1.08936 0.645761 1.27623 1.18185 0.238477 1.24438 1.02061 0.461009 1.25466 
0.596546 0.0209513 1.18652 0.394554 -0.25954 1.14749 1.25797 -1.32184 0.903168 
1.9291 -1.43019 0.533755 -0.538159 0.799256 0.38066 2.64339 -0.238043 0.153662 
-0.73099 0.205476 -0.0894102 2.39216 -0.992764 -0.200929 2.33917 0.91852 -0.228194 
-0.82203 0.477498 -0.539655 2.42741 1.08141 -0.408667 1.68511 1.36018 -0.430559 
3.76663 -0.451136 -0.666017 0.986126 -1.42458 -1.13658 4.36188 0.446273 -0.946953 
0.359368 1.24751 -1.13015 4.97986 0.313024 -1.12082 4.40306 0.643028 -1.12731 
3.97533 0.674081 -1.15195 -0.179075 1.05653 -1.51797 -0.418668 0.906319 -1.53392 
-0.71813 0.347204 -1.48433 5.04923 0.439805 -1.30586 0.395356 -0.873798 -1.72729 
-0.552014 0.340465 -1.67554 2.18899 0.694941 -1.66751 1.66876 1.13328 -1.6603 
-0.179656 0.887983 -1.80202 0.380147 -0.53708 -1.89828 0.154408 -0.225535 -1.88389 
1.06341 0.233831 -1.98402 0.966663 0.36735 -1.97785 0.0880863 0.11958 -2.05739 
-0.0132341 0.12564 -1.95899 -0.100454 0.132218 -1.87453 -0.173176 0.14505 -1.80348 
-0.231735 0.167957 -1.74548 -0.300048 0.184493 -1.70362 -0.366859 0.203137 -1.68382 
-0.420399 0.232001 -1.67713 -0.476155 0.259617 -1.67816 -0.518118 0.297143 -1.67738 
0.134538 0.0532858 -2.06056 0.178675 0.00560928 -2.05469 0.18577 -0.0600162 -2.0305 
0.172563 -0.140355 -1.97172 0.116856 0.199768 -1.95119 0.153575 0.245928 -1.87745 
0.194397 0.279757 -1.84186 0.230186 0.322357 -1.82815 0.251675 0.38591 -1.82087 
0.271943 0.450961 -1.81353 0.29831 0.504139 -1.80689 0.304634 0.561692 -1.80115 
0.275165 0.605821 -1.79895 0.223322 0.636456 -1.80689 0.184516 0.677279 -1.82796 
0.163088 0.731618 -1.86903 0.153814 0.794689 -1.9085 0.121339 0.840061 -1.92874 
0.0560869 0.859825 -1.90874 -0.0216823 0.869566 -1.86811 -0.101098 0.878123 -1.8277 
0.998912 0.322843 -1.97991 1.03116 0.278337 -1.98197 0.410275 -0.583453 -1.89319 
0.431387 -0.636989 -1.87444 0.437222 -0.702397 -1.83541 0.444051 -0.765057 -1.7886 
0.430631 -0.82738 -1.75053 -0.177635 0.964213 -1.6656 -0.284535 0.893627 -1.67258 
1.66337 1.05727 -1.5708 1.68025 0.998631 -1.50806 1.71099 0.952011 -1.48805 
1.75372 0.915724 -1.50358 1.81076 0.891088 -1.54692 1.85751 0.859407 -1.59903 
1.90388 0.8271 -1.64378 1.96059 0.800857 -1.65747 2.01171 0.769564 -1.64963 
2.06808 0.741708 -1.63368 2.1217 0.712901 -1.64036 -0.541495 0.415701 -1.66788 
-0.538955 0.485204 -1.66126 -0.548592 0.545822 -1.65625 -0.544446 0.614446 -1.65707 
-0.525987 0.681269 -1.66161 -0.495863 0.737406 -1.65744 -0.465457 0.810687 -1.61439 
-0.634835 0.344176 -1.58361 -0.102051 1.07726 -1.45394 -0.0465925 1.10424 -1.41805 
0.00101355 1.1345 -1.41466 0.0526729 1.15698 -1.41174 0.11255 1.16621 -1.39957 
0.163671 1.18486 -1.37219 0.214791 1.20351 -1.34481 0.272774 1.21001 -1.3032 
0.319916 1.22613 -1.23158 5.02159 0.367369 -1.21745 -0.529225 0.912629 -1.31831 
-0.603207 0.885543 -1.15115 -0.658056 0.845407 -1.03614 -0.707855 0.802709 -0.941929 
-0.751041 0.749423 -0.840324 -0.778969 0.672659 -0.732459 -0.800459 0.581222 -0.630513 
-0.375191 0.982916 -1.47084 -0.329098 1.02881 -1.44323 -0.268292 1.0535 -1.46387 
4.00496 0.624609 -1.08754 4.04313 0.581616 -1.02944 4.09597 0.549844 -0.984269 
4.14621 0.517193 -0.961705 4.20456 0.490258 -0.952993 4.26788 0.462405 -0.951504 
4.38309 0.549679 -1.0329 4.97764 0.250954 -1.28328 4.97204 0.184188 -1.39419 
4.96058 0.112153 -1.43144 4.9388 0.0449798 -1.41671 4.8998 -0.00241841 -1.37889 
4.85439 -0.0423269 -1.33334 4.81277 -0.0901243 -1.27336 4.77902 -0.151466 -1.19923 
4.73686 -0.199857 -1.13189 4.68979 -0.238799 -1.0789 4.64307 -0.274217 -1.04792 
4.59622 -0.309458 -1.01693 4.54824 -0.343136 -0.985876 4.49233 -0.368535 -0.939652 
4.4206 -0.372111 -0.89241 4.34342 -0.36683 -0.852164 4.27239 -0.366021 -0.834298 
4.21072 -0.376789 -0.824353 4.14076 -0.377461 -0.806556 4.06938 -0.380182 -0.766679 
4.0054 -0.394448 -0.719931 3.93408 -0.397258 -0.680058 3.86532 -0.399581 -0.662338 
3.81231 -0.420962 -0.660277 4.89824 0.315084 -1.02897 4.822 0.308377 -0.930143 
4.75619 0.288613 -0.839301 4.68933 0.27583 -0.777706 4.62934 0.263334 -0.752908 
4.56897 0.27249 -0.748486 4.51735 0.301135 -0.756605 4.46221 0.3321 -0.787098 
4.41535 0.380565 -0.852698 0.415699 1.27367 -1.18373 0.479366 1.28838 -1.23045 
0.532729 1.31329 -1.25452 0.579881 1.34276 -1.25621 0.628981 1.36152 -1.21403 
0.68501 1.36537 -1.14297 0.730795 1.37935 -1.04928 0.772262 1.40063 -0.962632 
0.819059 1.41588 -0.883663 0.876278 1.41809 -0.812682 0.931546 1.42299 -0.741587 
0.995761 1.41555 -0.671052 1.06003 1.40802 -0.60052 1.11697 1.41196 -0.536854 
1.1838 1.40491 -0.488485 1.25791 1.39183 -0.462569 1.33404 1.37864 -0.451437 
1.41064 1.36614 -0.447668 1.48617 1.35511 -0.443832 1.55584 1.35216 -0.439622 
1.61657 1.36156 -0.434841 0.302598 1.26263 -0.931125 0.231802 1.25585 -0.742495 
0.161828 1.23192 -0.577766 0.0853921 1.22166 -0.456906 0.013315 1.21455 -0.387663 
-0.0411855 1.19121 -0.363519 -0.0888755 1.16114 -0.354465 -0.14218 1.13615 -0.330396 
-0.206066 1.11774 -0.261676 -0.258059 1.0749 -0.149725 -0.297213 1.00898 -0.00927099 
-0.343697 0.954523 0.124317 -0.394559 0.910116 0.236196 -0.444119 0.870598 0.311336 
-0.49185 0.833903 0.357038 1.03221 -1.39363 -1.1382 1.08504 -1.36931 -1.1549 
1.14816 -1.35521 -1.19425 1.20289 -1.32817 -1.24041 1.25128 -1.29371 -1.27882 
1.29718 -1.25984 -1.29509 1.34254 -1.22656 -1.30399 1.38844 -1.19269 -1.32025 
1.43683 -1.15824 -1.35867 1.49155 -1.13119 -1.40482 1.55474 -1.11717 -1.44418 
1.6087 -1.09442 -1.46096 1.66172 -1.07304 -1.46302 1.72213 -1.0632 -1.45821 
1.77467 -1.0425 -1.45291 1.82721 -1.02181 -1.44761 1.88756 -1.01189 -1.44281 
1.93897 -0.98962 -1.43743 1.98451 -0.959268 -1.43168 2.02899 -0.927444 -1.42587 
2.07347 -0.89562 -1.42005 2.11902 -0.865268 -1.4143 2.16995 -0.843684 -1.40156 
2.22929 -0.835051 -1.38204 2.2788 -0.815516 -1.34722 2.32252 -0.787987 -1.31203 
2.36529 -0.761825 -1.26212 2.41338 -0.74434 -1.20522 2.46893 -0.741172 -1.12681 
2.51614 -0.725143 -1.05519 2.55897 -0.701739 -0.990628 2.60646 -0.68209 -0.941025 
2.65644 -0.667219 -0.884249 2.6886 -0.627748 -0.826326 2.7227 -0.590964 -0.768537 
2.75615 -0.551942 -0.718039 2.77956 -0.501914 -0.652253 2.8025 -0.457003 -0.572056 
2.80584 -0.406181 -0.470221 2.78874 -0.357997 -0.360004 2.76949 -0.308898 -0.220012 
2.72318 -0.271011 -0.0480212 -0.891977 0.441847 -0.574799 -0.934918 0.400859 -0.611185 
-0.945402 0.344933 -0.644384 -0.935161 0.288418 -0.676304 -0.935252 0.221496 -0.697426 
-0.935752 0.153802 -0.711199 -0.9258 0.0932753 -0.716177 -0.925038 0.0261455 -0.722359 
-0.91318 -0.033012 -0.727087 -0.86063 -0.0629309 -0.726483 -0.798928 -0.0866171 -0.717254 
-0.755823 -0.124695 -0.688196 -0.714997 -0.166124 -0.622331 -0.657806 -0.197509 -0.517194 
-0.602035 -0.230942 -0.389988 -0.566035 -0.279268 -0.250522 -0.531898 -0.329276 -0.103875 
-0.485607 -0.370551 0.044364 -0.441597 -0.412093 0.162614 -0.389011 -0.445415 0.237446 
-0.337758 -0.477638 0.267571 -0.273405 -0.499762 0.284573 -0.210913 -0.523566 0.308746 
-0.168667 -0.562946 0.352532 -0.127368 -0.603693 0.411044 -0.0677188 -0.631597 0.479386 
-0.00668125 -0.658504 0.54791 0.0426772 -0.69346 0.607479 0.0966841 -0.724732 0.660231 
0.14552 -0.759377 0.70488 0.199463 -0.790561 0.757637 0.248251 -0.823208 0.809935 
0.304806 -0.837982 0.864383 0.359633 -0.835001 0.912911 0.416276 -0.849711 0.96737 
0.466624 -0.881239 1.01987 0.530192 -0.905506 1.07389 0.60126 -0.923998 1.1165 
0.667103 -0.946688 1.15093 0.727309 -0.977476 1.16686 2.39383 0.997854 -0.314225 
-0.776602 0.401438 -0.347482 -0.746325 0.337287 -0.202406 -0.729291 0.276289 -0.122489 
2.24452 0.922628 -0.0400888 2.18067 0.925031 0.127478 2.12828 0.899106 0.255888 
2.07875 0.858754 0.353315 2.03639 0.806815 0.44268 2.00902 0.731507 0.545744 
1.98916 0.646243 0.663273 1.97803 0.56453 0.789159 1.97914 0.491615 0.91664 
1.96735 0.412147 1.03524 1.94146 0.337895 1.13849 1.9001 0.287233 1.21313 
1.85351 0.248968 1.25876 1.80654 0.216575 1.27509 1.75352 0.195194 1.27715 
1.68618 0.194921 1.27279 1.61771 0.196209 1.2685 1.55698 0.186808 1.26372 
1.48684 0.189072 1.26688 1.41036 0.198737 1.27776 1.33281 0.209874 1.28871 
1.25662 0.223151 1.27759 2.4061 0.866941 -0.228675 2.44315 0.814517 -0.231157 
2.46507 0.760914 -0.234722 2.50965 0.725182 -0.23517 2.55044 0.687156 -0.243532 
2.58558 0.645756 -0.267475 2.62076 0.605412 -0.313679 2.65576 0.564942 -0.359916 
2.68787 0.521365 -0.384256 2.70898 0.467829 -0.365505 2.71449 0.401708 -0.319109 
2.72314 0.337155 -0.257451 2.72605 0.268482 -0.196544 2.73352 0.20343 -0.142465 
2.72775 0.129208 -0.0975463 2.71411 0.0495083 -0.0586139 2.69739 -0.0338805 -0.00530836 
2.67525 -0.126908 0.06663 2.3709 -1.07536 -0.105604 2.3374 -1.13971 -0.0168214 
2.27914 -1.1699 0.0735395 2.2223 -1.20338 0.171133 2.17066 -1.2427 0.261072 
2.12144 -1.28136 0.328858 2.07371 -1.31806 0.37456 2.02598 -1.35475 0.420262 
1.97778 -1.39213 0.473327 2.54697 -0.254527 0.337256 2.48351 -0.297374 0.493191 
2.43853 -0.353284 0.616808 2.38302 -0.392229 0.733856 2.33291 -0.43768 0.845686 
2.26439 -0.456375 0.951358 2.1913 -0.464758 1.03533 2.12548 -0.481845 1.11151 
2.0518 -0.488073 1.1882 1.9783 -0.497228 1.27952 1.91954 -0.526719 1.36991 
1.86658 -0.564213 1.45993 1.80917 -0.591574 1.52824 1.73744 -0.595148 1.57548 
1.66175 -0.587906 1.59364 1.59287 -0.587382 1.59671 1.5402 -0.60791 1.59142 
1.49339 -0.636521 1.58575 1.44073 -0.657049 1.58045 1.37225 -0.655752 1.57617 
1.29732 -0.644216 1.56496 1.22323 -0.631223 1.53904 1.15545 -0.62402 1.49062 
1.09207 -0.626898 1.42664 1.20543 -1.34023 0.905537 1.14666 -1.33286 0.924801 
1.09993 -1.30333 0.969257 1.05315 -1.2718 1.02136 0.996109 -1.24717 1.0647 
0.952814 -1.21163 1.08758 0.918358 -1.16908 1.09925 0.885149 -1.12404 1.11124 
0.849785 -1.07144 1.13621 0.847652 -0.909188 1.15113 0.888451 -0.85395 1.14397 
0.923486 -0.808897 1.16283 0.943024 -0.747803 1.212 0.965476 -0.680616 1.27932 
0.414911 -0.194425 1.15484 0.444205 -0.141643 1.16162 0.471551 -0.0861738 1.16853 
0.508912 -0.0445259 1.1748 0.552195 -0.0110506 1.1807 0.672735 0.00767465 1.19765 
0.747977 -0.00696812 1.22349 0.821799 -0.0236603 1.27142 0.894673 -0.0417193 1.33407 
0.609908 0.0957198 1.19432 0.629667 0.162999 1.19438 0.660921 0.215748 1.18638 
0.695546 0.265183 1.17084 0.74172 0.294668 1.17655 0.773567 0.339915 1.20516 
0.802768 0.386142 1.2486 0.830959 0.439107 1.26278 0.877453 0.470824 1.25381 
0.945747 0.472457 1.24345 1.0409 0.526213 1.26202 1.06907 0.580557 1.26887 
1.05144 0.414453 1.27468 1.08227 0.367897 1.29471 1.11404 0.322707 1.30001 
1.14724 0.279567 1.28324 1.15414 0.166131 1.33279 1.11366 0.116764 1.39269 
1.06967 0.0789052 1.41616 1.03184 0.0365661 1.41725 1.00336 -0.0173335 1.41042 
1.00591 -0.519428 1.36398 0.994353 -0.448686 1.3698 0.994998 -0.378871 1.37632 
0.994396 -0.31154 1.38253 0.974988 -0.257808 1.38627 0.955668 -0.204011 1.39002 
0.956642 -0.135634 1.39643 
LINES 37 475
11 38 39 40 41 42 43 44 45 46 47 30 
6 38 48 49 50 51 35 
19 38 52 53 54 55 56 57 58 59 60 61 62 63 64 65 66 67 68 33 
4 37 69 70 36 
7 34 71 72 73 74 75 29 
3 33 76 25 
3 33 77 26 
13 32 78 79 80 81 82 83 84 85 86 87 88 31 
9 30 89 90 91 92 93 94 95 26 
3 30 96 27 
11 25 97 98 99 100 101 102 103 104 105 21 
3 28 106 22 
9 26 107 108 109 110 111 112 113 15 
5 26 114 115 116 25 
8 24 117 118 119 120 121 122 20 
3 23 123 20 
26 22 124 125 126 127 128 129 130 131 132 133 134 135 136 137 138 139 140 141 142 143 144 145 146 147 18 
11 22 148 149 150 151 152 153 154 155 156 20 
23 21 157 158 159 160 161 162 163 164 165 166 167 168 169 170 171 172 173 174 175 176 177 17 
17 21 178 179 180 181 182 183 184 185 186 187 188 189 190 191 192 10 
44 19 193 194 195 196 197 198 199 200 201 202 203 204 205 206 207 208 209 210 211 212 213 214 215 216 217 218 219 220 221 222 223 224 225 226 227 228 229 230 231 232 233 234 11 
42 15 235 236 237 238 239 240 241 242 243 244 245 246 247 248 249 250 251 252 253 254 255 256 257 258 259 260 261 262 263 264 265 266 267 268 269 270 271 272 273 274 2 
3 16 275 14 
5 15 276 277 278 12 
24 14 279 280 281 282 283 284 285 286 287 288 289 290 291 292 293 294 295 296 297 298 299 300 4 
20 14 301 302 303 304 305 306 307 308 309 310 311 312 313 314 315 316 317 318 11 
11 13 319 320 321 322 323 324 325 326 327 9 
26 11 328 329 330 331 332 333 334 335 336 337 338 339 340 341 342 343 344 345 346 347 348 349 350 351 1 
11 8 352 353 354 355 356 357 358 359 360 2 
7 2 361 362 363 364 365 1 
7 7 366 367 368 369 370 6 
6 6 371 372 373 374 0 
12 6 375 376 377 378 379 380 381 382 383 384 5 
4 5 385 386 3 
6 5 387 388 389 390 4 
7 4 391 392 393 394 395 0 
9 1 396 397 398 399 400 401 402 0 

POINT_DATA 403
SCALARS DY_raw double
LOOKUP_TABLE default
486.082 349.901 381.265 268.132 322.836 266.049 378.244 334.706 376.395 
393.829 338.235 367.554 316.805 344.292 292.846 302.853 340.174 477.967 
336.178 273.567 397.915 560.051 475.335 513.699 331.1 240.576 268.125 
259.747 379.706 216.65 263.931 337.788 231.56 272.824 235.282 313.233 
433.381 339.236 276.987 254.796 231.87 223.391 251.628 288.148 310.713 
291.447 290.289 290.289 287.785 333.345 318.329 316.891 288.545 339.23 
335.065 360.609 341.517 367.456 352.169 378.498 376.9 376.9 424.998 
417.853 389.353 353.066 318.563 286.822 298.962 385.738 433.381 235.282 
234.075 227.058 210.033 212.571 244.453 259.086 258.413 272.993 271.884 
271.884 274.074 259.811 271.245 261.783 283.754 309.624 376.537 285.223 
308.701 362.375 358.688 311.522 278.927 240.941 273.064 228.088 207.061 
213.528 190.894 208.751 213.789 293.117 335.365 436.25 375.331 274.995 
305.037 354.565 336.51 335.248 330.306 313.472 255.001 261.685 238.363 
374.847 366.029 353.439 388.757 388.878 396.512 373.464 338.69 361.436 
396.442 349.889 359.979 355.01 310.86 369.143 356.142 338.527 363.597 
349.116 308.76 348.485 330.224 366.484 347.623 370.92 363.601 370.591 
352.997 376.161 346.079 336.178 370.142 342.935 374.754 401.248 401.691 
457.59 437.456 472.469 440.333 521.8 408.436 365.212 373.554 312.231 
322.399 311.218 263.74 278.385 259.086 237.489 241.622 237.677 260.764 
253.677 269.768 267.857 267.554 275.093 279.836 327.498 579.958 440.351 
344.041 379.903 343.421 322.454 321.494 260.587 274.386 320.931 289.158 
326.84 305.746 343.978 366.447 245.819 265.818 246.662 263.997 261.069 
276.363 299.575 331.025 331.025 349.33 319.252 293.745 310.521 310.521 
322.043 285.594 285.594 265.707 259.162 283.458 281.139 269.035 269.035 
273.892 273.892 288.464 285.073 298.628 295.863 284.289 329.341 305.688 
298.023 314.013 277.328 297.463 341.055 353.536 358.359 382.891 369.055 
358.507 290.452 272.887 293.2 295.054 326.88 302.949 299.998 292.044 
262.048 287.611 271.752 279.681 307.222 309.271 281.412 287.867 277.482 
310.086 302.052 288.173 291.131 270.542 250.872 250.872 274.667 323.343 
348.631 327.415 329.017 332.872 329.428 328.948 367.232 359.064 376.589 
373.159 402.847 383.199 349.257 367.694 268.522 284.244 278.176 284.69 
312.163 273.999 280.216 257.49 253.474 320.126 321.206 310.059 279.523 
258.277 250.816 250.215 266.018 266.873 285.385 303.981 317.974 312.951 
297.684 298.259 298.259 309.514 301.278 303.638 321.259 372.096 348.375 
379.448 433.348 353.448 325.413 303.89 323.493 274.091 308.276 305.442 
343.263 322.941 321.562 333.566 269.91 258.411 295.672 266.109 312.669 
341.709 335.754 357.978 370.563 330.219 354.153 353.866 332.019 286.084 
298.291 291.431 262.374 306.728 313.354 330.987 362.945 373.774 393.442 
424.909 371.63 371.63 355.038 368.802 379.925 391.915 366.785 354.041 
350.186 333.026 281.2 304.524 311.705 335.922 335.922 356.037 359.441 
367.888 391.159 433.458 394.586 364.17 363.065 308.844 318.699 318.699 
336.963 378.244 406.696 411.285 411.057 399.88 378.955 367.504 348.295 
372.526 355.981 355.981 270.207 253.944 253.944 254.945 272.681 276.871 
292.499 333.833 346.845 328.919 340.469 396.684 444.352 430.601 441.817 
348.724 375.692 383.435 430.434 430.434 469.932 509.943 
FIELD FieldData 7
DY_minmax 1 403 double
0.758714 0.408692 0.489306 0.198523 0.339129 0.19317 0.481541 0.369637 0.476789 
0.521599 0.378708 0.454065 0.323626 0.394275 0.262045 0.287765 0.383691 0.737857 
0.373421 0.212494 0.532101 0.948834 0.731092 0.829697 0.360367 0.127696 0.198505 
0.176971 0.485299 0.0662003 0.187726 0.377558 0.104524 0.210583 0.11409 0.314445 
0.623257 0.38128 0.221284 0.164247 0.10532 0.0835262 0.156105 0.24997 0.307969 
0.25845 0.255472 0.255472 0.249037 0.366137 0.327544 0.323849 0.25099 0.381264 
0.370558 0.436214 0.387143 0.453813 0.414521 0.482193 0.478087 0.478087 0.601711 
0.583348 0.510094 0.416827 0.328144 0.246563 0.277765 0.500804 0.623257 0.11409 
0.110988 0.0929536 0.0491941 0.0557167 0.137662 0.175272 0.173544 0.211018 0.208168 
0.208168 0.213797 0.177136 0.206524 0.182206 0.238677 0.30517 0.477152 0.242453 
0.302796 0.440753 0.431277 0.310047 0.22627 0.128636 0.2112 0.0956008 0.0415547 
0.0581755 0 0.0458977 0.0588482 0.262742 0.371332 0.630633 0.474054 0.216163 
0.293379 0.420679 0.374272 0.371031 0.358328 0.315058 0.164774 0.181952 0.12201 
0.472811 0.450146 0.417785 0.508562 0.508872 0.528494 0.469256 0.379877 0.43834 
0.528315 0.408662 0.434595 0.421824 0.308345 0.45815 0.424734 0.379458 0.443896 
0.406675 0.302949 0.405053 0.358116 0.451315 0.402836 0.462717 0.443904 0.461871 
0.416649 0.476187 0.398868 0.373421 0.460717 0.390787 0.47257 0.540669 0.541805 
0.685482 0.633731 0.723726 0.641128 0.850518 0.559142 0.448045 0.469487 0.31187 
0.338003 0.309265 0.187235 0.224875 0.175272 0.119764 0.130385 0.120245 0.179585 
0.16137 0.202728 0.197816 0.197037 0.216415 0.228605 0.351111 1 0.641172 
0.393631 0.485805 0.392036 0.338146 0.335678 0.179131 0.214599 0.334231 0.252567 
0.349419 0.295202 0.393469 0.45122 0.141173 0.192575 0.143341 0.187894 0.180369 
0.21968 0.27934 0.360177 0.360177 0.407223 0.329915 0.264355 0.307475 0.307475 
0.337089 0.243406 0.243406 0.192292 0.175469 0.237915 0.231955 0.200846 0.200846 
0.213329 0.213329 0.250782 0.242067 0.276906 0.269799 0.24005 0.355848 0.295053 
0.275352 0.316449 0.222161 0.273912 0.385954 0.418034 0.430432 0.493485 0.457922 
0.430811 0.255892 0.210745 0.262955 0.267721 0.349522 0.288012 0.280428 0.259983 
0.182887 0.248591 0.207827 0.228208 0.298996 0.304261 0.232656 0.249247 0.222555 
0.306357 0.285706 0.250034 0.257637 0.204718 0.15416 0.15416 0.21532 0.34043 
0.405428 0.350897 0.355015 0.364923 0.356071 0.354838 0.453237 0.432244 0.477288 
0.468472 0.544777 0.494277 0.407037 0.454426 0.199526 0.239935 0.224339 0.241082 
0.311695 0.213602 0.229583 0.171171 0.160849 0.332162 0.334939 0.306287 0.227803 
0.173194 0.154016 0.152471 0.193089 0.195287 0.242869 0.290664 0.326631 0.313721 
0.274479 0.275958 0.275958 0.304886 0.283718 0.289783 0.335076 0.465739 0.404771 
0.484636 0.623174 0.417808 0.345751 0.290431 0.340817 0.213841 0.301704 0.29442 
0.391631 0.339397 0.335852 0.366706 0.203095 0.173538 0.269309 0.193324 0.312995 
0.387637 0.372331 0.429451 0.461799 0.358104 0.419622 0.418882 0.36273 0.244666 
0.276041 0.258407 0.183723 0.297724 0.314756 0.360079 0.442218 0.470053 0.520603 
0.601482 0.464541 0.464541 0.421897 0.457274 0.485861 0.516679 0.452089 0.419333 
0.409424 0.365319 0.232111 0.292061 0.310518 0.372761 0.372761 0.424463 0.433213 
0.454925 0.514735 0.623456 0.523544 0.445366 0.442528 0.303165 0.328495 0.328495 
0.375437 0.481541 0.55467 0.566465 0.565879 0.53715 0.483369 0.453937 0.404565 
0.466845 0.42432 0.42432 0.203856 0.162055 0.162055 0.164629 0.210216 0.220986 
0.261153 0.367392 0.400836 0.354762 0.38445 0.528936 0.651455 0.616113 0.644942 
0.405668 0.474982 0.494885 0.615683 0.615683 0.717204 0.820043 
WidthEq 1 403 double
2.52741 2.96224 2.76647 4.28296 3.60737 4.69947 3.29422 2.12858 2.52163 
2.27636 2.93981 4.11017 3.71531 2.22218 4.13043 4.57869 2.06244 1.88186 
2.35714 1.88929 2.40654 3.51712 3.34162 1 2.69245 4.75268 4.57511 
2.46205 3.41179 3.51858 3.17852 2.63029 3.55557 3.87689 3.71244 2.14144 
1.77899 2.66799 4.28781 4.45191 4.26312 3.76416 3.12075 2.79665 2.76618 
2.87287 3.0624 3.0624 4.07088 3.49803 3.39877 2.77836 4.04141 3.47932 
3.14059 2.9096 2.87054 2.83432 2.81345 2.65539 2.58004 2.58004 2.32276 
2.49484 2.70492 2.89484 3.19752 3.55418 3.41638 2.20628 1.77899 3.71244 
4.09822 4.39666 4.56461 4.15023 4.55327 4.57482 3.45063 3.63522 3.95072 
3.95072 3.81983 3.70685 3.70904 3.49942 3.23635 3.12136 2.46783 3.28514 
3.27971 2.82547 2.84738 3.1792 3.66177 4.37782 3.21034 4.77126 4.79042 
4.5071 4.93274 4.93488 5.22182 5.05439 4.93766 4.42739 3.95179 4.81714 
4.90124 4.51889 4.58813 4.44387 4.51608 4.70696 4.85287 4.79065 4.94014 
2.67885 2.7707 2.70163 2.56867 2.45365 2.46938 2.17549 4.37453 4.27818 
4.37421 4.70606 4.62835 4.18723 3.7735 3.45603 3.23929 3.07497 3.00101 
2.99668 3.12601 2.95309 2.95829 2.66066 2.8654 2.95077 3.00841 3.00857 
3.05878 2.93555 2.70883 2.35714 3.96064 3.77092 3.14676 2.915 2.75251 
2.35184 2.33623 2.23756 2.2837 3.74155 3.89182 3.88894 3.64581 3.77903 
3.70581 3.64426 3.96196 3.82478 4.04406 4.26351 3.87369 4.24316 4.18474 
4.09576 4.10949 4.01453 4.12691 3.95033 3.90804 3.15406 3.38869 3.94856 
4.29434 3.98222 4.41243 4.41275 4.46506 4.7733 4.80454 4.37521 4.76147 
4.44538 4.37601 3.41777 3.13445 3.21622 3.52937 3.73948 4.22403 4.26186 
3.96112 3.68355 3.08786 3.08786 2.7004 2.90783 3.02392 3.05316 3.05316 
2.92175 3.40924 3.40924 3.58191 3.6261 3.34617 3.3906 3.44378 3.44378 
3.49111 3.49111 3.4294 3.53102 3.4557 3.53887 4.13101 3.5809 4.02655 
3.98972 3.7516 4.00629 3.80487 3.40517 3.32795 3.41858 3.41131 3.52565 
3.81479 4.48958 4.22387 3.52701 3.10908 2.87203 2.92514 2.84091 3.2316 
3.33312 3.51373 3.80811 3.73557 3.72268 3.6651 3.92688 4.04645 3.61858 
3.56575 3.58879 3.3465 3.40362 3.40524 3.35693 3.35693 3.16459 3.19865 
3.1634 3.17545 3.08947 3.20375 3.2486 3.24233 2.99917 2.84673 2.68621 
2.62092 2.57465 2.53688 2.84996 2.86653 3.62927 4.49857 4.4942 4.23934 
4.68771 5.90769 6.25189 6.51431 6.48555 5.37904 4.51491 4.31547 4.41036 
5.03908 5.30712 5.27591 5.09436 4.53365 4.3607 4.1017 3.67715 3.75234 
3.56294 3.52911 3.52911 3.64058 3.95996 3.75454 3.46604 2.9003 3.05199 
2.90424 2.69148 3.06996 3.29784 3.38336 3.46439 4.22209 3.95334 4.12216 
4.1134 4.44567 4.57921 4.50571 3.69189 4.55747 4.33097 5.071 4.45692 
3.99453 3.99024 3.75906 3.35635 4.56987 4.37039 4.33944 4.44393 4.61255 
4.65682 4.65963 4.45033 4.27337 3.6821 3.30559 3.20252 2.95836 2.85885 
2.72298 2.92689 2.92689 2.95348 2.65142 2.62615 2.47497 2.50143 2.70954 
3.02925 2.98463 3.55124 3.57541 3.40982 3.24046 3.24046 2.82221 2.73633 
2.74482 2.72434 2.39439 2.27116 2.46654 2.66919 2.50858 3.26314 3.26314 
3.33903 3.29422 3.22101 3.02262 2.93261 3.26388 3.43082 3.4611 3.32071 
3.18895 3.27697 3.27697 3.91211 4.35085 4.35085 4.76334 4.69992 4.34671 
4.22729 3.6946 3.57586 3.65315 3.55056 3.20504 2.76331 2.81927 2.91358 
2.88893 2.53966 2.44693 2.34454 2.34454 2.53219 2.33475 
rRFP 1 403 double
3024.48 3159.06 3098.47 3567.83 3358.73 3696.74 3261.81 2901.04 3022.69 
2946.78 3152.12 3514.35 3392.14 2930.01 3520.62 3659.36 2880.57 2824.68 
2971.78 2826.98 2987.07 3330.8 3276.48 2551.74 3075.56 3713.21 3658.25 
3004.25 3298.2 3331.25 3226 3056.32 3342.7 3442.15 3391.25 2905.02 
2792.84 3067.99 3569.33 3620.12 3561.69 3407.26 3208.12 3107.81 3098.38 
3131.4 3190.06 3190.06 3502.19 3324.89 3294.17 3102.15 3493.07 3319.1 
3214.26 3142.77 3130.68 3119.47 3113.01 3064.09 3040.77 3040.77 2961.14 
3014.4 3079.42 3138.2 3231.88 3342.27 3299.62 2925.09 2792.84 3391.25 
3510.65 3603.02 3655 3526.75 3651.49 3658.16 3310.22 3367.35 3465 
3465 3424.49 3389.52 3390.2 3325.32 3243.9 3208.31 3006.04 3259 
3257.32 3116.73 3123.51 3226.21 3375.57 3597.19 3235.85 3718.96 3724.89 
3637.2 3768.94 3769.6 3858.41 3806.59 3770.46 3612.53 3465.33 3733.16 
3759.19 3640.85 3662.28 3617.63 3639.98 3699.06 3744.22 3724.96 3771.23 
3071.35 3099.78 3078.4 3037.25 3001.65 3006.52 2915.56 3596.17 3566.35 
3596.07 3698.78 3674.73 3538.2 3410.15 3311.89 3244.81 3193.95 3171.06 
3169.72 3209.75 3156.23 3157.84 3065.72 3129.09 3155.51 3173.35 3173.4 
3188.94 3150.8 3080.63 2971.78 3468.07 3409.35 3216.17 3144.44 3094.15 
2970.14 2965.31 2934.77 2949.05 3400.26 3446.77 3445.88 3370.63 3411.86 
3389.2 3370.15 3468.48 3426.02 3493.89 3561.81 3441.16 3555.51 3537.43 
3509.89 3514.14 3484.75 3519.53 3464.88 3451.79 3218.43 3291.05 3464.33 
3571.35 3474.75 3607.9 3608 3624.19 3719.59 3729.26 3596.38 3715.93 
3618.1 3596.63 3300.05 3212.36 3237.67 3334.59 3399.62 3549.59 3561.3 
3468.22 3382.31 3197.94 3197.94 3078.02 3142.22 3178.15 3187.2 3187.2 
3146.53 3297.41 3297.41 3350.85 3364.53 3277.89 3291.64 3308.1 3308.1 
3322.75 3322.75 3303.65 3335.1 3311.79 3337.53 3520.8 3350.54 3488.47 
3477.07 3403.37 3482.2 3419.86 3296.15 3272.25 3300.3 3298.05 3333.44 
3422.93 3631.78 3549.54 3333.86 3204.51 3131.14 3147.58 3121.51 3242.43 
3273.85 3329.75 3420.86 3398.41 3394.42 3376.6 3457.62 3494.63 3362.2 
3345.85 3352.98 3277.99 3295.67 3296.17 3281.22 3281.22 3221.69 3232.23 
3221.32 3225.05 3198.44 3233.81 3247.69 3245.75 3170.49 3123.31 3073.63 
3053.42 3039.1 3027.41 3124.31 3129.44 3365.51 3634.56 3633.21 3554.33 
3693.1 4070.69 4177.22 4258.44 4249.54 3907.07 3639.62 3577.89 3607.26 
3801.85 3884.81 3875.15 3818.96 3645.42 3591.89 3511.73 3380.33 3403.6 
3344.98 3334.51 3334.51 3369.01 3467.86 3404.28 3314.99 3139.89 3186.84 
3141.11 3075.26 3192.4 3262.93 3289.4 3314.48 3548.99 3465.81 3518.06 
3515.35 3618.19 3659.52 3636.77 3384.89 3652.79 3582.69 3811.73 3621.67 
3478.56 3477.23 3405.68 3281.04 3656.63 3594.89 3585.31 3617.65 3669.84 
3683.54 3684.41 3619.63 3564.86 3381.86 3265.33 3233.43 3157.86 3127.06 
3085.01 3148.12 3148.12 3156.35 3062.86 3055.04 3008.25 3016.44 3080.85 
3179.8 3165.99 3341.36 3348.84 3297.59 3245.17 3245.17 3115.72 3089.14 
3091.77 3085.43 2983.31 2945.17 3005.64 3068.36 3018.65 3252.19 3252.19 
3275.68 3261.81 3239.15 3177.75 3149.89 3252.42 3304.09 3313.46 3270.01 
3229.23 3256.47 3256.47 3453.05 3588.84 3588.84 3716.51 3696.88 3587.56 
3550.6 3385.73 3348.98 3372.9 3341.15 3234.21 3097.49 3114.81 3144 
3136.37 3028.27 2999.57 2967.88 2967.88 3025.96 2964.85 
rGFP 1 403 double
3580.46 3388.42 3406.69 3500.33 3516.52 3602.22 3597.95 3064.38 3301.06 
3248.43 3346.28 3862.64 3528.96 3117.01 3561.51 3738.6 3053.52 3251.4 
3144.35 2868.78 3309.53 4321.7 3940.32 2865.63 3243.4 3495.31 3578.63 
2991.44 3647.41 3114.23 3190.84 3240.41 3175.26 3409.64 3225.4 3022.7 
3122.91 3257.01 3539.6 3486.26 3340.42 3192.81 3137.2 3157.78 3211.42 
3189.22 3240.91 3240.91 3523.47 3517.98 3433.86 3232.37 3518.06 3532.22 
3404.23 3401.16 3332.27 3393.42 3342.74 3356.99 3324.35 3324.35 3339.1 
3394.41 3405.1 3374 3370.54 3371.35 3373.3 3202.98 3122.91 3225.4 
3311.22 3350.23 3310.65 3234.15 3464.99 3537.2 3243.62 3344.32 3426.07 
3426.07 3398.85 3315.01 3357.99 3268.02 3270.26 3318.38 3281.16 3288.93 
3364.38 3375.81 3373.25 3342.32 3373.3 3406.73 3228.56 3440.2 3343.84 
3314.32 3293.56 3382.09 3468.3 3833.46 4007.85 4283.38 3835.16 3676.62 
3846.99 3954.17 3895.88 3841.73 3843.62 3827.43 3589.42 3605.57 3529.48 
3356.09 3366.09 3306.79 3350.52 3306.1 3331.07 3164.4 3833.54 3898.22 
4086.05 3998.53 4018.04 3838.44 3524.96 3627.7 3505.58 3392.89 3443.09 
3398.12 3317.12 3381.04 3328.83 3327.02 3348.01 3446.43 3445.79 3466.88 
3431.67 3456.17 3289.4 3144.35 3817.93 3645.11 3531.19 3521.57 3457.59 
3428.11 3373.93 3409.11 3357.52 4304.27 3941.49 3772.22 3713.84 3531.86 
3546.68 3486.09 3396.86 3416.69 3399.69 3364.47 3287.9 3360.43 3443.16 
3390.93 3460.54 3427.25 3456.1 3438.64 3445.54 3384.88 4317.23 4090.68 
3829.36 3864.79 3867.25 3774.84 3787.42 3595.79 3670.23 3756.07 3728.75 
3804.86 3689.88 3527.57 3500.54 3142.54 3290.1 3274.32 3467.06 3464.57 
3446.64 3455.43 3374.09 3374.09 3295.26 3280.26 3240.19 3300 3300 
3292.86 3325.59 3325.59 3303.67 3291.68 3300.43 3305.16 3278.43 3278.43 
3308.12 3308.12 3341.19 3358.53 3383.9 3398.95 3526.33 3531.27 3582.8 
3540.96 3529.98 3462.99 3483.74 3513.28 3528.48 3577.01 3658.09 3653.09 
3719.56 3655.94 3504.57 3386.05 3269.28 3290.74 3238.1 3204.2 3295.7 
3225.37 3362.52 3386.79 3396.7 3495.62 3485.44 3457 3516.77 3356.02 
3457.62 3435.93 3316.3 3342.83 3273.19 3194.09 3194.09 3221.14 3386.19 
3454.79 3391.62 3368.42 3418.37 3422.11 3418.49 3453.32 3374.09 3363.53 
3329.95 3389.12 3324.06 3347.3 3405.94 3326.47 3630.62 3602.11 3558.83 
3815.26 3970.63 4103.81 4029.3 3995.85 4073.9 3802.15 3689.98 3584.73 
3653.41 3683.04 3672.04 3707.12 3561.84 3596.41 3598.77 3521.17 3526.23 
3412.56 3404.52 3404.52 3478.74 3544.98 3491.95 3465.43 3431.12 3415.17 
3453.94 3518.28 3437 3425.09 3380.1 3472.64 3509.17 3570.65 3611.01 
3763.91 3787.62 3824.43 3854.88 3348.41 3529.63 3632.48 3701.37 3745.47 
3716.9 3691.67 3697.59 3595.67 3860.99 3899.72 3887.51 3827.4 3671.51 
3741.02 3709.89 3519.58 3662.69 3505.73 3446.04 3514.27 3457.69 3476.72 
3508.95 3439.65 3439.65 3400.53 3329.78 3349.67 3321.91 3269.42 3311.22 
3412.73 3345.89 3350.54 3440.73 3414.79 3440.47 3440.47 3356.74 3335.48 
3361.72 3417.58 3389.8 3248.1 3250.17 3321.02 3126.69 3391.89 3391.89 
3477.06 3597.95 3661.9 3595.09 3557.4 3657.09 3652.06 3623.9 3508.52 
3539.9 3518.47 3518.47 3409.01 3456.8 3456.8 3566.32 3633.51 3555.41 
3588.41 3585.31 3592.2 3553.52 3560.79 3623.32 3579.81 3565.91 3639.2 
3359.37 3306.06 3290.17 3361.1 3361.1 3541.89 3542.52 
bkstRFP 1 403 double
782.244 916.824 856.234 1325.59 1116.49 1454.5 1019.57 658.804 780.454 
704.544 909.884 1272.11 1149.9 687.774 1278.38 1417.12 638.334 582.444 
729.544 584.744 744.834 1088.56 1034.24 309.504 833.324 1470.97 1416.01 
762.014 1055.96 1089.01 983.764 814.084 1100.46 1199.91 1149.01 662.784 
550.604 825.754 1327.09 1377.88 1319.45 1165.02 965.884 865.574 856.144 
889.164 947.824 947.824 1259.95 1082.65 1051.93 859.914 1250.83 1076.86 
972.024 900.534 888.444 877.234 870.774 821.854 798.534 798.534 718.904 