# vtk DataFile Version 3.0
vtk output
ASCII
DATASET POLYDATA
POINTS 432 float
1.3973 -1.55502 1.10107 1.4236 -1.70279 1.06019 -0.710763 0.416753 0.862538 
2.66725 -0.522716 0.998608 -0.670642 0.600518 0.56241 -0.949587 0.28318 0.0994598 
2.86274 -0.369613 0.86697 -0.677927 0.880111 0.435036 2.64171 -0.191267 0.672067 
-0.808879 -0.278972 -0.513858 0.2381 0.117555 -0.0668621 -0.386715 -0.712513 -0.428239 
2.68229 0.500149 0.12286 3.13355 0.127102 0.42972 1.54379 -1.31499 -0.70803 
-0.527275 0.328374 -0.690045 -0.043552 0.245759 -0.711444 -0.35596 -0.169275 -0.892133 
-0.0282176 -0.129752 -0.824121 0.657795 1.55258 -0.384951 0.315591 1.07813 -0.677291 
0.139888 0.321937 -0.868755 0.208237 0.610652 -0.980434 1.4743 1.74446 -0.416472 
2.00702 1.35588 -0.444955 0.85216 -0.288751 -1.19978 1.18581 -0.0853305 -1.23942 
1.32393 0.00679693 -1.18759 2.50777 0.300503 -0.895581 0.523605 0.90774 -1.2594 
1.58797 2.01723 -0.737295 0.737879 0.0656522 -1.48141 1.49422 0.156861 -1.32446 
1.55302 0.651124 -1.44532 1.60627 1.52377 -1.30963 1.85053 1.04125 -1.62811 
1.94705 1.21506 -2.19421 1.91488 1.15712 -2.00551 1.8827 1.09918 -1.81681 
1.47558 0.680355 -1.41553 1.4304 0.725354 -1.38586 1.39036 0.765025 -1.37004 
1.35225 0.805683 -1.36143 1.31652 0.849573 -1.35405 1.26227 0.868301 -1.3497 
1.20747 0.885169 -1.33031 1.14702 0.892838 -1.29116 1.07207 0.880693 -1.2527 
0.998324 0.870697 -1.22124 0.941324 0.884644 -1.20313 0.886708 0.902882 -1.19899 
0.820044 0.905676 -1.2095 0.75229 0.907091 -1.22061 0.691159 0.918367 -1.22757 
0.615943 0.917475 -1.24067 1.63235 1.45412 -1.146 1.67628 1.40987 -0.995074 
1.7305 1.38097 -0.861243 1.78939 1.35997 -0.747732 1.84944 1.34126 -0.641182 
1.91151 1.33012 -0.555503 1.96762 1.33238 -0.490289 1.54555 0.548826 -1.44398 
1.53039 0.472732 -1.43852 1.52696 0.396281 -1.42856 1.52138 0.31689 -1.40417 
1.50298 0.2419 -1.36752 1.65569 0.679448 -1.48715 1.73799 0.69314 -1.51603 
1.80001 0.683981 -1.52135 1.85821 0.668567 -1.49784 1.90229 0.632389 -1.45433 
1.93944 0.586439 -1.40714 1.97674 0.541267 -1.36755 2.01637 0.500301 -1.34197 
2.05606 0.459418 -1.31635 2.0944 0.415619 -1.27616 2.13609 0.375148 -1.21867 
2.18621 0.345484 -1.14857 2.23183 0.312317 -1.07247 2.27903 0.297836 -0.990351 
2.31989 0.300678 -0.911861 2.37431 0.299156 -0.871647 2.43413 0.291047 -0.87178 
1.42555 0.127584 -1.3059 1.3724 0.0749309 -1.26047 1.53977 0.126018 -1.32616 
1.591 0.102713 -1.32458 1.65192 0.0922977 -1.31739 1.71096 0.0793686 -1.3113 
1.77866 0.0779552 -1.30019 1.84518 0.0743953 -1.28209 1.90058 0.0549467 -1.25506 
1.95326 0.0302013 -1.20658 1.98937 -0.0171284 -1.15999 2.01239 -0.0812724 -1.12866 
2.04635 -0.129777 -1.10636 2.09055 -0.16466 -1.07813 2.13521 -0.200631 -1.0266 
2.16018 -0.264448 -0.963423 2.19137 -0.321114 -0.8813 2.23825 -0.355827 -0.80545 
2.28209 -0.392705 -0.754345 2.33029 -0.418325 -0.730442 2.38448 -0.415796 -0.704719 
2.42391 -0.391695 -0.667047 2.45958 -0.374656 -0.600779 2.51046 -0.377633 -0.514502 
2.55897 -0.384897 -0.414262 2.58984 -0.376297 -0.319988 2.62045 -0.364475 -0.232636 
2.66281 -0.358223 -0.152832 2.69249 -0.339703 -0.0792771 2.70577 -0.306201 -0.0117727 
2.69719 -0.256756 0.0569 2.68229 -0.214757 0.153612 2.67247 -0.194555 0.29161 
2.65272 -0.1852 0.471685 0.761729 0.000274058 -1.42087 0.772872 -0.086724 -1.35933 
0.793842 -0.18617 -1.28618 1.53225 1.92725 -0.601703 1.49075 1.83896 -0.494562 
0.485242 0.838023 -1.27949 0.438006 0.785327 -1.27232 0.37113 0.738079 -1.21973 
0.298809 0.675204 -1.11789 0.467889 0.958441 -1.11464 0.412701 0.984147 -0.977451 
0.365785 1.02065 -0.832928 1.2613 0.012311 -1.25938 1.20803 -0.0131247 -1.27627 
1.28142 -0.0506069 -1.14965 1.23899 -0.0839496 -1.16713 1.1231 -0.103878 -1.25581 
1.07957 -0.138802 -1.26806 1.03906 -0.184979 -1.26559 0.972245 -0.237083 -1.23999 
0.894582 -0.369665 -1.25469 0.918206 -0.445914 -1.28781 0.927826 -0.529284 -1.28036 
0.928891 -0.625129 -1.22913 0.927651 -0.725452 -1.15809 0.933275 -0.816093 -1.09075 
0.949949 -0.890928 -1.03236 0.961561 -0.971363 -0.992272 0.977698 -1.04466 -0.964924 
1.01622 -1.08709 -0.939979 1.07007 -1.10917 -0.906173 1.11409 -1.14542 -0.862698 
1.15233 -1.18991 -0.814873 1.19641 -1.22609 -0.771365 1.25267 -1.2444 -0.743844 
1.3038 -1.26839 -0.734637 1.35716 -1.28885 -0.731823 1.42377 -1.29173 -0.721352 
1.49037 -1.29461 -0.71088 0.741908 -0.358146 -1.13586 0.661751 -0.420118 -1.06453 
0.577495 -0.467542 -0.983543 0.487606 -0.506214 -0.906714 0.398921 -0.53961 -0.837876 
0.321627 -0.555438 -0.793105 0.264685 -0.541415 -0.774958 0.214714 -0.515881 -0.783491 
0.166391 -0.48703 -0.806423 0.139663 -0.430617 -0.801513 0.121905 -0.363413 -0.776054 
0.0982764 -0.304454 -0.746283 0.0622975 -0.258072 -0.74602 0.0201877 -0.204494 -0.776007 
1.96928 1.38978 -0.338912 1.92203 1.41331 -0.269091 1.87403 1.43865 -0.238091 
1.82851 1.46897 -0.22869 1.78412 1.50136 -0.226316 1.73973 1.53374 -0.223942 
1.69527 1.56604 -0.221605 1.64978 1.59696 -0.219866 1.59981 1.6225 -0.228399 
1.5448 1.64303 -0.262878 1.50436 1.68573 -0.327315 2.06713 1.33762 -0.346097 
2.12768 1.32334 -0.293059 2.1812 1.30363 -0.297828 2.23032 1.27923 -0.320506 
2.27478 1.24693 -0.322843 2.31441 1.20596 -0.297261 2.35159 1.16062 -0.257731 
2.38893 1.11606 -0.225801 2.42178 1.0661 -0.204134 2.44847 1.00907 -0.201385 
2.48481 0.964857 -0.193067 2.53124 0.933491 -0.171221 2.58389 0.909269 -0.130433 
2.62068 0.862916 -0.0883347 2.64059 0.78771 -0.0413005 2.66183 0.679623 0.0341356 
1.37966 1.70109 -0.320306 1.29083 1.66768 -0.251499 1.21601 1.65683 -0.228337 
1.15575 1.66814 -0.235139 1.08936 1.67224 -0.260896 1.01519 1.66129 -0.269049 
0.944474 1.63665 -0.257267 0.886137 1.60352 -0.247953 0.819177 1.58773 -0.268138 
0.741926 1.58083 -0.320715 0.180875 0.658723 -0.876128 0.162131 0.718599 -0.813839 
0.160983 0.789757 -0.807884 0.176919 0.860516 -0.830554 0.182191 0.939051 -0.852644 
0.184788 1.00853 -0.849185 0.205438 1.05353 -0.818769 0.245422 1.07596 -0.757953 
0.177539 0.565736 -0.991604 0.1528 0.50743 -0.98232 0.143962 0.422453 -0.939265 
0.0487632 0.28492 -0.79359 0.190879 0.290624 -0.759766 0.227921 0.241734 -0.627138 
0.256946 0.199179 -0.454684 0.259506 0.164759 -0.260695 0.334764 1.14576 -0.619235 
0.342012 1.20652 -0.575794 0.362266 1.25361 -0.547412 0.39164 1.29555 -0.526909 
0.424357 1.33598 -0.508919 0.46522 1.37046 -0.491365 0.518641 1.39669 -0.476165 
0.560874 1.43461 -0.461255 0.600285 1.48852 -0.436012 -0.112188 -0.123868 -0.899438 
-0.189403 -0.125164 -0.944405 -0.269546 -0.140835 -0.93933 -0.026281 -0.00934344 -0.857484 
-0.0280075 0.088113 -0.882811 -0.0289326 0.160697 -0.87638 -0.027288 0.205783 -0.815157 
-0.444618 -0.192309 -0.823733 -0.575612 -0.222931 -0.692406 -0.351616 -0.262742 -0.81018 
-0.343282 -0.352597 -0.702877 -0.346087 -0.458193 -0.586609 -0.352551 -0.563754 -0.494505 
-0.362438 -0.650853 -0.444427 -0.128689 0.218947 -0.663529 -0.204734 0.205341 -0.625717 
-0.261885 0.218523 -0.60001 -0.308533 0.247909 -0.59894 -0.358664 0.273232 -0.607566 
-0.417607 0.28741 -0.628959 -0.473704 0.305934 -0.656397 -0.694336 -0.128655 -0.746511 
-0.682339 -0.0517156 -0.873635 -0.721462 -0.0320888 -0.835032 -0.781058 -0.107225 -0.691909 
-0.555404 0.383489 -0.693616 -0.59038 0.426131 -0.655083 -0.638408 0.447278 -0.566498 
-0.719233 0.420009 -0.415923 -0.820819 0.36523 -0.187054 2.81867 0.43661 0.119735 
2.90488 0.403646 0.144917 2.95391 0.366266 0.184978 2.99401 0.324608 0.223191 
3.04042 0.292645 0.252693 3.09307 0.26842 0.29349 3.12564 0.215264 0.353373 
2.64139 0.316008 0.256603 2.62246 0.179271 0.373322 2.62384 0.0803147 0.457017 
2.63846 0.00175985 0.526655 2.64408 -0.0888809 0.593997 2.62095 0.435605 0.470408 
2.58048 0.396566 0.77047 2.53824 0.393573 1.0018 2.48617 0.400306 1.16477 
2.41649 0.390469 1.26763 2.35707 0.398772 1.315 2.30884 0.424532 1.29114 
2.26628 0.446683 1.18862 2.23794 0.462732 1.03955 2.20599 0.479156 0.889976 
2.18557 0.477997 0.760523 2.17395 0.455351 0.665229 2.16319 0.420012 0.59759 
2.12321 0.393925 0.559214 2.08353 0.361592 0.534669 2.0411 0.328249 0.517198 
1.98635 0.304027 0.500426 1.93537 0.279306 0.484145 1.87613 0.271414 0.479475 
1.82069 0.284226 0.497507 1.7613 0.293128 0.537216 1.69188 0.287758 0.586539 
1.62889 0.290369 0.647263 1.5659 0.29298 0.707987 1.49653 0.287685 0.757344 
1.43822 0.2982 0.797731 1.38916 0.322689 0.820435 1.34351 0.352842 0.829764 
1.29912 0.385224 0.832138 1.25466 0.417524 0.834475 1.20792 0.446221 0.84317 
1.15208 0.461707 0.861955 1.07958 0.453938 0.886467 1.00702 0.446088 0.910933 
0.950081 0.460116 0.929094 0.89537 0.477666 0.940851 0.833098 0.48517 0.948245 
0.777196 0.500574 0.966994 0.721452 0.516751 0.978154 0.653595 0.517399 0.974637 
0.585896 0.51882 0.963531 0.525695 0.530202 0.956762 0.456838 0.530083 0.944986 
0.382363 0.522502 0.929961 0.307888 0.51492 0.914936 0.237895 0.512731 0.910184 
0.175165 0.519064 0.924984 0.106013 0.514995 0.959046 0.040073 0.511606 1.00173 
-0.0262554 0.491672 1.0314 -0.0837012 0.45948 1.04313 -0.154418 0.434841 1.05491 
-0.235642 0.41171 1.08106 -0.31953 0.387502 1.11429 -0.40101 0.368292 1.13151 
-0.478478 0.364237 1.10023 -0.571284 0.381008 1.00657 -0.460031 -0.718555 -0.442594 
-0.523247 -0.711742 -0.443427 -0.570607 -0.684989 -0.419737 -0.632946 -0.679825 -0.381679 
-0.695901 -0.675478 -0.343967 -0.752648 -0.660492 -0.330927 -0.780971 -0.597517 -0.36171 
-0.799495 -0.482592 -0.433461 -0.376383 -0.795774 -0.373537 -0.353034 -0.862305 -0.303613 
-0.325193 -0.923429 -0.223432 -0.29955 -0.98635 -0.159862 -0.278936 -1.05426 -0.122244 
-0.247182 -1.10569 -0.101215 -0.215366 -1.15703 -0.0801498 -0.192401 -1.22126 -0.0488532 
-0.155249 -1.2672 -0.00165895 -0.0981453 -1.28663 0.0570636 -0.0387542 -1.30247 0.109429 
0.00626735 -1.33795 0.161163 0.05031 -1.37474 0.212343 0.104095 -1.39802 0.261465 
0.158455 -1.41885 0.287888 0.216942 -1.43364 0.309028 0.264656 -1.4633 0.331608 
0.304094 -1.50564 0.372432 0.34704 -1.54388 0.422977 0.400762 -1.56725 0.472063 
0.455185 -1.58799 0.498523 0.516023 -1.59909 0.513341 0.573987 -1.61401 0.526497 
0.63915 -1.62049 0.559169 0.705443 -1.62715 0.615525 0.765901 -1.64213 0.676199 
0.819005 -1.66632 0.724928 0.884205 -1.67257 0.757676 0.955992 -1.66591 0.779812 
1.02194 -1.64986 0.795986 1.07564 -1.62473 0.812854 1.14008 -1.60745 0.829148 
1.20444 -1.5901 0.845446 1.25539 -1.56599 0.869389 1.30701 -1.55142 0.914069 
1.34843 -1.54447 0.993915 -0.919859 -0.133852 -0.378314 -0.978384 -0.0578381 -0.245379 
-1.00331 -0.0207102 -0.114426 -0.999968 -2.35882e-005 -1.79317e-006 -0.982118 0.0257502 0.0776842 
-0.964006 0.0731873 0.111033 -0.957569 0.159536 0.11117 2.65631 -0.275732 0.789937 
2.66072 -0.386712 0.897939 -0.936029 0.363561 0.177483 -0.931299 0.424022 0.240032 
-0.907698 0.453476 0.305806 -0.866396 0.451925 0.417246 -0.814946 0.438141 0.605716 
-0.680266 0.778329 0.505453 -0.677836 0.685133 0.547905 2.81806 -0.429289 0.911691 
2.75856 -0.4827 0.9558 -0.929188 0.176969 0.356886 -0.893304 0.112957 0.567101 
-0.851003 0.0897403 0.708498 -0.822228 0.0982395 0.806303 -0.800065 0.119229 0.887188 
-0.77818 0.143436 0.96116 -0.75253 0.17093 1.02107 -0.714021 0.201822 1.05059 
-0.662029 0.237945 1.03801 -0.648326 0.308622 0.971207 -0.724756 0.52444 0.704791 
-0.66214 0.529988 0.725023 2.6134 -0.620326 1.06937 2.55672 -0.690254 1.13245 
2.4914 -0.738641 1.18497 2.43824 -0.79137 1.23037 2.38509 -0.844026 1.2758 
2.3211 -0.888781 1.32181 2.26905 -0.939225 1.36026 2.21792 -0.984306 1.3848 
2.15155 -1.00922 1.38938 2.08755 -1.02985 1.37999 2.04348 -1.062 1.36261 
1.99949 -1.0942 1.34522 1.93816 -1.11376 1.32876 1.88351 -1.13819 1.31195 
1.85323 -1.18038 1.29383 1.80664 -1.21069 1.27658 1.75918 -1.24037 1.25938 
1.71425 -1.27188 1.24204 1.69515 -1.32224 1.22332 1.67188 -1.36956 1.20483 
1.64055 -1.411 1.18676 1.59978 -1.44555 1.1692 1.5466 -1.47105 1.15231 
1.50408 -1.50433 1.13484 1.4601 -1.53653 1.11745 1.41045 -1.6289 1.08063 

LINES 44 529
4 36 37 38 35 
18 33 39 40 41 42 43 44 45 46 47 48 49 50 51 52 53 54 29 
9 34 55 56 57 58 59 60 61 24 
7 33 62 63 64 65 66 32 
19 33 67 68 69 70 71 72 73 74 75 76 77 78 79 80 81 82 83 28 
4 32 84 85 27 
34 32 86 87 88 89 90 91 92 93 94 95 96 97 98 99 100 101 102 103 104 105 106 107 108 109 110 111 112 113 114 115 116 117 8 
5 31 118 119 120 25 
4 30 121 122 23 
6 29 123 124 125 126 22 
5 29 127 128 129 20 
4 27 130 131 26 
4 27 132 133 26 
6 26 134 135 136 137 25 
21 25 138 139 140 141 142 143 144 145 146 147 148 149 150 151 152 153 154 155 156 14 
16 25 157 158 159 160 161 162 163 164 165 166 167 168 169 170 18 
13 24 171 172 173 174 175 176 177 178 179 180 181 23 
18 24 182 183 184 185 186 187 188 189 190 191 192 193 194 195 196 197 12 
10 22 208 209 210 211 212 213 214 215 20 
5 22 216 217 218 21 
3 21 219 16 
6 21 220 221 222 223 10 
5 18 233 234 235 17 
6 18 236 237 238 239 16 
4 17 240 241 9 
7 17 242 243 244 245 246 11 
6 9 254 255 256 257 9 
9 12 263 264 265 266 267 268 269 13 
7 12 270 271 272 273 274 8 
59 12 275 276 277 278 279 280 281 282 283 284 285 286 287 288 289 290 291 292 293 294 295 296 297 298 299 300 301 302 303 304 305 306 307 308 309 310 311 312 313 314 315 316 317 318 319 320 321 322 323 324 325 326 327 328 329 330 331 2 
10 11 332 333 334 335 336 337 338 339 9 
38 11 340 341 342 343 344 345 346 347 348 349 350 351 352 353 354 355 356 357 358 359 360 361 362 363 364 365 366 367 368 369 370 371 372 373 374 375 0 
9 9 376 377 378 379 380 381 382 5 
4 8 383 384 3 
7 5 385 386 387 388 389 2 
4 7 390 391 4 
4 6 392 393 3 
12 5 394 395 396 397 398 399 400 401 402 403 2 
3 2 404 4 
3 4 405 2 
27 3 406 407 408 409 410 411 412 413 414 415 416 417 418 419 420 421 422 423 424 425 426 427 428 429 430 0 
3 1 431 0 
22 23 198 199 200 201 202 203 204 205 206 207 19 232 231 230 229 228 227 226 225 224 20 
15 16 247 248 249 250 251 252 253 15 258 259 260 261 262 5 

POINT_DATA 432
SCALARS DY_raw double
LOOKUP_TABLE default
147.665 121.226 166.042 103.914 132.759 139.327 112.544 224.962 112.724 
101.603 249.127 112.857 119.473 157.898 141.109 116.672 159.019 88.3379 
115.985 123.291 95.0906 106.417 110.632 81.1367 88.3647 156.258 175.91 
153.677 119.515 117.136 110.582 257.027 124.655 113.522 96.2782 331.744 
273.421 146.614 181.8 125.009 132.354 148.633 168.478 172.813 181.192 
147.332 186.776 220.35 185.562 154.44 154.44 132.478 142.205 129.132 
123.65 95.7009 126.401 153.589 160.635 160.228 113.955 95.4328 111.614 
112.675 111.173 112.749 116.824 114.993 124.711 139.96 126.402 122.871 
124.495 139.087 128.055 130.326 144.394 122.349 132.832 132.263 119.653 
105.467 116.474 119.562 138.538 145.397 120.589 110.68 110.68 106.268 
103.216 104.775 109.555 107.68 118.861 98.1742 108.048 96.8653 92.4994 
118.907 129.61 116.561 142.606 115.051 95.6836 84.7924 96.4531 106.259 
103.757 117.505 93.8525 102.556 114.773 101.82 111.412 117.98 96.2858 
106.507 200.017 192.459 169.094 94.451 107.176 106.808 111.51 122.84 
116.099 124.342 115.084 94.0427 155.802 173.01 182.915 182.915 152.859 
140.877 158.259 157.589 153.753 147.593 157.706 181.401 156.998 121.935 
125.933 110.746 105.607 121.509 91.5861 89.899 109.838 102.782 102.782 
115.308 94.288 94.288 113.999 150.442 155.909 157.139 150.296 123.739 
113.113 116.408 100.675 102.604 108.135 108.135 109.969 108.162 112.339 
101.18 108.872 116.634 128.233 128.692 128.692 108.92 117.557 117.557 
120.626 106.818 97.8892 108.717 112.074 105.856 97.7754 109.433 116.591 
100.621 115.509 98.6816 91.5488 102.678 107.368 104.899 123.404 125.353 
114.03 104.262 103.241 99.2549 84.7735 87.8534 93.16 109.58 127.563 
140.773 112.128 122.675 129.318 126.912 104.525 98.9795 94.5891 97.4809 
107.251 105.353 104.411 120.356 109.213 103.743 148.614 196.895 100.737 
102.948 110.999 116.705 116.705 118.994 120.56 123.268 130.56 104.116 
105.676 109.157 127.091 126.995 126.005 129.661 102.793 117.249 100.028 
107.651 121.26 138.961 121.854 163.126 157.25 169.655 149.366 146.022 
135.942 122.458 104.856 101.572 103.276 99.9805 111.18 114.536 118.109 
126.087 111.753 137.984 125.837 124 135.613 135.613 143.076 144.891 
95.1424 108.629 114.015 105.027 107.343 128.821 105.835 98.9944 85.3203 
82.8965 81.5041 80.9748 90.7077 108.676 107.877 115.458 112.395 119.779 
114.777 127.708 129.149 129.149 130.873 105.049 113.448 115.841 137.481 
156.517 140.773 144.097 139.931 128.433 140.369 143.707 131.346 131.346 
130.431 110.681 110.681 130.797 129.673 129.673 143.166 143.166 133.024 
170.386 147.281 131.719 130.547 130.547 123.801 123.758 132.485 143.527 
134.475 123.028 130.278 132.234 110.121 136.254 131.446 136.93 112.857 
109.248 121.526 128.776 105.652 100.028 92.7463 91.453 98.9505 111.293 
108.915 102.754 117.93 128.742 94.3833 108.529 116.593 104.399 120.38 
109.646 125.971 145.426 123.783 119.874 133.796 133.077 150.078 118.294 
105.769 105.769 91.91 83.2525 90.6461 82.3257 93.2281 103.028 122.336 
102.714 104.955 104.955 114.693 100.361 100.361 112.434 110.893 121.74 
134.64 128.782 112.868 111.529 122.305 98.5583 99.8612 149.463 147.678 
137.794 135.117 151.055 134.162 141.651 94.4433 95.5151 141.307 134.826 
120.167 132.069 130.407 124.758 136.824 136.846 133.625 124.5 192.454 
172.463 113.331 122.595 114.99 109.026 117.004 91.0449 106.455 88.1509 
79.0278 79.0278 65.2031 76.1975 76.1975 87.5187 87.5187 92.5895 100.793 
100.793 92.6252 93.3701 93.3701 99.3059 105.068 120.741 127.047 123.919 

FIELD FieldData 7
DY_minmax 1 432 double
0.309379 0.210186 0.378324 0.145234 0.253454 0.278097 0.177613 0.599377 0.178287 
0.136566 0.690042 0.178786 0.203607 0.347771 0.284783 0.193101 0.351977 0.0867963 
0.190524 0.217932 0.112131 0.154624 0.170438 0.059779 0.0868968 0.341618 0.415346 
0.331935 0.203766 0.194841 0.170253 0.71968 0.22305 0.181282 0.116587 1 
0.781186 0.305435 0.437445 0.224379 0.251933 0.31301 0.387464 0.403728 0.435163 
0.308128 0.456113 0.582075 0.451558 0.334798 0.334798 0.252402 0.288893 0.239846 
0.21928 0.11442 0.229601 0.331605 0.358038 0.356512 0.182907 0.113415 0.174121 
0.178105 0.172467 0.178383 0.193671 0.186799 0.223258 0.280473 0.229604 0.216358 
0.222449 0.277196 0.235806 0.244326 0.297108 0.214399 0.253726 0.251593 0.204282 
0.151062 0.192356 0.203943 0.275134 0.300869 0.207794 0.17062 0.17062 0.154067 
0.142617 0.148463 0.166397 0.159365 0.201313 0.1237 0.160744 0.118789 0.102409 
0.201485 0.241639 0.192682 0.2904 0.187017 0.114356 0.0734943 0.117243 0.154032 
0.144646 0.196226 0.107486 0.140138 0.185974 0.137377 0.173363 0.198007 0.116615 
0.154964 0.505791 0.477435 0.389776 0.109731 0.157474 0.156093 0.173734 0.21624 
0.19095 0.221875 0.187143 0.108199 0.339907 0.404466 0.441627 0.441627 0.328865 
0.283911 0.349126 0.346612 0.332219 0.309107 0.347049 0.435948 0.344393 0.212846 
0.227846 0.170866 0.151588 0.211248 0.0989829 0.0926533 0.16746 0.140987 0.140987 
0.187982 0.10912 0.10912 0.183073 0.319797 0.340307 0.344922 0.31925 0.219613 
0.179745 0.192108 0.133081 0.140319 0.161072 0.161072 0.167952 0.161173 0.176844 
0.134977 0.163837 0.192956 0.236476 0.238195 0.238195 0.164015 0.19642 0.19642 
0.207934 0.156131 0.122631 0.163253 0.17585 0.152521 0.122204 0.165941 0.192797 
0.132878 0.188736 0.125604 0.098843 0.140597 0.158191 0.148928 0.218358 0.225667 
0.183189 0.146538 0.14271 0.127754 0.0734236 0.0849787 0.104888 0.166491 0.233959 
0.28352 0.176053 0.21562 0.240544 0.231519 0.147528 0.126721 0.110249 0.121099 
0.157756 0.150633 0.147098 0.206921 0.165114 0.144593 0.31294 0.494079 0.133316 
0.141608 0.171817 0.193224 0.193224 0.201811 0.207687 0.217845 0.245205 0.145991 
0.151844 0.164906 0.232189 0.23183 0.228115 0.241832 0.14103 0.195266 0.130654 
0.159255 0.210311 0.276722 0.212543 0.367383 0.34534 0.391881 0.31576 0.303214 
0.265395 0.214809 0.14877 0.136447 0.142839 0.130477 0.172494 0.185087 0.198493 
0.228423 0.174643 0.273057 0.227486 0.220592 0.264161 0.264161 0.29216 0.298972 
0.112325 0.162926 0.183131 0.149411 0.158099 0.238681 0.152443 0.126777 0.075475 
0.0663813 0.0611576 0.0591717 0.0956873 0.163099 0.160102 0.188545 0.177054 0.204756 
0.18599 0.234504 0.239909 0.239909 0.246378 0.149491 0.181003 0.189982 0.27117 
0.342591 0.283519 0.295993 0.280363 0.237226 0.282005 0.294528 0.248154 0.248154 
0.244721 0.170624 0.170624 0.246094 0.241877 0.241877 0.292501 0.292501 0.254448 
0.394621 0.307936 0.249551 0.245154 0.245154 0.219846 0.219684 0.252426 0.293854 
0.259893 0.216947 0.244146 0.251484 0.168522 0.266567 0.248527 0.269102 0.178786 
0.165246 0.21131 0.238509 0.151756 0.130653 0.103336 0.0984834 0.126612 0.172918 
0.163999 0.140882 0.19782 0.238385 0.109477 0.162548 0.192802 0.147056 0.20701 
0.166738 0.227989 0.300979 0.219778 0.205111 0.257343 0.254648 0.318429 0.199185 
0.152193 0.152193 0.100198 0.0677171 0.0954562 0.0642399 0.105143 0.141908 0.214348 
0.140734 0.149142 0.149142 0.185674 0.131905 0.131905 0.177201 0.171419 0.212115 
0.260513 0.238534 0.178828 0.173805 0.214232 0.125141 0.130029 0.316123 0.309425 
0.272344 0.262302 0.322097 0.258717 0.286815 0.109702 0.113724 0.285523 0.261209 
0.206213 0.250865 0.244628 0.223437 0.268705 0.268787 0.256705 0.222468 0.477415 
0.402415 0.180564 0.215321 0.18679 0.164415 0.194344 0.0969525 0.154768 0.0860949 
0.0518671 0.0518671 0 0.0412482 0.0412482 0.0837228 0.0837228 0.102747 0.133525 
0.133525 0.102881 0.105676 0.105676 0.127946 0.149562 0.208365 0.232024 0.22029 

WidthEq 1 432 double
5.37906 4.39517 11.079 10.4523 9.87626 12.8849 8.66451 2.43469 11.4812 
12.4423 2.40171 10.5619 9.33302 4.95681 1.71719 9.68122 8.92709 13.5595 
12.8005 5.94181 9.14718 13.4608 10.6445 7.23299 8.1441 7.42042 4.33365 
5.03641 5.00089 8.32835 2.15768 2.11978 8.05039 8.55526 4.60147 1.17712 
1 2.22189 2.09615 7.96461 7.35969 6.38055 5.70111 5.18324 4.85834 
5.74249 5.04766 4.59243 5.30422 6.26559 6.26559 6.92808 6.79964 7.30688 
7.68871 6.80852 6.49837 6.0861 5.8473 6.00682 7.0627 8.00219 8.44585 
8.01836 7.96096 8.22196 8.14823 8.35246 7.35953 6.36866 7.0359 7.5479 
8.02708 7.42945 8.3561 8.09955 7.48416 8.30124 7.84664 7.86011 8.45314 
8.93169 7.67333 6.51644 6.90001 6.61666 8.06387 7.69822 7.69822 7.40805 
7.55123 8.13871 8.99305 9.19221 8.61837 9.57625 9.21203 9.7613 9.80807 
8.85146 8.6087 9.01256 7.62385 8.84575 9.17588 8.62202 8.30425 7.46339 
6.55164 6.51946 6.94346 7.79384 7.73041 8.66229 8.15267 8.10129 9.8539 
10.3232 3.28523 4.01795 5.85396 3.83798 4.29005 8.65214 8.34183 7.71281 
9.95522 8.39685 8.07782 9.02857 4.61367 4.16399 3.95119 3.95119 5.1872 
5.83922 6.08356 6.73035 7.28247 7.22713 6.98579 6.92157 7.98157 9.47652 
9.11705 8.37386 7.61434 7.03082 6.76031 6.56449 6.07104 6.05613 6.05613 
5.24127 5.60422 5.60422 4.28608 7.39568 6.62189 6.19345 6.30555 7.32972 
8.97355 8.97863 9.72689 9.20141 9.68963 9.68963 11.4121 12.4109 12.4494 
8.72001 8.57667 7.98475 6.84705 6.57812 6.57812 7.35303 6.7221 6.7221 
6.05169 6.42923 8.50769 7.43485 7.11502 7.21111 7.55171 7.23046 7.36127 
8.74316 8.43174 9.04364 8.78898 8.63819 8.21133 7.89468 7.30356 7.76292 
6.25798 6.98801 7.08933 7.18273 7.62385 7.53427 7.35112 6.85529 6.28986 
5.83636 10.6508 8.89173 7.62401 7.22602 9.10183 9.23566 9.38439 9.07789 
12.7815 13.518 12.9229 12.3895 11.7511 9.36901 6.25465 3.942 8.27619 
7.93813 7.19383 6.29065 6.29065 5.84921 5.86728 5.66305 5.71522 13.6077 
12.5224 11.8948 12.2626 11.966 11.5949 11.4162 12.6332 11.3436 12.1797 
11.4871 10.412 9.33508 10.5578 7.6118 7.93131 6.64123 7.58881 7.67063 
8.32027 9.29655 11.5973 10.8432 11.0189 10.8923 11.056 10.3841 11.1687 
10.9781 12.9755 7.92687 8.11556 8.07259 6.96867 6.96867 5.92246 5.04275 
11.9018 11.0636 10.7363 11.1728 11.7543 9.31462 13.4116 16.0239 17.6903 
18.7714 19.2761 19.0898 16.3179 12.5319 12.001 10.0302 10.1401 7.85615 
6.66771 6.50899 4.88609 4.88609 4.48635 5.03863 5.07573 5.37764 5.04624 
4.80522 5.46009 5.50052 5.81622 6.22595 5.90502 5.87251 6.0352 6.0352 
5.55206 6.37136 6.37136 5.95893 6.00317 6.00317 5.52462 5.52462 5.84001 
5.3288 5.85238 6.2361 6.27416 6.27416 6.74002 6.87068 6.52136 6.52358 
7.28833 8.99004 8.90458 10.1376 12.203 12.3935 12.9137 12.7127 10.5619 
9.54343 7.957 7.64066 7.53633 7.91593 8.37878 10.2154 11.5505 10.4225 
10.3512 10.2823 9.37234 8.37355 8.61551 7.95367 7.05302 6.83865 6.42892 
6.91 6.79314 6.11417 6.50059 6.41084 5.96575 5.95655 5.52082 6.67786 
7.08442 7.08442 7.29008 7.71233 7.26883 7.42977 7.23839 6.75587 5.92436 
6.72876 6.83214 6.83214 6.5128 7.03241 7.03241 6.59541 11.2675 11.8751 
11.7153 12.4069 14.2862 14.7829 14.3937 12.5178 11.4024 11.1261 10.9372 
10.4312 10.5281 11.4965 7.42216 8.5088 11.0977 10.7101 13.5337 13.1722 
12.7838 11.868 12.5322 12.1577 11.3626 11.9087 12.5243 13.0884 8.65626 
9.32223 9.36489 8.41112 8.48628 8.35991 7.29166 8.08876 7.16434 8.80389 
9.47668 9.47668 9.72562 8.63993 8.63993 7.65049 7.65049 7.2571 6.3823 
6.3823 6.36232 6.51248 6.51248 6.88288 6.8044 6.42733 6.09657 5.40158 

rRFP 1 432 double
2588.15 2526.1 2947.62 2908.1 2871.77 3061.51 2795.35 2402.46 2972.99 
3033.6 2400.38 2915.01 2837.51 2561.52 2357.21 2859.47 2811.91 3104.06 
3056.19 2623.64 2825.79 3097.83 2920.22 2705.07 2762.53 2716.89 2522.22 
2566.54 2564.3 2774.15 2384.99 2382.6 2756.62 2788.46 2539.11 2323.15 
2311.98 2389.04 2381.11 2751.21 2713.06 2651.31 2608.46 2575.8 2555.31 
2611.07 2567.25 2538.54 2583.43 2644.06 2644.06 2685.84 2677.74 2709.73 
2733.81 2678.3 2658.74 2632.74 2617.68 2627.74 2694.33 2753.58 2781.56 
2754.6 2750.98 2767.44 2762.79 2775.67 2713.05 2650.56 2692.64 2724.93 
2755.15 2717.46 2775.9 2759.72 2720.91 2772.44 2743.77 2744.62 2782.02 
2812.2 2732.84 2659.88 2684.07 2666.2 2757.47 2734.41 2734.41 2716.11 
2725.14 2762.19 2816.07 2828.63 2792.44 2852.85 2829.88 2864.52 2867.47 
2807.14 2791.83 2817.3 2729.72 2806.78 2827.6 2792.67 2772.63 2719.6 
2662.1 2660.07 2686.81 2740.44 2736.44 2795.21 2763.07 2759.83 2870.36 
2899.96 2456.1 2502.31 2618.1 2490.96 2519.47 2794.57 2775 2735.33 
2876.75 2778.47 2758.35 2818.31 2539.88 2511.52 2498.1 2498.1 2576.05 
2617.17 2632.58 2673.37 2708.19 2704.7 2689.48 2685.43 2752.28 2846.56 
2823.89 2777.02 2729.12 2692.32 2675.26 2662.91 2631.79 2630.85 2630.85 
2579.46 2602.35 2602.35 2519.22 2715.33 2666.53 2639.51 2646.58 2711.17 
2814.84 2815.16 2862.35 2829.21 2860 2860 2968.63 3031.62 3034.05 
2798.85 2789.81 2752.48 2680.73 2663.77 2663.77 2712.64 2672.85 2672.85 
2630.57 2654.38 2785.46 2717.8 2697.63 2703.69 2725.17 2704.91 2713.16 
2800.31 2780.67 2819.26 2803.2 2793.69 2766.77 2746.8 2709.52 2738.49 
2643.58 2689.62 2696.01 2701.9 2729.72 2724.07 2712.52 2681.25 2645.59 
2616.99 2920.62 2809.68 2729.73 2704.63 2822.93 2831.37 2840.75 2821.42 
3054.99 3101.44 3063.91 3030.27 2990.01 2839.78 2643.37 2497.52 2770.86 
2749.54 2702.6 2645.64 2645.64 2617.8 2618.94 2606.06 2609.35 3107.1 
3038.65 2999.07 3022.27 3003.56 2980.16 2968.89 3045.64 2964.31 3017.04 
2973.36 2905.56 2837.64 2914.75 2728.96 2749.11 2667.75 2727.51 2732.67 
2773.64 2835.21 2980.31 2932.75 2943.83 2935.85 2946.17 2903.8 2953.28 
2941.26 3067.23 2748.83 2760.73 2758.02 2688.4 2688.4 2622.42 2566.94 
2999.51 2946.65 2926.01 2953.54 2990.21 2836.35 3094.73 3259.48 3364.57 
3432.75 3464.58 3452.83 3278.02 3039.25 3005.77 2881.48 2888.41 2744.37 
2669.42 2659.41 2557.06 2557.06 2531.85 2566.68 2569.02 2588.06 2567.16 
2551.96 2593.26 2595.81 2615.72 2641.56 2621.32 2619.27 2629.53 2629.53 
2599.06 2650.73 2650.73 2624.72 2627.51 2627.51 2597.33 2597.33 2617.22 
2584.98 2618 2642.2 2644.6 2644.6 2673.98 2682.22 2660.19 2660.33 
2708.56 2815.88 2810.49 2888.25 3018.51 3030.52 3063.33 3050.65 2915.01 
2850.78 2750.73 2730.78 2724.2 2748.14 2777.33 2893.16 2977.36 2906.22 
2901.72 2897.38 2839.99 2777 2792.26 2750.52 2693.72 2680.2 2654.36 
2684.7 2677.33 2634.51 2658.88 2653.22 2625.15 2624.57 2597.09 2670.06 
2695.7 2695.7 2708.67 2735.3 2707.33 2717.48 2705.41 2674.98 2622.54 
2673.27 2679.79 2679.79 2659.65 2692.42 2692.42 2664.86 2959.51 2997.83 
2987.75 3031.37 3149.89 3181.21 3156.67 3038.36 2968.02 2950.59 2938.68 
2906.77 2912.88 2973.95 2717 2785.53 2948.8 2924.36 3102.43 3079.63 
3055.14 2997.38 3039.27 3015.65 2965.51 2999.95 3038.77 3074.35 2794.83 
2836.83 2839.52 2779.37 2784.11 2776.14 2708.77 2759.04 2700.74 2804.14 
2846.57 2846.57 2862.27 2793.8 2793.8 2731.4 2731.4 2706.59 2651.42 
2651.42 2650.16 2659.63 2659.63 2682.99 2678.04 2654.26 2633.4 2589.57 

rGFP 1 432 double
3219.37 2957.88 4264.64 3511.21 3736.23 4220.28 3400.21 2972.78 3719.28 
3689.25 3023.4 3617.05 3540.11 3207.74 2667.38 3554.6 3844.65 3622.89 
3909.74 3157.64 3294.88 3857.52 3602.69 3011.93 3144.72 3584.57 3187.4 
3199.05 3022.75 3400.62 2663.67 2969.91 3428.59 3396.28 2868.09 2815.57 
2698.49 2750.83 2806.15 3420.72 3399.15 3373.43 3385.58 3320.8 3305.36 
3271.12 3367.85 3437.01 3409.33 3392.73 3392.73 3342.89 3392.01 3368.62 
3375.78 3076.65 3246.47 3359.83 3364.35 3387.53 3229.9 3188.74 3367.74 
3328.54 3310.11 3352.09 3376.98 3385.54 3342.88 3316.43 3314.42 3352.49 
3424.4 3458.41 3495.11 3480.65 3505.74 3440.72 3467.35 3464.67 3436.51 
3367.07 3318.81 3204.19 3380.98 3387.11 3397.48 3277.11 3277.11 3212.31 
3204.48 3277.8 3410.3 3414.89 3449.46 3365.21 3420.41 3370.6 3332.31 
3477.57 3540.84 3475.58 3512.28 3442.78 3303.05 3156.15 3226.04 3218.12 
3104.85 3191.14 3076.73 3224.37 3312.31 3307.06 3333.37 3380.86 3373.86 
3524.57 3082.17 3198.36 3414.94 2787.57 2884.86 3349.19 3355.27 3372.51 
3580.86 3469.15 3354.7 3274.14 3143.89 3145.48 3147.8 3147.8 3217.98 
3247.68 3387.85 3485.7 3544.77 3491.74 3526.77 3680.65 3678.16 3580.59 
3573.21 3352.44 3229.2 3279.38 3044.22 3015.21 3091.9 3047.53 3047.53 
3029.43 2953.48 2953.48 2913.68 3537.69 3457.48 3398.3 3372.77 3332.04 
3440.09 3470.25 3404.32 3369.17 3472.86 3472.86 3680.05 3767.46 3823.63 
3307.36 3358.83 3356.36 3303.09 3271.62 3271.62 3225.96 3215.3 3215.3 
3155.06 3111.83 3257.88 3233.36 3222.48 3188.41 3163.44 3216.32 3283.33 
3304.81 3399.01 3317.51 3229.69 3312.02 3306.7 3253.21 3326.36 3398.17 
3138.67 3153.65 3156.98 3137.99 3071.37 3086.98 3109.9 3176.27 3227.42 
3246.67 3619.33 3515.86 3410.99 3342.14 3376.44 3339.21 3312.73 3309.99 