# vtk DataFile Version 3.0
vtk output
ASCII
DATASET POLYDATA
POINTS 830 float
0.844075 -1.02992 1.59936 0.270291 -0.685185 1.70325 0.801075 -2.14269 0.101119 
2.62403 -1.58854 0.403111 6.44858 -1.42676 0.859657 2.7619 -0.678915 0.878225 
6.40489 -1.25177 0.975921 6.69752 -0.963082 1.20066 6.91394 -0.92159 1.24871 
1.66806 -2.23508 -0.37068 6.07608 -0.976537 0.891979 -0.164549 0.274836 1.02579 
6.17732 -0.718051 1.07869 6.68955 0.00169505 1.37607 3.14884 -1.69363 -0.351627 
0.881929 0.886333 1.05374 3.08837 -0.10287 0.492369 0.522195 0.860655 0.922503 
0.995618 1.01331 1.07013 3.36313 0.287474 -0.0488883 0.132753 0.925108 0.444977 
0.279173 -0.990546 -1.14162 3.62736 -1.08049 -0.860475 4.61203 -0.122864 -0.681444 
0.301834 0.991083 0.0189379 7.60077 0.592487 0.404314 0.0437799 0.186179 -0.800612 
3.4492 0.186552 -0.492801 4.91593 0.591219 -0.0823491 7.8995 0.53013 0.0640334 
3.70298 -0.734027 -1.71056 3.8232 -0.169846 -1.19048 3.60343 0.139595 -0.754444 
0.244161 0.430315 -1.10144 3.2981 0.548446 -0.744475 7.1802 1.14371 0.0150464 
3.23769 -1.02853 -2.15766 5.09008 -0.556569 -1.58504 5.84276 -0.403154 -1.41167 
1.15254 1.49839 -0.528999 2.63582 -1.07004 -2.43428 5.64829 -0.210658 -1.54032 
3.56239 0.308985 -1.37173 6.90716 1.23519 -0.4334 7.3183 1.24522 -0.38938 
3.20821 -0.609919 -2.35938 5.95022 -0.0524251 -1.64767 7.06139 1.18823 -0.695043 
2.41896 -0.63475 -2.60993 6.86562 1.08404 -1.27093 6.8663 1.07421 -1.16047 
6.86863 1.07692 -1.06828 6.87271 1.09216 -0.994358 6.87925 1.11128 -0.926562 
6.8981 1.13269 -0.865097 6.94424 1.15396 -0.810269 7.00214 1.17334 -0.755681 
3.13117 -0.571302 -2.41791 3.07041 -0.539712 -2.45577 3.01615 -0.520136 -2.47125 
2.96214 -0.508703 -2.47429 2.90758 -0.50151 -2.47427 2.85158 -0.502496 -2.48001 
2.79316 -0.517233 -2.49541 2.73547 -0.527872 -2.50793 2.67678 -0.544172 -2.52442 
2.61902 -0.554951 -2.53704 2.55945 -0.572334 -2.55437 2.49562 -0.591285 -2.57315 
2.46628 -0.781438 -2.50817 2.51137 -0.886247 -2.4274 2.55416 -0.968612 -2.39901 
2.59447 -1.03086 -2.41561 2.33495 -0.649194 -2.59139 2.26729 -0.669457 -2.55735 
2.20575 -0.701537 -2.52187 2.14252 -0.749563 -2.5065 2.08023 -0.790595 -2.50427 
2.02033 -0.817965 -2.49243 1.96003 -0.849786 -2.46567 1.90232 -0.867884 -2.42022 
1.84203 -0.899616 -2.3934 1.78241 -0.925424 -2.38047 1.72181 -0.956802 -2.37145 
1.66251 -0.982882 -2.34066 1.60355 -1.00915 -2.29193 1.5443 -1.03813 -2.23608 
1.48506 -1.06702 -2.18017 1.42637 -1.09173 -2.13034 1.36825 -1.11216 -2.08655 
1.31094 -1.12693 -2.04781 1.2545 -1.1378 -1.9973 1.20022 -1.1364 -1.93814 
1.14434 -1.14299 -1.89365 1.0884 -1.14784 -1.86599 1.03363 -1.14607 -1.83367 
0.979895 -1.14048 -1.78062 0.923455 -1.15136 -1.7301 0.866158 -1.16604 -1.6913 
0.810512 -1.16818 -1.67076 0.756836 -1.15805 -1.65062 0.705041 -1.13827 -1.61467 
0.651122 -1.13373 -1.56236 0.598825 -1.12102 -1.49526 0.546541 -1.10823 -1.42812 
0.492913 -1.10203 -1.37464 0.441124 -1.08561 -1.30946 0.39005 -1.05957 -1.24212 
0.335462 -1.02844 -1.1851 7.12795 1.25753 -0.713522 7.19038 1.29012 -0.676482 
7.25122 1.27828 -0.561974 7.00778 1.18715 -0.583471 6.95637 1.20281 -0.496262 
5.93257 -0.155178 -1.59369 5.90117 -0.272804 -1.51511 5.89949 -0.0233991 -1.63231 
5.84247 -0.0312662 -1.63385 5.78259 -0.0585553 -1.62195 5.71726 -0.122149 -1.59044 
6.01502 0.0081274 -1.68132 6.07595 0.0456197 -1.72216 6.13554 0.0733537 -1.75179 
6.19562 0.100728 -1.7546 6.25385 0.115461 -1.74823 6.31228 0.130287 -1.73277 
6.36857 0.132925 -1.72587 6.42457 0.132863 -1.71185 6.48306 0.144875 -1.67128 
6.54158 0.153912 -1.60571 6.59972 0.160346 -1.53296 6.65663 0.171342 -1.4662 
6.70521 0.196493 -1.4175 6.73869 0.236896 -1.38672 6.77882 0.289042 -1.37431 
6.81369 0.354847 -1.38002 6.8559 0.423741 -1.39197 6.89067 0.489564 -1.39768 
6.92888 0.542017 -1.38523 6.9517 0.592683 -1.36639 6.97621 0.643074 -1.34758 
7.02438 0.69392 -1.33534 7.07326 0.736112 -1.31095 7.10789 0.772056 -1.27412 
7.15467 0.797499 -1.22538 7.20191 0.827141 -1.18273 7.23473 0.863379 -1.14586 
7.27331 0.902959 -1.11519 7.30622 0.93909 -1.07838 7.35454 0.962678 -1.03078 
7.40973 0.963932 -0.970865 7.46319 0.942699 -0.908529 7.51669 0.919962 -0.838212 
7.56803 0.884954 -0.776514 7.61961 0.851345 -0.713846 7.67453 0.836697 -0.63784 
7.72916 0.819343 -0.554716 7.78039 0.780085 -0.462906 7.82967 0.727148 -0.326604 
7.87134 0.645868 -0.144364 3.28248 -0.584587 -2.29622 3.34467 -0.578175 -2.25917 
3.40352 -0.566289 -2.23367 3.46071 -0.5595 -2.21182 3.5169 -0.55204 -2.16107 
3.56359 -0.567488 -2.05933 3.60884 -0.626674 -1.90215 3.23898 -0.760976 -2.27413 
3.24209 -0.895696 -2.20419 7.38825 1.15642 -0.281856 7.43827 1.05002 -0.179205 
7.48244 0.953674 -0.0521535 7.52689 0.863254 0.106029 7.56659 0.744098 0.262061 
7.24599 1.19821 -0.184889 6.8509 1.23272 -0.440177 6.79328 1.22357 -0.460682 
6.73812 1.22946 -0.479632 6.68351 1.23954 -0.504673 6.62591 1.23047 -0.525122 
6.56937 1.22539 -0.524703 6.51261 1.21585 -0.500334 6.4561 1.2077 -0.475 
6.39933 1.19817 -0.450632 6.3428 1.19308 -0.450213 6.28521 1.18409 -0.470605 
6.23088 1.19574 -0.494542 6.17687 1.20712 -0.500619 6.12091 1.20324 -0.481297 
6.06168 1.17435 -0.425392 6.00024 1.12873 -0.345123 5.93881 1.08311 -0.264855 
5.87957 1.05423 -0.208949 5.82308 1.04625 -0.183482 5.76824 1.05082 -0.176279 
5.71394 1.05949 -0.17523 5.65938 1.06668 -0.175216 5.60285 1.0616 -0.174798 
5.54304 1.0358 -0.170891 5.48349 1.00824 -0.141139 5.42336 0.976405 -0.105344 
5.36162 0.936404 -0.0843345 5.30146 0.907552 -0.0735404 5.23914 0.866342 -0.0714313 
5.1757 0.816688 -0.0572055 5.11426 0.777798 -0.0353928 5.05355 0.734629 -0.0344841 
5.00293 0.694326 -0.0577273 4.96656 0.645941 -0.0762324 6.96678 1.25259 -0.380014 
7.02335 1.24944 -0.313987 7.07556 1.21729 -0.232234 7.12773 1.18068 -0.117496 
3.5072 0.32207 -1.44884 3.45391 0.346018 -1.5183 3.39872 0.359103 -1.5954 
3.34354 0.372268 -1.67245 3.28997 0.393527 -1.73477 3.23457 0.402233 -1.78787 
3.17852 0.404143 -1.81865 3.12065 0.393507 -1.8402 3.06437 0.39095 -1.84704 
3.00865 0.392583 -1.85996 2.95132 0.386122 -1.8876 2.89582 0.392213 -1.92447 
2.83878 0.388461 -1.95924 2.78217 0.386098 -1.984 2.72237 0.361344 -1.98838 
2.66275 0.336594 -1.98373 2.60099 0.299655 -1.98765 2.54169 0.28093 -2.01488 
2.48816 0.299286 -2.05216 2.43714 0.334016 -2.09599 2.38362 0.352372 -2.13328 
2.32377 0.329464 -2.15442 2.26091 0.28416 -2.14616 2.19909 0.24268 -2.11715 
2.13764 0.205377 -2.10327 2.07994 0.194737 -2.11579 2.02371 0.196642 -2.15561 
1.96962 0.210734 -2.18686 1.91364 0.210886 -2.20082 1.85324 0.183795 -2.21587 
1.79394 0.16507 -2.24311 1.73905 0.173586 -2.26925 1.68388 0.179394 -2.28826 
1.62407 0.153591 -2.28436 1.56479 0.127598 -2.25349 1.50692 0.109606 -2.21701 
1.45069 0.104162 -2.19879 1.39417 0.0991628 -2.19832 1.33629 0.0874787 -2.21157 
1.28173 0.0946638 -2.21157 1.22932 0.114125 -2.20293 1.17286 0.110524 -2.2105 
1.11716 0.111189 -2.21508 1.06261 0.118471 -2.215 1.00831 0.127138 -2.21395 
0.953485 0.131801 -2.20669 0.897838 0.12966 -2.18615 0.841687 0.120443 -2.13447 
0.787741 0.120607 -2.04911 0.733824 0.117789 -1.93877 0.679922 0.115057 -1.82836 
0.624617 0.104329 -1.72358 0.568911 0.0938478 -1.64569 0.518808 0.107906 -1.57747 
0.482198 0.145193 -1.52813 0.461879 0.189909 -1.49024 0.427301 0.241288 -1.45806 
0.384649 0.29397 -1.42573 0.34962 0.341149 -1.38746 0.330142 0.377281 -1.33737 
0.303912 0.401688 -1.26891 0.281794 0.416887 -1.18837 3.60886 0.255777 -1.40409 
3.6546 0.195624 -1.42326 3.70023 0.117368 -1.4008 3.75335 0.00297231 -1.31237 
3.56042 0.278221 -1.23084 3.55981 0.242967 -1.08389 3.56977 0.197463 -0.925 
5.68823 -0.317912 -1.4662 5.73449 -0.383901 -1.40823 5.78684 -0.406855 -1.39224 
5.60037 -0.157216 -1.58003 5.55215 -0.109718 -1.5878 5.49789 -0.103945 -1.5617 
5.43812 -0.13693 -1.49964 5.37584 -0.186287 -1.43103 5.31473 -0.225869 -1.38264 
5.26209 -0.211922 -1.34176 5.21254 -0.177249 -1.31341 5.1605 -0.155706 -1.30331 
5.10849 -0.133984 -1.29308 5.06006 -0.091912 -1.26856 5.01331 -0.0402679 -1.2373 
4.96681 0.0128503 -1.20501 4.92006 0.0644944 -1.17376 4.87163 0.106567 -1.14923 
4.81811 0.11701 -1.12286 4.75946 0.0916793 -1.04942 4.6926 0.0169116 -0.890554 
3.71787 -0.558628 -1.76445 3.75378 -0.443642 -1.80387 3.77577 -0.373206 -1.80758 
3.78627 -0.322558 -1.78535 3.79366 -0.282219 -1.74796 3.79983 -0.250226 -1.69839 
3.80381 -0.234963 -1.62447 3.80616 -0.232123 -1.53218 3.80782 -0.235291 -1.42608 
3.81255 -0.219929 -1.31596 2.70053 -1.06378 -2.41963 2.76273 -1.0579 -2.39646 
2.82161 -1.04685 -2.37453 2.8774 -1.04791 -2.36572 2.93142 -1.0592 -2.35958 
2.98437 -1.07876 -2.3412 3.03757 -1.09988 -2.29985 3.09535 -1.09868 -2.24273 
3.16073 -1.07408 -2.1929 1.13051 1.49212 -0.418136 1.1595 1.48893 -0.327599 
1.21203 1.48644 -0.261489 1.26622 1.47097 -0.204143 1.32249 1.46615 -0.139275 
1.37906 1.46406 -0.0815416 1.43395 1.45554 -0.0554022 1.48967 1.45392 -0.042472 
1.54784 1.46725 -0.0280575 1.60408 1.46963 -0.0213435 1.66008 1.47062 -0.0156088 
1.7168 1.47569 -0.00699939 1.77035 1.46277 -0.0110428 1.82537 1.45818 -0.00922342 
1.87671 1.43159 -0.0138406 1.92819 1.40367 -0.0013383 1.98061 1.378 0.0398269 
2.03487 1.36171 0.0966304 2.08728 1.33595 0.137733 2.1385 1.30656 0.149199 
2.1884 1.27178 0.138828 2.24097 1.25328 0.130869 2.29524 1.24549 0.121407 
2.34919 1.23797 0.0940791 2.4007 1.21864 0.0403922 2.45246 1.20078 -0.012251 
2.50812 1.20301 -0.0327396 2.56651 1.21862 -0.0257451 2.62165 1.21369 -0.0151512 
2.67285 1.1842 -0.00373938 2.71973 1.12695 0.0152289 2.76567 1.06124 0.0553495 
2.80922 0.978709 0.110729 2.85325 0.89582 0.192939 2.89648 0.807264 0.280199 
2.93667 0.702453 0.347001 2.97737 0.6048 0.382722 3.02055 0.5265 0.386897 
3.06756 0.477382 0.348399 3.11828 0.454939 0.270614 3.17405 0.44227 0.170388 
3.24851 0.397552 0.0665862 5.88678 -0.475624 -1.41242 5.93356 -0.530243 -1.41868 
5.98504 -0.556059 -1.42275 6.03734 -0.576128 -1.43182 6.08721 -0.611066 -1.44231 
6.13815 -0.642035 -1.43194 6.1894 -0.673352 -1.40378 6.24065 -0.704675 -1.3756 
[...]
POINT_DATA 830
SCALARS DY_raw double
LOOKUP_TABLE default
738.033 742.252 826.177 691.397 735.578 584.314 470.255 571.28 556.581 
705.973 488.586 682.341 495.962 521.303 744.763 747.957 619.159 730.44 
578.682 741.523 551.541 849.16 648.149 560.419 580.49 413.977 689.837 
661.972 580.323 369.042 518.324 598.827 634.336 587.893 571.035 308.779 
546.798 437.201 471.846 640.115 785.197 505.794 415.078 430.599 304.105 
568.355 465.224 405.077 555.941 502.092 480.573 510.2 447.013 441.368 
461.037 417.988 430.286 583.968 578.367 602.455 680.815 680.815 662.724 
662.724 647.84 581.001 587.487 578.206 571.663 682.632 759.658 774.096 
831.654 568.238 564.449 572.482 604.935 594.952 579.974 608.502 617.054 
570.657 601.095 613.374 622.406 642.294 617.599 576.344 594.515 558.69 
591.915 621.182 626.072 649.579 572.675 578.284 613.517 656.728 653.606 
628.557 628.557 622.334 562.178 607.377 556.386 594.557 599.253 730.778 
742.803 358.116 316.654 288.888 408.244 449.427 501.406 491.393 445.322 
481.844 526.97 526.775 419.951 463.786 496.33 487.641 481.461 493.819 
503.483 503.483 569.714 547.752 542.025 519.321 502.061 471.564 529.248 
541.376 596.113 570.836 558.905 556.2 556.2 560.082 546.094 543.432 
558.13 491.246 484.237 465.834 460.464 470.057 427.373 408.099 484.769 
476.471 469.777 441.606 406.539 372.891 374.643 377.104 527.642 501.661 
522.218 542.725 572.656 617.935 646.907 544.517 484.337 352.166 361.135 
380.364 399.889 396.094 329.906 424.127 415.086 434.829 416.62 372.603 
396.163 393.609 462.668 466.394 466.394 474.951 438.171 438.171 405.514 
417.275 464.285 527.162 533.531 493.942 493.378 559.3 500.535 486.051 
486.051 553.933 532.566 554.076 541.925 570.126 577.627 534.977 503.465 
501.465 527.17 418.073 425.426 428.095 342.965 494.185 624.898 655.464 
618.25 668.093 668.093 766.494 778.603 815.319 792.942 792.942 803.064 
792.984 795.683 794.421 745.898 767.165 801.972 849.469 804.565 740.758 
743.685 771.272 804.31 804.31 798.452 827.701 795.871 789.442 754.949 
747.709 669.307 618.013 674.053 646.079 694.672 713.715 631.253 631.253 
613.985 568.895 568.895 543.649 513.965 511.239 511.239 539.975 588.301 
556.051 619.695 572.849 565.607 564.849 569.845 609.038 652.917 656.682 
536.606 600.961 619.004 589.291 623.494 467.809 466.176 499.784 502.821 
496.131 470.784 563.651 498.214 509.663 495.644 494.177 481.83 481.83 
457.539 459.465 478.249 457.167 440.741 440.741 439.253 426.619 438.853 
477.814 435.913 398.323 389.091 393.168 471.695 522.03 535.956 559.464 
589.136 609.133 648.037 673.347 621.433 625.422 607.303 768.559 703.977 
700.264 704.138 702.547 677.899 706.398 629.975 603.39 644.073 582.511 
576.567 572.523 587.389 606.585 659.32 627.141 706.778 717.066 674.763 
644.981 617.966 617.966 593.361 639.6 725.199 759.947 759.947 800.128 
777.737 777.737 771.338 710.93 710.93 652.677 604.458 566.095 521.882 
521.882 521.408 533.005 594.217 552.701 516.276 583.328 548.341 548.118 
548.118 591.524 592.571 579.005 465.478 500.252 436.058 449.997 449.997 
436.738 443.237 436.159 486.701 432.082 477.213 533.187 572.723 544.596 
514.263 514.263 438.593 433.375 433.375 480.163 456.734 464.253 444.875 
461.292 475.599 486.073 531.713 541.511 492.39 468.188 465.422 441.852 
441.852 465.668 496.142 509.239 486.388 499.938 506.507 528.004 528.564 
524.356 464.715 431.135 441.968 363.285 401.043 403.614 334.981 381.256 
360.671 392.288 498.703 425.171 464.337 448.312 453.642 439.439 481.106 
501.658 645.278 562.113 571.823 552.147 528.554 472.603 484.164 529.517 
484.691 498.773 459.744 601.607 659.556 752.241 723.735 707.803 663.145 
546.384 531.106 517.903 334.315 400.289 443.941 486.708 620.32 588.832 
483.229 419.35 458.176 475.48 645.836 731.119 602.576 645.023 580.085 
562.696 574.665 614.118 564.013 546.651 550.16 524.834 554.971 643.872 
635.38 668.018 681.6 681.6 661.816 661.816 635.099 601.451 601.451 
599.281 594.832 636.472 647.137 664.982 664.982 721.88 727.053 727.053 
796.724 725.42 747.16 765.057 690.096 679.059 695.384 695.384 626.08 
591.874 639.447 661.444 631.221 620.673 626.574 598.902 555.232 568.174 
603.538 637.752 647.697 674.762 640.639 617.806 569.814 589.002 556.973 
575.685 584.339 611.773 715.945 673.751 606.82 601.367 602.618 606.333 
517.653 483.795 425.433 463.862 419.651 445.237 455.366 448.945 495.831 
461.793 414.349 407.376 449.154 460.879 477.892 519.844 457.043 503.598 
507.89 540.031 522.016 511.494 448.284 448.284 423.5 436.407 430.385 
430.385 467.769 458.7 462.344 489.782 454.694 461.9 482.037 582.463 
652.773 815.957 758.572 763.031 746.92 670.474 620.377 652.456 585.991 
634.687 517.713 612.571 661.535 384 377.173 415.498 419.241 618.163 
633.121 630.239 646.673 702.9 673.899 698.571 750.444 689.261 689.261 
753.504 665.022 685.724 746.829 666.99 677.85 736.217 643.128 734.687 
836.233 760.013 909.644 735.303 707.405 666.944 591.014 538.018 504.342 
584.265 509.556 569.625 587.512 646.477 688.362 733.657 747.735 747.735 
752.544 694.529 697.08 745.895 464.101 468.139 439.737 414.786 445.271 
478.446 475.731 479.361 449.899 485.277 563.894 550.762 585.219 447.421 
463.62 499.529 605.174 621.916 466.136 468.381 543.482 549.303 527.533 
557.656 496.439 504.016 549.259 504.742 547.51 525.209 519.566 519.566 
530.642 514.526 543.793 546.492 580.539 570.515 570.515 561.05 527.2 
521.991 509.499 493.187 472.182 685.464 678.546 661.069 756.485 774.245 
716.87 625.43 646.676 695.594 612.379 671.601 614.586 576.126 590.623 
633.486 678.91 741.354 736.304 726.736 767.258 701.998 689.931 673.544 
681.016 766.087 775.585 735.816 722.181 770.839 723.644 708.689 729.389 
769.712 798.309 783.687 601.697 591.318 610.296 578.561 495.962 494.204 
478.442 478.442 488.586 434.883 471.279 505.828 581.874 614.192 661.111 
657.613 597.97 571.28 699.901 715.779 744.207 760.358 758.744 728.262 
680.088 692.894 709.725 464.514 432.832 407.917 382.783 430.531 625.422 
667.204 762.182 754.85 814.903 814.903 760.46 625.602 671.734 677.579 
704.119 704.119 712.055 740.341 740.341 826.442 751.591 669.966 672.485 
691.646 691.646 743.814 761.415 761.415 669.888 717.806 650.606 705.725 
664.374 660.673 852.724 836.618 557.406 553.786 502.934 507.677 507.677 
477.261 464.137 464.938 540.881 620.004 623.07 689.373 667.618 690.478 
736.854 725.45 775.871 701.392 714.658 740.917 719.34 768.78 734.787 
700.042 723.098 745.606 735.668 735.668 761.001 768.046 810.12 868.383 
924.019 936.902 998.631 998.631 1010.55 1005.68 958.193 884.659 759.721 
764.064 752.576 764.863 777.607 905.158 898.361 898.361 988.27 996.707 
810.781 759.683 716.063 733.327 743.554 760.042 709.679 728.363 720.085 
726.023 663.926 712.768 736.905 721.86 719.376 823.842 833.639 827.407 
852.683 777.058 
FIELD FieldData 7
DY_minmax 1 830 double
0.622376 0.628222 0.744516 0.557753 0.618974 0.409369 0.251318 0.391308 0.37094 
0.577951 0.276721 0.545204 0.286941 0.322055 0.631702 0.636128 0.457653 0.611854 
0.401566 0.627212 0.363956 0.776364 0.497825 0.376258 0.40407 0.173334 0.555592 
0.516979 0.403838 0.111069 0.317927 0.42948 0.478684 0.414328 0.390969 0.027563 
0.357384 0.205517 0.253523 0.486693 0.687731 0.300564 0.17486 0.196368 0.0210869 
0.387255 0.244347 0.161003 0.370052 0.295434 0.265617 0.30667 0.219113 0.211291 
0.238545 0.178893 0.195934 0.40889 0.401129 0.434508 0.543089 0.543089 0.518022 
0.518022 0.497397 0.404779 0.413766 0.400905 0.391838 0.545608 0.652341 0.672348 
0.752105 0.387093 0.381842 0.392973 0.437943 0.42411 0.403355 0.442886 0.454737 
0.390445 0.432623 0.449638 0.462153 0.489711 0.455492 0.398325 0.423505 0.373863 
0.419902 0.460457 0.467233 0.499806 0.39324 0.401013 0.449836 0.509713 0.505387 
0.470677 0.470677 0.462053 0.378695 0.441327 0.370669 0.423563 0.43007 0.612323 
0.628986 0.0959286 0.0384759 0 0.165391 0.222457 0.294484 0.28061 0.21677 
0.267378 0.329908 0.329639 0.181613 0.242355 0.28745 0.27541 0.266847 0.283971 
0.297363 0.297363 0.389138 0.358706 0.35077 0.319309 0.295392 0.253133 0.333065 
0.349871 0.425719 0.390693 0.374161 0.370412 0.370412 0.375791 0.356408 0.352719 
0.373086 0.280405 0.270694 0.245193 0.237751 0.251044 0.191898 0.16519 0.271431 
0.259932 0.250656 0.21162 0.163028 0.116403 0.11883 0.122241 0.330839 0.294838 
0.323323 0.351739 0.393215 0.455957 0.496104 0.354224 0.270831 0.0876834 0.100112 
0.126757 0.153813 0.148555 0.0568384 0.187399 0.174872 0.20223 0.176998 0.116004 
0.148651 0.145111 0.240806 0.245968 0.245968 0.257827 0.206861 0.206861 0.161608 
0.177905 0.243047 0.330174 0.339 0.284142 0.283361 0.374708 0.293278 0.273207 
0.273207 0.367271 0.337663 0.367469 0.350632 0.389709 0.400103 0.341003 0.297337 
0.294565 0.330185 0.179011 0.189199 0.192898 0.0749337 0.284478 0.465606 0.507962 
0.456395 0.525461 0.525461 0.661813 0.678594 0.72947 0.698463 0.698463 0.712489 
0.698521 0.702261 0.700512 0.633275 0.662744 0.710975 0.776791 0.714568 0.626152 
0.630207 0.668435 0.714216 0.714216 0.706098 0.746628 0.702522 0.693613 0.645816 
0.635784 0.527143 0.456065 0.533719 0.494956 0.562291 0.588678 0.474412 0.474412 
0.450484 0.388004 0.388004 0.35302 0.311888 0.30811 0.30811 0.347929 0.414893 
0.370206 0.458397 0.393482 0.383446 0.382397 0.389319 0.443629 0.504431 0.509649 
0.34326 0.432437 0.457439 0.416266 0.46366 0.247929 0.245667 0.292237 0.296445 
0.287175 0.252052 0.380737 0.290061 0.305926 0.2865 0.284468 0.267358 0.267358 
0.233698 0.236367 0.262395 0.233183 0.210421 0.210421 0.20836 0.190853 0.207806 
0.261793 0.203732 0.151643 0.13885 0.144501 0.253315 0.323063 0.34236 0.374935 
0.416051 0.443761 0.497669 0.532741 0.460805 0.466333 0.441225 0.664675 0.575186 
0.57004 0.575408 0.573204 0.539049 0.57854 0.472641 0.435803 0.492177 0.406871 
0.398634 0.393031 0.41363 0.44023 0.513304 0.468714 0.579066 0.593323 0.534703 
0.493435 0.456001 0.456001 0.421906 0.485979 0.604592 0.652742 0.652742 0.70842 
0.677394 0.677394 0.668526 0.58482 0.58482 0.5041 0.437282 0.384124 0.322858 
0.322858 0.322202 0.338271 0.423092 0.365563 0.31509 0.408002 0.359522 0.359213 
0.359213 0.419359 0.420811 0.402012 0.244699 0.292886 0.203933 0.223248 0.223248 
0.204874 0.21388 0.204072 0.274108 0.198423 0.26096 0.338522 0.393308 0.354333 
0.3123 0.3123 0.207445 0.200215 0.200215 0.265048 0.232583 0.243002 0.216149 
0.238898 0.258723 0.273237 0.33648 0.350057 0.281992 0.248454 0.244621 0.211961 
0.211961 0.244963 0.28719 0.305338 0.273674 0.29245 0.301552 0.331341 0.332117 
0.326286 0.243642 0.197111 0.212121 0.103091 0.155412 0.158976 0.0638712 0.127994 
0.0994692 0.143281 0.290739 0.188846 0.243119 0.220913 0.228298 0.208618 0.266355 
0.294834 0.493846 0.378605 0.392061 0.364796 0.332103 0.254572 0.270593 0.333437 
0.271322 0.290835 0.236754 0.433332 0.513632 0.642064 0.602564 0.580486 0.518605 
0.35681 0.33564 0.317344 0.0629484 0.154368 0.214856 0.274118 0.459263 0.415629 
0.269297 0.18078 0.234581 0.258559 0.49462 0.612796 0.434675 0.493493 0.403509 
0.379413 0.395999 0.450668 0.381238 0.35718 0.362042 0.326948 0.368709 0.491898 
0.480131 0.525358 0.544178 0.544178 0.516762 0.516762 0.479741 0.433116 0.433116 
0.430108 0.423943 0.481644 0.496423 0.521149 0.521149 0.599993 0.607162 0.607162 
0.703704 0.604898 0.635023 0.659823 0.55595 0.540656 0.563278 0.563278 0.467243 
0.419846 0.485767 0.516248 0.474368 0.459752 0.467929 0.429583 0.369071 0.387004 
0.436008 0.483417 0.497198 0.534702 0.487418 0.455779 0.389277 0.415865 0.371484 
0.397411 0.409404 0.447419 0.59177 0.533301 0.440555 0.433 0.434733 0.43988 
0.316998 0.270082 0.18921 0.24246 0.181197 0.216651 0.230687 0.22179 0.286759 
0.239593 0.17385 0.164187 0.22208 0.238326 0.261901 0.320033 0.233011 0.297521 
0.30347 0.348007 0.323044 0.308463 0.220874 0.220874 0.186531 0.204416 0.196071 
0.196071 0.247874 0.235307 0.240357 0.278378 0.229756 0.239742 0.267645 0.406805 
0.504232 0.730355 0.650837 0.657016 0.63469 0.52876 0.459342 0.503794 0.411693 
0.479171 0.317081 0.448525 0.516373 0.131796 0.122336 0.175443 0.180629 0.456274 
0.477001 0.473008 0.49578 0.573693 0.533506 0.567695 0.639574 0.554793 0.554793 
0.643814 0.521205 0.549891 0.634565 0.523932 0.538981 0.619859 0.490868 0.61774 
0.758451 0.652834 0.860175 0.618593 0.579935 0.523868 0.418654 0.345217 0.298553 
0.409302 0.305778 0.389015 0.413801 0.495508 0.553547 0.616312 0.63582 0.63582 
0.642483 0.562093 0.565628 0.63327 0.242792 0.248387 0.20903 0.174456 0.216698 
0.262669 0.258906 0.263937 0.223112 0.272134 0.381074 0.362877 0.410623 0.219677 
0.242125 0.291884 0.438274 0.461474 0.245611 0.248723 0.352789 0.360855 0.330689 
0.372429 0.287602 0.298101 0.360794 0.299106 0.358371 0.327469 0.319648 0.319648 
0.334996 0.312664 0.35322 0.356959 0.404138 0.390248 0.390248 0.377133 0.330227 
0.323009 0.305699 0.283095 0.253989 0.549532 0.539945 0.515728 0.647945 0.672555 
0.593051 0.466343 0.495783 0.563568 0.448259 0.530322 0.451317 0.398023 0.418112 
0.477506 0.54045 0.626977 0.61998 0.606722 0.662872 0.572443 0.555722 0.533014 
0.543368 0.66125 0.674412 0.619304 0.60041 0.667835 0.602438 0.581714 0.610398 
0.666273 0.7059 0.685638 0.433457 0.419074 0.445372 0.401398 0.286941 0.284505 
0.262663 0.262663 0.276721 0.202304 0.252738 0.300612 0.405988 0.450771 0.515786 
0.510939 0.428292 0.391308 0.569537 0.591539 0.630931 0.653311 0.651075 0.608837 
0.542082 0.559827 0.58315 0.243363 0.199463 0.164938 0.130109 0.196274 0.466333 
0.524229 0.655839 0.645679 0.728893 0.728893 0.653453 0.466581 0.530506 0.538606 
0.575381 0.575381 0.586379 0.625574 0.625574 0.744884 0.641163 0.528057 0.531546 
0.558098 0.558098 0.630386 0.654776 0.654776 0.527948 0.594348 0.501229 0.577607 
0.520307 0.515179 0.781302 0.758984 0.372084 0.367066 0.296602 0.303174 0.303174 
0.261026 0.242841 0.243951 0.349184 0.458824 0.463073 0.554949 0.524802 0.556479 
0.620743 0.604939 0.674808 0.571603 0.589986 0.626372 0.596473 0.664981 0.617878 
0.569732 0.601681 0.63287 0.619099 0.619099 0.654202 0.663965 0.722267 0.803001 
0.880095 0.897946 0.983484 0.983484 1 0.993254 0.927449 0.825555 0.652429 
0.658447 0.642529 0.659554 0.677213 0.853959 0.844541 0.844541 0.969127 0.980818 
0.723182 0.652376 0.591932 0.615855 0.630027 0.652874 0.583086 0.608976 0.597505 
0.605734 0.519687 0.587366 0.620814 0.599965 0.596524 0.741281 0.754856 0.746221 
0.781245 0.676453 
WidthEq 1 830 double
1.5015 2.08864 1.60197 1.53193 1 2.44461 1.98713 1.93336 1.9374 
1.93322 1.86636 2.37516 1.87824 1.74503 1.79028 2.39939 2.83699 2.34003 
2.63059 2.56883 2.64301 1.6751 2.6139 2.12209 2.42619 2.80607 1.93205 
2.60349 1.32977 3.12798 2.89811 3.20311 3.08867 1.94003 2.90756 3.23208 
2.79724 1.30914 2.14328 1.23648 1.70296 1.83353 3.80904 2.04526 2.6058 
2.33174 1.93375 2.21222 1.81819 1.69951 1.91567 1.81971 2.06425 2.04128 
1.96205 2.09503 2.04478 2.12523 1.99854 1.86281 1.74485 1.74485 1.68587 
1.68587 1.70151 1.68977 1.74506 1.67936 1.74102 1.69936 1.51723 1.53597 
1.51946 1.82367 1.89191 1.89483 1.85704 1.85606 1.89934 1.88006 1.87687 
1.86944 1.89688 1.8528 1.82355 1.82273 1.82814 1.91113 1.9298 2.02223 
2.01405 2.02119 2.05955 2.03741 2.09021 2.09765 2.06302 2.01154 2.0956 
2.16166 2.16166 2.18837 2.20375 2.14229 2.17437 2.12736 2.11351 1.81815 
1.83914 2.24904 2.25384 2.3481 2.19643 2.12027 1.88021 2.00076 1.9354 
1.79078 1.78382 1.8046 1.97246 1.77558 1.62549 1.61231 1.52211 1.45427 
1.41178 1.41178 1.30446 1.32424 1.28999 1.2435 1.2745 1.25346 1.17655 
1.22515 1.10091 1.13817 1.15422 1.2087 1.2087 1.25092 1.37657 1.37875 
1.43717 1.5857 1.55859 1.72877 1.75247 1.8316 2.01283 2.1752 2.04328 
2.14562 2.14518 2.29471 2.37819 2.5808 2.74925 2.89863 2.44412 2.37513 
2.44034 2.21923 2.06495 2.21007 2.33848 2.56326 2.91351 2.70304 2.77056 
2.90164 3.11334 3.24644 2.89418 1.79526 1.72154 1.74004 1.69684 1.7415 
1.69384 1.69348 1.64921 1.62427 1.62427 1.60271 1.58349 1.58349 1.55848 
1.46629 1.43478 1.40345 1.4029 1.43579 1.45079 1.37947 1.49871 1.53428 
1.53428 1.46853 1.50702 1.48463 1.51722 1.52503 1.57539 1.66943 1.71759 
1.72215 1.58969 2.13474 2.05624 2.21135 2.95578 3.60891 2.83614 2.61184 
2.36122 2.04898 2.04898 1.67413 1.60675 1.48181 1.41494 1.41494 1.37801 
1.28126 1.34839 1.27598 1.25983 1.19076 1.22088 1.17307 1.24588 1.36518 
1.34348 1.30291 1.21766 1.21766 1.17086 1.14515 1.21832 1.23292 1.23137 
1.29323 1.37297 1.54801 1.45773 1.52001 1.39648 1.42073 1.59989 1.59989 
1.67492 1.85577 1.85577 1.9281 2.04152 2.06093 2.06093 2.02177 1.84563 
1.98212 1.93761 2.08931 2.08272 2.06819 2.01484 1.93651 1.83282 1.76114 
1.85978 1.74633 1.68149 1.94746 1.90115 3.70797 3.17459 2.89454 3.01176 
3.62111 3.46367 3.21019 1.99422 2.0414 2.13929 1.84393 1.92663 1.92663 
2.09741 2.20036 2.19768 2.10918 1.96914 1.96914 1.84271 1.77741 1.72191 
1.71711 1.81774 1.89773 1.91066 2.11469 2.25067 2.50704 2.24419 2.06315 
1.89133 1.86686 1.87606 2.0337 2.55713 2.79695 2.99646 1.79947 1.9885 
1.97077 1.93433 1.90533 2.02754 1.98362 2.25233 2.49049 1.43781 1.70606 
1.89168 1.90893 1.89983 1.7934 1.7233 1.75778 1.71675 1.68818 1.68411 
1.74408 1.77995 1.77995 1.90226 1.85209 1.77778 1.70216 1.70216 1.60679 
1.63502 1.63502 1.67496 1.79407 1.79407 1.95861 2.0925 2.17491 2.35359 
2.35359 2.28847 2.42742 2.33557 2.91324 3.14601 3.29742 3.19507 3.10654 
3.10654 3.27454 3.37532 3.32933 2.08796 1.93594 1.91059 1.82203 1.82203 
1.806 1.77216 1.81179 1.74663 1.83446 1.82449 1.75576 1.73932 1.83673 
1.88395 1.88395 1.85101 1.84962 1.84962 1.80078 1.89519 1.89452 1.84321 
1.84735 1.53015 1.36561 1.19406 1.19316 1.34021 1.39606 1.45349 1.53691 
1.53691 1.47164 1.34399 1.35518 1.41646 1.43733 1.49986 1.64834 1.62754 
1.73359 1.86378 1.92004 2.01492 2.4176 2.30332 2.36126 2.46649 2.37189 
2.14195 1.8544 1.55184 1.68532 1.80349 2.02726 2.44523 2.81791 1.51985 
1.74634 1.50516 1.76425 1.81479 1.96487 2.09306 2.34256 2.4896 2.40204 
2.8212 2.68569 2.71825 2.65153 2.40017 2.06479 2.12922 2.23121 2.39386 
3.15759 3.36064 3.22467 3.44869 3.4093 3.16841 2.91628 2.17544 2.16924 
2.27159 2.52195 2.46444 2.36628 2.76974 2.57882 2.82666 2.72939 2.73618 
2.62372 2.65528 2.67662 2.93156 2.94297 2.7741 2.84044 2.60447 2.012 
2.02094 1.67408 1.56374 1.56374 1.49393 1.49393 1.51156 1.55429 1.55429 
1.60634 1.68557 1.70373 1.74337 1.72436 1.72436 1.6091 1.63455 1.63455 
1.48115 1.57146 1.53986 1.4221 1.53035 1.51395 1.46082 1.46082 1.50757 
1.53608 1.49305 1.44694 1.46699 1.52494 1.58715 1.66733 1.93223 1.91841 
1.8566 1.7784 1.75068 1.66531 1.7374 1.8065 1.99273 1.88512 3.15187 
2.95436 2.78685 2.59267 2.44404 2.71566 2.78379 3.03212 2.05483 2.13157 
2.1979 2.19816 2.19298 2.04862 2.21122 2.18811 2.42499 2.51389 2.59003 
2.78328 2.88686 2.76729 2.58381 2.28589 2.06613 1.98177 2.01814 1.97284 
1.88527 1.80815 1.74276 1.80227 1.85241 1.85241 1.91983 1.9072 1.90896 
1.90896 1.89099 1.9223 1.88774 1.83024 1.91062 1.93773 1.91132 2.92741 
2.75011 2.59561 2.32028 2.04063 1.97389 2.13778 2.31741 2.25826 2.67565 
2.52059 3.30007 3.03349 2.735 3.04523 2.85789 2.80699 2.96588 2.73088 
2.65292 2.57878 2.04076 1.71018 1.74971 1.68559 1.62965 1.80509 1.80509 
1.7408 2.00652 1.97655 1.83343 2.04084 1.98821 1.80455 1.93457 1.79807 
1.65908 1.81743 1.6054 1.95621 2.0641 2.28748 2.60792 2.86291 3.14869 
2.92307 3.25228 3.10241 2.89536 2.53845 2.43408 2.36406 2.32403 2.32403 
2.28531 2.52325 2.4639 2.28044 2.74769 2.72284 2.95785 3.11406 2.86724 
2.74697 2.36549 2.41928 2.33601 2.2632 1.87418 1.47455 1.37412 1.5217 
1.7606 1.95566 2.44472 2.71978 2.58235 2.64735 2.4587 2.57402 2.54848 
2.42999 2.26162 2.07743 1.95765 1.99888 1.91423 1.84138 1.84244 1.84244 
1.86647 1.89125 1.85259 1.85746 1.82532 1.81543 1.81543 1.76203 1.69525 
1.68462 1.67183 1.8734 2.00702 2.77139 2.81832 2.77343 1.99659 1.91843 
1.85079 2.00555 2.09862 2.04862 2.81768 2.47335 2.41526 2.69194 2.9597 
2.72362 2.56075 2.48967 2.49655 2.43888 2.42626 2.54198 2.67884 2.75033 
2.7654 2.19387 2.00581 1.94157 1.91496 2.0735 2.27795 2.24074 2.13014 
1.97423 1.99032 2.04211 2.87305 2.83526 2.66141 2.5823 1.87824 1.76542 
1.80266 1.80266 1.86636 1.9124 1.72577 1.65842 1.49503 1.49682 1.41551 