# vtk DataFile Version 3.0
vtk output
ASCII
DATASET POLYDATA
POINTS 458 float
-0.919003 0.0985497 1.97351 -0.47445 1.37433 1.58264 4.23954 0.0745821 0.0342532 
0.636706 1.40315 0.0577644 0.682863 1.22829 0.099559 2.55686 0.778076 -0.0356836 
2.21484 -1.50321 -0.190882 3.72528 -0.0219947 -0.470056 3.6756 -0.165547 -0.337548 
-0.648105 -0.0657673 -0.0244912 3.54958 0.00871111 -0.65824 1.06533 1.46094 -0.519668 
2.497 1.022 -0.625891 2.91039 0.699952 -0.662528 3.04907 0.472006 -0.979251 
3.24123 -0.647725 -0.725143 3.18266 0.331995 -1.0256 -0.864734 0.566413 -0.873022 
2.54741 0.98833 -1.16488 2.18893 1.18524 -1.40298 -0.670195 -0.818296 -1.27883 
2.75769 0.729336 -1.85481 -0.700528 -0.471751 -1.6673 0.0189582 0.87782 -2.27426 
-0.346783 -0.790897 -2.30152 0.143473 -0.815574 -2.57468 -0.0900534 0.0725139 -2.89333 
-0.0357793 0.0207154 -2.80189 0.0184784 -0.0170087 -2.73972 0.0661379 -0.0683794 -2.71468 
0.0991923 -0.127193 -2.71119 0.106704 -0.183831 -2.71341 0.11409 -0.240562 -2.71562 
0.144362 -0.300753 -2.71942 0.174525 -0.360928 -2.72321 0.1799 -0.417354 -2.72528 
0.173723 -0.472034 -2.72655 0.167329 -0.52668 -2.72781 0.169279 -0.582843 -2.72371 
0.177483 -0.642665 -2.7023 0.157814 -0.713223 -2.64971 0.21838 -0.900071 -2.57023 
0.277727 -0.944191 -2.58434 0.328259 -0.970065 -2.62702 0.381601 -0.961963 -2.68073 
0.434489 -0.958939 -2.72863 0.48758 -0.964667 -2.75452 0.541372 -0.972537 -2.76568 
0.595626 -0.980741 -2.76944 0.64988 -0.988945 -2.77321 0.704134 -0.997149 -2.77698 
0.758867 -1.00558 -2.77336 0.814095 -1.01412 -2.76235 0.87054 -1.02143 -2.73653 
0.928217 -1.02067 -2.71054 0.987168 -1.01492 -2.67705 1.04134 -1.03709 -2.65153 
1.09781 -1.04428 -2.62571 1.15683 -1.02799 -2.61418 1.21336 -1.02463 -2.61032 
1.2682 -1.02902 -2.61401 1.32427 -1.02533 -2.61753 1.3826 -1.00678 -2.62075 
1.43867 -1.00308 -2.62427 1.49351 -1.00747 -2.62796 1.55004 -1.00411 -2.62409 
1.60952 -0.988156 -2.60518 1.66665 -0.997714 -2.56462 1.72047 -1.03234 -2.51718 
1.77583 -1.05347 -2.47686 1.83198 -1.06268 -2.45107 1.88966 -1.06192 -2.42508 
1.94937 -1.05459 -2.38418 2.00649 -1.06756 -2.33628 2.06619 -1.06024 -2.29538 
2.12388 -1.05936 -2.26938 2.18033 -1.06667 -2.24356 2.23747 -1.07612 -2.203 
2.29508 -1.0859 -2.15504 2.35269 -1.09569 -2.10709 2.40983 -1.10514 -2.06653 
2.46773 -1.11301 -2.01854 2.52762 -1.11123 -1.96296 2.59028 -1.09461 -1.89967 
2.65094 -1.09115 -1.83666 2.71113 -1.08736 -1.78103 2.77313 -1.06837 -1.73249 
2.83387 -1.05425 -1.69144 2.89605 -1.03333 -1.64285 2.95568 -1.01714 -1.59423 
3.00801 -0.982678 -1.54458 3.04691 -0.935971 -1.4937 3.10237 -0.890388 -1.42164 
3.16771 -0.8468 -1.32057 3.22442 -0.802367 -1.19664 3.25357 -0.754074 -1.05596 
3.26028 -0.702693 -0.898864 0.0392941 -0.83383 -2.54917 -0.0339737 -0.846294 -2.53143 
-0.0941118 -0.866496 -2.51478 -0.148774 -0.870865 -2.48761 -0.200429 -0.865814 -2.43955 
-0.251038 -0.857282 -2.38402 -0.300327 -0.836734 -2.33564 0.0367157 0.932128 -2.34059 
0.0719211 0.983031 -2.37103 0.105741 1.03342 -2.37168 0.15564 1.07958 -2.38093 
0.212744 1.1129 -2.4059 0.268038 1.11896 -2.42414 0.324037 1.1121 -2.40571 
0.381182 1.10265 -2.36514 0.43831 1.09309 -2.32458 0.494 1.08421 -2.30618 
0.548733 1.07578 -2.30256 0.603004 1.06768 -2.30632 0.657549 1.06139 -2.31005 
0.713602 1.06496 -2.31358 0.77194 1.08351 -2.31679 0.827994 1.0871 -2.32032 
0.882556 1.08091 -2.32404 0.937117 1.07472 -2.32777 0.993169 1.0783 -2.33129 
1.05151 1.09686 -2.33451 1.10758 1.10055 -2.33803 1.16241 1.09616 -2.34172 
1.21849 1.09985 -2.34524 1.27682 1.1184 -2.34846 1.33289 1.12209 -2.35198 
1.38773 1.1177 -2.35567 1.44426 1.12106 -2.3518 1.50376 1.13713 -2.33289 
1.5612 1.12959 -2.29229 1.6171 1.10865 -2.24456 1.67833 1.12596 -2.20345 
1.74009 1.15348 -2.17691 1.79834 1.15796 -2.15084 1.85579 1.15053 -2.11024 
1.91418 1.14254 -2.05486 1.97552 1.14372 -1.97711 2.04224 1.16004 -1.85468 
2.1129 1.16849 -1.65849 -0.708238 -0.526352 -1.66104 -0.713195 -0.581676 -1.64013 
-0.706382 -0.639393 -1.59036 -0.682698 -0.700274 -1.51206 -0.672053 -0.759796 -1.40318 
2.80978 0.66324 -1.73395 2.85246 0.598652 -1.60873 2.88392 0.538157 -1.45667 
2.94677 0.489541 -1.24315 2.26644 1.10186 -1.4774 2.32808 1.05555 -1.49518 
2.38514 1.01524 -1.43822 2.45563 0.994404 -1.31718 -0.711496 -0.799234 -1.11219 
-0.750938 -0.75454 -0.974588 -0.791266 -0.698835 -0.873735 -0.834139 -0.650436 -0.795207 
-0.878706 -0.616528 -0.739299 -0.909449 -0.568788 -0.713571 -0.907284 -0.51484 -0.741769 
-0.89086 -0.460289 -0.815428 -0.904899 -0.400253 -0.924079 -0.916512 -0.340278 -1.04775 
-0.929541 -0.280242 -1.16389 -0.956194 -0.218606 -1.25682 -0.975245 -0.158885 -1.31317 
-0.998547 -0.0988287 -1.35439 -1.00594 -0.0414845 -1.38187 -1.0136 0.0160538 -1.41675 
-1.03259 0.0753056 -1.45083 -1.02765 0.131245 -1.50142 -0.997531 0.183224 -1.54635 
-0.980924 0.236786 -1.56807 -0.980565 0.291732 -1.53671 -0.994452 0.348066 -1.46725 
-0.989385 0.400857 -1.36385 -0.962433 0.450821 -1.23783 -0.912077 0.502341 -1.07057 
-0.637531 -0.879002 -1.27537 -0.618961 -0.937884 -1.2561 -0.595562 -0.997955 -1.2149 
-0.586132 -1.05611 -1.15787 -0.574143 -1.11296 -1.09355 -0.535749 -1.16371 -1.03074 
-0.483888 -1.20101 -0.975833 -0.432873 -1.25325 -0.928753 -0.383444 -1.31324 -0.889236 
-0.332027 -1.36357 -0.842124 -0.276835 -1.38918 -0.794491 -0.222107 -1.41445 -0.754257 
-0.172315 -1.46198 -0.73666 -0.123001 -1.50928 -0.726444 -0.0696928 -1.53377 -0.708371 
-0.0146728 -1.55713 -0.668097 0.0383716 -1.59344 -0.628081 0.092555 -1.6122 -0.60989 
0.14688 -1.60985 -0.635617 0.202791 -1.59038 -0.675782 0.257115 -1.58804 -0.701509 
0.311299 -1.60679 -0.683318 0.364358 -1.643 -0.6433 0.419225 -1.66401 -0.610373 
0.473479 -1.67221 -0.614141 0.52712 -1.66762 -0.654603 0.58209 -1.64758 -0.709548 
0.634977 -1.64456 -0.757438 0.686287 -1.66196 -0.783573 0.735993 -1.69659 -0.795283 
0.788449 -1.71658 -0.799294 0.842411 -1.72669 -0.803101 0.896649 -1.735 -0.806871 
0.950903 -1.74321 -0.810639 1.00516 -1.75141 -0.814407 1.05941 -1.75962 -0.818175 
1.11366 -1.76782 -0.821942 1.16794 -1.77592 -0.825708 1.22248 -1.78221 -0.829437 
1.27901 -1.77886 -0.82557 1.3388 -1.76088 -0.80662 1.39802 -1.75674 -0.765779 
1.45774 -1.75273 -0.717534 1.51927 -1.7334 -0.676379 1.57885 -1.71681 -0.657458 
1.64024 -1.68501 -0.645608 1.70185 -1.65514 -0.626413 1.76137 -1.64898 -0.58553 
1.8214 -1.64294 -0.537243 1.88519 -1.61217 -0.488457 1.95002 -1.5713 -0.446857 
2.01437 -1.5389 -0.394336 2.07763 -1.52447 -0.331166 2.14578 -1.50995 -0.257161 
-0.876695 0.648461 -1.11295 -0.870687 0.712465 -1.31747 -0.836026 0.755034 -1.47437 
-0.798414 0.77991 -1.58559 -0.768306 0.820134 -1.64572 -0.71887 0.866627 -1.66237 
-0.659184 0.912797 -1.64997 -0.607542 0.960295 -1.63702 -0.571223 1.01026 -1.63042 
-0.52043 1.0582 -1.63224 -0.459782 1.10464 -1.63476 -0.397817 1.15104 -1.64479 
-0.336703 1.19787 -1.66959 -0.276562 1.24504 -1.70919 -0.216218 1.29019 -1.74143 
-0.155481 1.32446 -1.74432 -0.0953897 1.34104 -1.718 -0.0340561 1.36239 -1.68419 
0.0252648 1.37729 -1.6653 0.0846825 1.39955 -1.66105 0.143321 1.41671 -1.65689 
0.205682 1.44815 -1.63027 0.27071 1.47829 -1.55931 0.332962 1.49233 -1.43666 
0.375274 1.51173 -1.268 0.366573 1.51928 -1.07412 0.35532 1.50674 -0.873266 
0.391542 1.46974 -0.670657 0.455852 1.44336 -0.452842 0.536013 1.42412 -0.207985 
3.10801 0.393633 -1.0127 2.60467 0.915098 -1.17331 2.66002 0.870048 -1.14857 
2.71966 0.859881 -1.08096 2.77902 0.827644 -0.969447 2.84239 0.781436 -0.826438 
2.2613 1.1746 -1.14065 2.32805 1.1507 -0.930343 2.38755 1.10961 -0.786926 
2.44415 1.07302 -0.695166 2.11761 1.26538 -1.23253 2.05834 1.2752 -1.10214 
2.00604 1.27601 -1.02446 1.95513 1.29343 -0.990925 1.90544 1.32816 -0.979214 
1.85328 1.35007 -0.975163 1.80111 1.37197 -0.971112 1.75096 1.40704 -0.96679 
1.69851 1.42702 -0.962779 1.64502 1.43691 -0.95158 1.59222 1.44454 -0.925647 
1.54084 1.45139 -0.877553 1.48994 1.45802 -0.822058 1.43856 1.46487 -0.773963 
1.38574 1.47239 -0.748032 1.33197 1.48037 -0.736873 1.27819 1.48835 -0.725715 
1.22536 1.49577 -0.699786 1.17367 1.5006 -0.651733 1.12116 1.4933 -0.58914 
3.24586 0.253812 -0.938028 3.30323 0.195176 -0.854421 3.35899 0.158203 -0.784895 
3.41364 0.116488 -0.7303 3.47528 0.0753973 -0.690998 2.52734 1.01216 -0.893036 
-0.757471 0.580074 -0.588073 -0.670268 0.610551 -0.353293 -0.594865 0.650053 -0.178738 
-0.523501 0.692028 -0.0465561 -0.454259 0.734914 0.054241 -0.387688 0.777131 0.118046 
-0.325127 0.810618 0.144719 -0.268084 0.83008 0.149044 -0.21909 0.866222 0.146972 
-0.183542 0.914509 0.146142 -0.132782 0.962225 0.144309 -0.0724252 1.00676 0.141757 
-0.0117802 1.04115 0.138876 0.0466861 1.06054 0.135678 0.10744 1.09491 0.132789 
0.169684 1.13905 0.130102 0.231928 1.18319 0.127415 0.292681 1.21756 0.124527 
0.351132 1.23686 0.121326 0.411569 1.26947 0.11655 0.473368 1.30394 0.106167 
0.543064 1.33578 0.0859089 -0.795978 0.476662 -0.685283 -0.769318 0.406753 -0.531333 
-0.755675 0.345899 -0.4301 -0.732183 0.285725 -0.387052 -0.715528 0.227133 -0.367645 
-0.693771 0.16777 -0.348582 -0.687287 0.110205 -0.306207 -0.688377 0.052558 -0.241056 
-0.681937 -0.00900473 -0.146817 3.13583 0.412425 -0.991648 3.26569 -0.595963 -0.717719 
3.31411 -0.54813 -0.697119 3.36575 -0.501245 -0.654481 3.40475 -0.452601 -0.60353 
3.4565 -0.405733 -0.5609 3.50672 -0.358173 -0.540426 3.5415 -0.308126 -0.526294 
3.58245 -0.259318 -0.497752 3.62059 -0.210851 -0.431913 3.18981 -0.699087 -0.552571 
3.13874 -0.750043 -0.402287 3.09561 -0.801587 -0.282241 3.06504 -0.854264 -0.20018 
3.0176 -0.903777 -0.146634 2.95838 -0.950896 -0.121957 2.89642 -0.997293 -0.111929 
2.83389 -1.04334 -0.109281 2.77163 -1.08759 -0.106596 2.71098 -1.12198 -0.103715 
2.65442 -1.14166 -0.100649 2.60542 -1.17781 -0.0985775 2.56986 -1.22609 -0.0977472 
2.5191 -1.27392 -0.0959169 2.45845 -1.32036 -0.0934038 2.39581 -1.36648 -0.0944611 
2.33308 -1.41312 -0.106677 2.27284 -1.46203 -0.137681 3.61516 -0.0866019 -0.499549 
3.02242 0.548483 -0.800671 2.97784 0.620448 -0.695325 2.8444 0.656665 -0.5259 
2.79323 0.65502 -0.388951 2.75012 0.683555 -0.259042 2.70433 0.700357 -0.151584 
2.65498 0.710454 -0.0812454 2.60475 0.731562 -0.047638 2.53962 0.955953 -0.437587 
2.55601 0.894336 -0.269725 2.55834 0.83561 -0.137988 3.71469 -0.103798 -0.402561 
3.63836 0.0244675 -0.562025 -0.579464 -0.0836206 0.119043 -0.508743 -0.0801178 0.255666 
-0.439605 -0.0507178 0.370906 -0.37205 -0.00911879 0.449487 -0.305974 0.0332142 0.505908 
-0.242347 0.0662338 0.547346 -0.180543 0.0839458 0.595863 -0.116746 0.114713 0.64466 
-0.0537022 0.143908 0.686019 0.00485009 0.150408 0.712127 0.0631429 0.155207 0.738201 
0.124664 0.174429 0.779353 0.185885 0.188316 0.827802 0.247697 0.209446 0.868994 
0.307771 0.225917 0.895309 0.370116 0.257264 0.92193 0.43316 0.286458 0.963289 
0.493166 0.292389 1.01157 0.552692 0.298545 1.05246 0.614299 0.328417 1.07165 
0.675207 0.36044 1.07611 0.733366 0.377814 1.07287 0.792304 0.400299 1.06974 
0.850171 0.415766 1.06646 0.908819 0.436342 1.06328 0.9647 0.442161 1.05241 
1.01961 0.448332 1.02676 1.0751 0.468444 0.979224 1.12811 0.475628 0.924014 
1.18187 0.484383 0.876242 1.24059 0.515501 0.85111 1.30025 0.546058 0.840746 
1.35661 0.551661 0.837264 1.41098 0.547607 0.826186 1.46562 0.551979 0.8005 
1.52108 0.571883 0.752959 1.57378 0.577041 0.697707 1.62545 0.572098 0.649652 
1.67829 0.56468 0.623723 1.73158 0.556928 0.605173 1.78442 0.549509 0.579245 
1.83609 0.544567 0.53119 1.8888 0.549833 0.47594 1.94456 0.571654 0.428438 
2.00099 0.587798 0.402996 2.05895 0.610625 0.385077 2.11538 0.626769 0.359635 
2.17116 0.648699 0.312135 2.22416 0.655873 0.256925 2.27717 0.663046 0.201725 
2.33295 0.684976 0.154225 2.38746 0.702023 0.0992284 2.44305 0.726087 0.0443668 
2.49833 0.744815 -0.00319891 3.80867 0.0153694 -0.343125 3.87774 0.0232625 -0.235967 
3.94047 0.0267937 -0.153283 4.00351 0.0434032 -0.0850696 4.06369 0.0470923 -0.0294463 
4.12291 0.0512325 0.0113951 4.18271 0.0693133 0.0303471 0.649508 1.30553 0.0799491 
-0.485239 1.3205 1.57426 -0.506253 1.26837 1.55919 -0.542222 1.2185 1.54514 
-0.56132 1.16547 1.55961 -0.568169 1.10982 1.61034 -0.571785 1.05322 1.68311 
-0.576251 0.997056 1.74109 -0.582633 0.941795 1.76952 -0.59056 0.887227 1.7758 
-0.600871 0.833172 1.77482 -0.623418 0.781121 1.76726 -0.673528 0.733545 1.74678 
-0.734342 0.687894 1.71219 -0.783125 0.64027 1.68419 -0.795349 0.586504 1.68334 
-0.788319 0.529062 1.71827 -0.807937 0.475189 1.77731 -0.824171 0.420803 1.83611 
-0.843159 0.367142 1.88025 -0.87683 0.31616 1.90317 -0.895929 0.263128 1.91763 
-0.905172 0.208605 1.93142 -0.912142 0.153586 1.95247 
LINES 29 520
16 26 27 28 29 30 31 32 33 34 35 36 37 38 39 40 25 
58 25 41 42 43 44 45 46 47 48 49 50 51 52 53 54 55 56 57 58 59 60 61 62 63 64 65 66 67 68 69 70 71 72 73 74 75 76 77 78 79 80 81 82 83 84 85 86 87 88 89 90 91 92 93 94 95 96 15 
9 25 97 98 99 100 101 102 103 24 
40 23 104 105 106 107 108 109 110 111 112 113 114 115 116 117 118 119 120 121 122 123 124 125 126 127 128 129 130 131 132 133 134 135 136 137 138 139 140 141 19 
7 22 142 143 144 145 146 20 
6 21 147 148 149 150 14 
6 19 151 152 153 154 18 
27 20 155 156 157 158 159 160 161 162 163 164 165 166 167 168 169 170 171 172 173 174 175 176 177 178 179 17 
32 17 234 235 236 237 238 239 240 241 242 243 244 245 246 247 248 249 250 251 252 253 254 255 256 257 258 259 260 261 262 263 3 
3 14 264 16 
7 18 265 266 267 268 269 13 
6 19 270 271 272 273 12 
22 19 274 275 276 277 278 279 280 281 282 283 284 285 286 287 288 289 290 291 292 293 11 
7 16 294 295 296 297 298 10 
3 18 299 12 
24 17 300 301 302 303 304 305 306 307 308 309 310 311 312 313 314 315 316 317 318 319 320 321 3 
3 16 331 14 
11 15 332 333 334 335 336 337 338 339 340 8 
3 10 359 8 
4 14 360 361 13 
8 13 362 363 364 365 366 367 5 
5 12 368 369 370 5 
3 7 371 8 
3 10 372 7 
9 7 427 428 429 430 431 432 433 2 
3 4 434 3 
25 1 435 436 437 438 439 440 441 442 443 444 445 446 447 448 449 450 451 452 453 454 455 456 457 0 
75 20 180 181 182 183 184 185 186 187 188 189 190 191 192 193 194 195 196 197 198 199 200 201 202 203 204 205 206 207 208 209 210 211 212 213 214 215 216 217 218 219 220 221 222 223 224 225 226 227 228 229 230 231 232 233 6 358 357 356 355 354 353 352 351 350 349 348 347 346 345 344 343 342 341 15 
66 17 322 323 324 325 326 327 328 329 330 9 373 374 375 376 377 378 379 380 381 382 383 384 385 386 387 388 389 390 391 392 393 394 395 396 397 398 399 400 401 402 403 404 405 406 407 408 409 410 411 412 413 414 415 416 417 418 419 420 421 422 423 424 425 426 5 

POINT_DATA 458
SCALARS DY_raw double
LOOKUP_TABLE default
159.147 205.251 251.697 230.896 183.313 237.4 150.474 161.464 189.476 
148.262 161.525 181.749 175.134 200.119 170.863 165.289 194.279 162.767 
169.109 187.205 172.489 149.371 161.868 129.482 148.753 177.519 200.275 
227.777 214.107 206.379 195.164 211.982 192.033 188.221 212.509 203.539 
234.383 226.878 206.76 216.91 219.534 169.742 182.156 182.553 169.108 
173.173 161.874 162.609 150.986 150.986 143.633 147.845 156.035 167.967 
183.03 182.222 171.264 171.264 171.853 161.936 194.452 183.174 180.759 
180.759 189.186 189.186 186.82 193.678 212.009 224.631 223.388 228.275 
217.632 214.517 214.517 214.16 207.11 219.183 176.213 181.184 167.557 
133.874 140.748 137.833 136.914 143.116 127.288 129.322 136.795 139.053 
142.624 146.162 150.561 138.919 147.786 149.389 147.797 167.058 163.295 
161.981 155.291 159.298 148.107 164.603 127.197 127.197 128.521 126.709 
141.483 141.483 150.32 158.846 160.546 160.546 158.019 173.529 173.529 
172.174 175.349 175.349 192.228 189.162 189.162 184.701 178.707 198.576 
179.694 179.694 175.78 183.172 183.172 181.316 172.504 181.317 187.869 
182.669 182.669 158.489 182.408 183.701 161.55 165.674 182.795 180.253 
157.739 170.522 158.772 153.319 165.587 164.909 176.454 178.279 168.969 
163.121 161.921 170.265 153.925 160.166 154.802 152.429 147.467 155.731 
151.846 197.112 195.059 180.877 179.549 147.364 135.997 140.406 128.634 
125.114 136.94 123.633 116.291 124.544 134.684 138.772 133.628 135.134 
172.489 135.561 132.103 153.229 154.632 167.161 175.618 170.172 190.024 
173.463 180.832 174.114 178.503 165.295 165.295 165.292 188.879 188.879 
179.251 160.817 139.107 126.938 138.901 136.787 144.48 144.48 135.638 
125.182 125.182 116.94 121.592 121.592 130.497 130.497 136.376 145.978 
145.978 149.201 144.728 155.868 146.524 144.077 167.994 144.041 148.644 
136.308 130.949 130.949 143.54 156.674 163.666 150.286 151.36 156.144 
149.486 153.344 177.909 171.073 169.371 182.18 182.18 183.223 177.83 
182.557 177.049 178.658 182.783 179.226 168.501 166.545 185.244 204.711 
175.694 161.098 158.242 138.406 140.54 149.355 145.745 130.834 138.836 
159.588 170.824 167.387 203.583 169.29 172.557 190.629 227.224 212.354 
197.136 186.033 190.193 188.799 188.892 201.713 208.88 218.079 207.872 
222.276 208.902 184.605 184.605 176.83 167.885 181.68 163.491 163.923 
163.923 154.042 171.55 160.81 155.902 171.8 194.277 186.483 180.381 
185.216 177.419 170.467 175.96 186.853 189.909 177.929 197.685 200.081 
204.859 192.916 177.887 174.448 170.936 183.434 194.242 185.667 171.68 
176.563 176.563 172.859 180.08 191.137 190.53 186.76 165.61 152.125 
158.449 156.24 167.1 154.433 137.166 134.978 136.915 201.075 164.632 
188.529 188.529 152.389 144.206 157.569 156.47 156.47 205.282 183.612 
160.673 162.108 170.971 172.025 182.013 183.943 181.022 181.495 168.81 
161.01 149.213 159.148 174.761 179.876 177.997 168.152 152.302 189.719 
143.318 173.402 180.983 191.574 201.213 235.137 226.978 238.636 263.517 
217.183 197.021 168.167 173.317 152.534 167.46 174.405 184.554 184.743 
199.218 208.865 215.882 209.307 172.838 163.004 165.988 171.116 180.916 
198.164 195.645 204.098 215.95 205.248 200.967 201.858 191.97 191.97 
203.708 200.586 200.586 201.039 168.195 163.466 146.592 151.275 151.275 
161.033 159.006 166.196 166.789 149.101 142.473 165.818 165.818 154.202 
169.502 155.24 170.317 166.022 171.347 186.748 168.572 162.204 159.444 
141.12 161.048 166.495 170.531 173.173 177.735 191.234 179.561 203.638 
206.957 220.987 196.938 219.313 215.387 215.387 165.823 156.584 164.014 
134.407 139.005 121.738 115.015 115.015 111.932 111.325 118.414 126.746 
129.295 131.412 125.938 125.458 125.458 133.94 133.94 138.394 
FIELD FieldData 7
DY_minmax 1 458 double
0.31422 0.617153 0.922333 0.785659 0.473004 0.828391 0.257234 0.329443 0.513503 
0.2427 0.329847 0.46273 0.419267 0.583432 0.3912 0.354575 0.545062 0.338005 
0.379675 0.498582 0.401882 0.249984 0.3321 0.1193 0.245921 0.434934 0.584458 
0.765161 0.675343 0.624563 0.550878 0.66138 0.530303 0.505251 0.664844 0.605904 
0.808569 0.759258 0.627067 0.693761 0.711002 0.383834 0.465401 0.468015 0.37967 
0.406383 0.33214 0.336964 0.260596 0.260596 0.212282 0.239955 0.293769 0.372171 
0.471144 0.465837 0.393839 0.393839 0.397704 0.332548 0.546197 0.472093 0.456226 
0.456226 0.511595 0.511595 0.496047 0.54111 0.661559 0.744492 0.736325 0.768438 
0.698503 0.67804 0.67804 0.675689 0.629365 0.708698 0.426357 0.459019 0.36948 
0.148157 0.193325 0.174173 0.168134 0.208885 0.104884 0.118247 0.167353 0.182188 
0.205653 0.228896 0.257804 0.181306 0.239571 0.2501 0.239641 0.366198 0.341475 
0.332838 0.288884 0.315209 0.241681 0.350068 0.104287 0.104287 0.112986 0.101083 
0.198158 0.198158 0.256222 0.312244 0.323412 0.323412 0.306807 0.408718 0.408718 
0.399812 0.420678 0.420678 0.531585 0.51144 0.51144 0.482125 0.442742 0.573291 
0.449229 0.449229 0.423507 0.472081 0.472081 0.459883 0.401984 0.45989 0.502939 
0.468774 0.468774 0.309897 0.467061 0.475555 0.330006 0.357103 0.469603 0.452899 
0.304968 0.388961 0.311753 0.275924 0.356537 0.352077 0.427941 0.439926 0.378759 
0.340331 0.332446 0.38727 0.27991 0.320912 0.285671 0.270076 0.237471 0.291771 
0.266248 0.563672 0.550186 0.456997 0.448274 0.2368 0.162111 0.191076 0.113726 
0.0905999 0.168305 0.0808714 0.0326289 0.0868517 0.153482 0.180339 0.146544 0.156436 
0.401882 0.159246 0.136523 0.275334 0.28455 0.366878 0.422445 0.386662 0.5171 
0.408287 0.456707 0.41256 0.441403 0.354614 0.354614 0.354594 0.509579 0.509579 
0.446318 0.325195 0.182544 0.102586 0.181192 0.167297 0.217849 0.217849 0.159748 
0.0910493 0.0910493 0.0368891 0.0674599 0.0674599 0.125967 0.125967 0.164596 0.227693 
0.227693 0.248869 0.219476 0.292672 0.231281 0.215197 0.372353 0.214961 0.245207 
0.164153 0.12894 0.12894 0.211672 0.297967 0.34391 0.256 0.263054 0.294486 
0.250738 0.276092 0.4375 0.39258 0.381401 0.465562 0.465562 0.472417 0.436978 
0.46804 0.431848 0.442419 0.469526 0.446155 0.375684 0.362828 0.485693 0.613602 
0.422945 0.327037 0.308271 0.177939 0.19196 0.249881 0.226159 0.128183 0.180763 
0.317116 0.390942 0.368362 0.606192 0.380868 0.402331 0.521077 0.761529 0.663827 
0.563834 0.490877 0.518212 0.509053 0.509667 0.593907 0.640998 0.701443 0.634378 
0.729015 0.641139 0.481498 0.481498 0.430407 0.371633 0.462278 0.342764 0.345598 
0.345598 0.280679 0.395718 0.325147 0.292899 0.397361 0.545047 0.493833 0.453742 
0.485508 0.434278 0.388599 0.42469 0.496268 0.516344 0.437631 0.567438 0.583183 
0.614579 0.536105 0.437355 0.41476 0.391684 0.473798 0.544815 0.48847 0.396572 
0.428652 0.428652 0.404316 0.451763 0.524415 0.520427 0.495656 0.356687 0.268077 
0.309635 0.295118 0.366473 0.283245 0.169792 0.15541 0.168138 0.589715 0.350256 
0.50728 0.50728 0.269815 0.216046 0.303853 0.296631 0.296631 0.617355 0.474968 
0.324247 0.333673 0.391909 0.398836 0.464462 0.477144 0.457953 0.461059 0.377713 
0.326461 0.248949 0.314225 0.416811 0.450422 0.438077 0.373387 0.269243 0.515099 
0.210209 0.407885 0.457697 0.527288 0.590622 0.813525 0.759913 0.836515 1 
0.695557 0.563077 0.373487 0.407327 0.270766 0.368842 0.414477 0.481161 0.482401 
0.577513 0.640899 0.687003 0.643802 0.404181 0.339562 0.359171 0.392863 0.457255 
0.570589 0.554035 0.60958 0.68745 0.617136 0.589005 0.594861 0.529885 0.529885 
0.607014 0.5865 0.5865 0.589475 0.373672 0.342596 0.231727 0.262495 0.262495 
0.326611 0.31329 0.360533 0.364436 0.248213 0.20466 0.358053 0.358053 0.281729 
0.382258 0.288546 0.387614 0.359391 0.394381 0.495575 0.376146 0.334305 0.316168 
0.19577 0.326713 0.362504 0.389019 0.40638 0.436354 0.525054 0.448353 0.606553 
0.628362 0.72055 0.562529 0.709551 0.683752 0.683752 0.358087 0.297376 0.346196 
0.15166 0.181872 0.0684148 0.0242407 0.0242407 0.00398534 0 0.0465768 0.101325 
0.118071 0.131983 0.0960165 0.0928635 0.0928635 0.14859 0.14859 0.177856 
WidthEq 1 458 double
1.28046 1 1.83447 4.15997 4.41585 5.0386 3.5117 3.84279 3.22743 
5.46795 4.26608 4.59783 6.53093 5.58433 5.2836 4.20084 4.7197 5.75713 
6.43362 5.86885 4.71666 3.8458 2.84732 4.07224 3.66018 3.66469 2.45293 
2.30718 2.46419 2.63337 2.79713 2.6516 2.80369 2.90394 2.71551 2.98174 
2.6566 2.83148 3.33 3.38293 3.41187 3.49031 3.16549 3.05752 2.91169 
2.61854 2.67158 2.62588 2.66476 2.66476 2.84378 2.89345 2.88187 2.98988 
2.94018 3.03356 3.11022 3.11022 3.02306 2.99359 2.96079 3.09531 3.12117 
3.12117 2.94039 2.94039 2.91019 2.80203 2.77215 2.76774 2.75275 2.75794 
2.68964 2.69927 2.69927 2.62066 2.57454 2.58875 2.81914 2.8656 3.04434 
3.3259 3.31366 3.44047 3.6412 3.60233 3.41722 3.50483 3.51183 3.56448 
3.59316 3.60588 3.4491 4.00876 4.07251 4.22824 4.27067 3.95564 3.80514 
3.87312 3.884 3.79893 3.76876 3.63366 4.92481 4.92481 5.16842 5.26757 
4.79237 4.79237 4.23297 4.15975 3.5953 3.5953 3.44466 3.395 3.395 
3.4686 3.49127 3.49127 3.60036 3.64534 3.64534 3.77108 3.83399 3.79342 
4.08678 4.08678 4.21249 4.357 4.357 4.43034 4.42883 4.36573 4.3283 
4.21035 4.21035 4.03341 4.08447 4.1707 4.47752 5.39344 2.47972 2.87202 
3.78899 3.72803 4.65581 4.82368 5.1498 5.64695 5.40174 5.57942 5.43904 
5.64349 6.07631 4.24786 4.41435 4.44266 4.60989 4.64959 4.64072 4.35651 
4.42692 3.63328 3.58158 3.78955 3.90529 4.31 4.53444 4.51763 4.64871 
4.68981 4.44714 4.54991 4.508 4.68777 4.70843 5.7318 6.57459 6.7024 
4.71666 5.49626 5.5263 4.88055 4.65501 3.78174 3.0637 2.78266 2.65394 
2.74502 2.75377 2.94619 2.88947 2.96144 2.96144 2.88352 2.71063 2.71063 
2.70855 2.81345 3.02904 3.32446 3.15325 3.39274 3.79056 3.79056 4.24425 
4.39687 4.39687 4.40314 4.30423 4.30423 4.15851 4.15851 4.10668 3.84078 
3.84078 3.66754 3.38968 3.3372 3.31174 3.28722 3.4556 3.51874 3.67113 
3.70463 3.75582 3.75582 3.75095 3.43115 3.42247 3.26504 3.34184 3.38823 
6.01771 5.25752 4.19844 3.88554 3.85065 3.74613 3.74613 3.51326 3.57404 
3.64889 3.99161 4.00727 4.07231 4.30076 4.33587 4.2059 3.90685 3.80806 
4.01704 4.16816 4.34974 5.05607 5.15868 5.98788 6.38424 7.17735 6.97363 
5.75878 4.71891 4.94495 4.57127 6.49943 6.05592 5.52592 4.25638 4.87511 
5.29665 5.85677 5.80474 6.16497 5.34093 5.34006 5.02274 4.62506 4.53115 
4.15435 4.28087 4.62235 4.62235 4.85388 4.96513 4.92476 4.94045 4.88829 
4.88829 5.12054 4.99183 5.14695 5.14554 4.89493 4.79048 4.73557 4.58901 
4.54152 4.49293 6.53611 5.17045 4.59404 4.18391 3.97867 3.85447 3.69126 
3.60082 3.67963 3.72174 3.59465 3.4359 3.17271 3.1154 3.04153 3.37657 
3.77192 3.77192 4.40296 4.77466 5.04074 5.20212 5.4048 5.5071 5.09294 
4.18633 4.03764 3.83419 4.20332 5.23016 5.60916 5.76477 4.65229 3.93479 
3.18079 3.18079 3.22603 3.34411 3.29963 3.39362 3.39362 3.06058 4.20077 
4.41219 4.16212 3.78071 3.50984 3.19308 3.27119 3.14288 3.09216 3.07293 
3.09882 3.05885 3.02197 3.01482 3.09369 2.92387 3.04077 3.24691 3.92059 
6.40313 6.22104 6.17185 5.49698 4.99754 4.56589 5.2599 4.93421 4.57185 
5.72728 6.04971 3.5969 4.11558 4.91347 4.76765 4.50686 3.97624 3.69687 
3.09305 2.83485 2.78852 2.70125 2.88125 3.15067 3.15794 3.30028 3.20238 
3.16556 3.2213 3.26005 3.16736 3.30995 3.35677 3.44232 3.48467 3.48467 
3.42299 3.32721 3.32721 3.40547 3.59464 3.7819 4.04756 4.19753 4.19753 
4.20666 4.25231 4.2343 4.17389 4.27441 4.31395 4.30237 4.30237 4.21525 
4.02533 4.19577 4.08034 4.32504 4.31564 4.25976 4.46754 4.61537 5.03426 
5.215 5.71959 5.88533 6.18551 3.55835 3.10666 2.51634 2.31482 2.14789 
2.11687 1.9155 4.50046 1.2754 1.49476 1.49476 2.16388 2.61605 2.64918 
3.44076 3.47348 4.18179 3.96742 3.96742 3.87683 3.42744 3.5604 3.31821 
3.13463 3.19804 2.69164 2.49294 2.49294 2.03742 2.03742 1.73636 
rRFP 1 458 double
3454.25 3185.52 3985.1 6213.36 6458.54 7055.25 5592.2 5909.44 5319.81 
7466.65 6315.04 6632.91 8485.19 7578.17 7290.01 6252.52 6749.69 7743.74 
8391.94 7850.79 6746.78 5912.33 4955.6 6129.3 5734.47 5738.79 4577.7 
4438.04 4588.49 4750.59 4907.51 4768.06 4913.79 5009.85 4829.3 5084.4 
4772.85 4940.42 5418.1 5468.81 5496.54 5571.7 5260.46 5157.01 5017.28 
4736.38 4787.21 4743.42 4780.67 4780.67 4952.21 4999.8 4988.7 5092.2 
5044.58 5134.05 5207.51 5207.51 5123.99 5095.75 5064.32 5193.22 5218 
5218 5044.78 5044.78 5015.84 4912.2 4883.57 4879.35 4864.98 4869.96 
4804.51 4813.74 4813.74 4738.42 4694.22 4707.84 4928.6 4973.11 5144.38 
5414.17 5402.44 5523.95 5716.28 5679.04 5501.67 5585.62 5592.32 5642.77 
5670.25 5682.44 5532.22 6068.47 6129.56 6278.78 6319.43 6017.58 5873.37 
5938.51 5948.93 5867.42 5838.51 5709.06 6946.22 6946.22 7179.65 7274.65 
6819.32 6819.32 6283.31 6213.15 5672.3 5672.3 5527.96 5480.38 5480.38 
5550.9 5572.62 5572.62 5677.15 5720.25 5720.25 5840.73 5901.01 5862.14 
6143.23 6143.23 6263.69 6402.15 6402.15 6472.43 6470.98 6410.52 6374.65 
6261.64 6261.64 6092.09 6141.02 6223.64 6517.63 7395.26 4603.37 4979.27 
5857.89 5799.48 6688.47 6849.32 7161.8 7638.17 7403.21 7573.46 7438.95 
7634.85 8049.57 6297.58 6457.11 6484.23 6644.47 6682.51 6674.01 6401.68 
6469.15 5708.69 5659.16 5858.43 5969.33 6357.12 6572.17 6556.07 6681.67 
6721.05 6488.52 6587 6546.84 6719.09 6738.89 7719.47 8527.02 8649.49 
6746.78 7493.78 7522.56 6903.81 6687.7 5850.95 5162.93 4893.64 4770.3 
4857.58 4865.96 5050.33 4995.99 5064.95 5064.95 4990.28 4824.62 4824.62 
4822.63 4923.14 5129.72 5412.79 5248.74 5478.21 5859.4 5859.4 6294.12 
6440.36 6440.36 6446.36 6351.59 6351.59 6211.96 6211.96 6162.3 5907.52 
5907.52 5741.52 5475.28 5424.99 5400.6 5377.1 5538.44 5598.94 5744.96 
5777.06 5826.11 5826.11 5821.44 5515.02 5506.7 5355.85 5429.44 5473.89 
7993.42 7265.02 6250.22 5950.41 5916.98 5816.83 5816.83 5593.69 5651.93 
5723.65 6052.04 6067.05 6129.37 6348.27 6381.91 6257.37 5970.83 5876.17 
6076.41 6221.21 6395.2 7071.99 7170.31 7964.84 8344.63 9104.58 8909.37 
7745.32 6748.93 6965.52 6607.46 8455 8030.04 7522.2 6305.74 6898.6 
7302.51 7839.21 7789.36 8134.53 7344.94 7344.11 7040.06 6659.01 6569.02 
6207.98 6329.21 6656.41 6656.41 6878.26 6984.86 6946.17 6961.21 6911.23 
6911.23 7133.77 7010.44 7159.07 7157.72 6917.59 6817.51 6764.89 6624.46 
6578.96 6532.4 8490.15 7181.59 6629.28 6236.3 6039.64 5920.64 5764.25 
5677.59 5753.11 5793.46 5671.68 5519.57 5267.38 5212.47 5141.69 5462.72 
5841.54 5841.54 6446.19 6802.35 7057.3 7211.94 7406.14 7504.16 7107.32 
6238.62 6096.15 5901.2 6254.9 7238.8 7601.96 7751.06 6685.1 5997.6 
5275.12 5275.12 5318.47 5431.62 5389 5479.06 5479.06 5159.94 6252.46 
6455.04 6215.42 5849.96 5590.42 5286.9 5361.74 5238.8 5190.2 5171.77 
5196.58 5158.28 5122.95 5116.09 5191.67 5028.95 5140.96 5338.48 5983.99 
8362.73 8188.25 8141.12 7494.47 7015.91 6602.31 7267.3 6955.23 6608.02 
7715.14 8024.09 5673.84 6170.83 6935.36 6795.63 6545.75 6037.31 5769.63 
5191.05 4943.65 4899.26 4815.64 4988.11 5246.26 5253.23 5389.62 5295.81 
5260.53 5313.94 5351.07 5262.26 5398.88 5443.75 5525.72 5566.3 5566.3 
5507.2 5415.42 5415.42 5490.41 5671.67 5851.1 6105.65 6249.35 6249.35 
6258.1 6301.84 6284.58 6226.7 6323.02 6360.9 6349.81 6349.81 6266.33 
6084.35 6247.67 6137.06 6371.53 6362.52 6308.98 6508.07 6649.72 7051.1 
7224.28 7707.77 7866.58 8154.21 5636.9 5204.09 4638.46 4445.36 4285.41 
4255.69 4062.74 6539.62 3449.4 3659.59 3659.59 4300.73 4734 4765.74 
5524.22 5555.58 6234.27 6028.86 6028.86 5942.06 5511.46 5638.86 5406.8 
5230.89 5291.65 4806.43 4616.04 4616.04 4179.56 4179.56 3891.09 
rGFP 1 458 double
2472.9 2474.37 2730.85 3229.64 3078.6 3465.28 2797.54 2889.59 2880.64 
3079.81 2958.2 3104.77 3412.91 3386.65 3171.89 2963.47 3186.06 3206.19 
3357.1 3367.8 3082.69 2843.57 2730.01 2796.4 2813.58 2919.67 2760.38 