# vtk DataFile Version 3.0
vtk output
ASCII
DATASET POLYDATA
POINTS 484 float
1.88154 0.904963 0.276371 0.60232 1.21311 0.266364 0.455785 1.10178 0.398872 
1.96461 0.680155 0.571747 0.414192 0.95428 -0.0449907 2.13501 0.7383 0.192658 
1.80983 0.544706 0.423765 1.96874 0.391998 0.521938 2.69328 0.293865 0.710574 
2.19795 0.527734 0.131017 0.181405 0.674887 -0.331696 2.61018 0.0185968 0.232178 
1.63577 0.973558 -1.00644 0.330915 -0.285036 0.488194 0.70914 -0.505467 0.744088 
0.0296982 0.412507 -0.948191 1.79488 0.295631 -1.31401 2.55177 -0.68248 0.00775466 
2.10659 -1.19441 0.614869 2.06619 0.213559 -1.3516 2.03378 -1.36412 0.300458 
-0.261496 -1.49255 0.37092 1.44472 -0.259347 -1.62738 1.82789 -1.64681 0.223352 
4.79916 -1.28694 -0.229184 1.98708 -0.541537 -1.38863 4.16704 -0.502225 -1.45603 
3.72045 -0.707889 -1.20954 3.54182 -0.790154 -1.11094 3.47316 -0.950328 -1.09332 
3.37715 -1.12906 -0.710281 5.4371 -1.40809 -0.401678 6.1726 -1.46399 -0.34298 
0.807904 -0.359522 -1.9005 -0.303305 -1.85006 -0.471685 2.3641 -1.06731 -1.18514 
2.20489 -1.71687 -0.624723 3.55075 -1.55047 -0.771908 3.53082 -1.60476 -0.460601 
5.1562 -1.59735 -0.301979 -0.324091 -1.15835 -1.33513 -0.480068 -1.54298 -0.803477 
5.77448 -1.45699 -1.11979 4.56653 -2.02504 -0.284731 5.88817 -1.63563 -0.756066 
5.95523 -1.83413 -0.677461 6.02355 -1.8802 -0.469395 -0.387839 -1.17007 -1.55245 
-0.131849 -1.97187 -0.816776 1.98473 -1.30513 -1.41639 1.57165 -1.84613 -0.775365 
1.9571 -1.70927 -1.55819 5.22842 -1.25506 -2.12472 5.24797 -1.33375 -2.03225 
5.88998 -1.915 -1.35404 6.0435 -1.93199 -1.33552 5.73787 -2.20428 -1.01194 
0.409506 -2.04768 -1.45369 5.20681 -2.68056 -0.857941 3.80949 -2.47424 -1.49931 
5.11023 -1.85277 -2.34668 5.18854 -2.76115 -1.54265 3.59057 -2.70447 -1.63806 
4.94014 -2.82834 -1.50528 5.07121 -2.81327 -1.63871 5.00183 -2.85379 -1.66225 
4.96169 -2.85424 -1.61067 5.1971 -2.78279 -1.38975 5.2014 -2.78772 -1.27662 
5.21252 -2.77308 -1.17845 5.21208 -2.73543 -1.04132 5.26987 -2.71639 -1.61741 
5.32763 -2.68516 -1.658 5.37543 -2.65018 -1.67186 5.42695 -2.6046 -1.65902 
5.4846 -2.56577 -1.61375 5.52726 -2.53772 -1.5442 5.56151 -2.50946 -1.46337 
5.59583 -2.47001 -1.37284 5.63835 -2.40428 -1.26755 5.69345 -2.31025 -1.14992 
5.08431 -2.80012 -1.51701 5.0108 -2.82384 -1.50308 4.87266 -2.82824 -1.50473 
4.81872 -2.84041 -1.48989 4.76472 -2.85251 -1.47511 4.69605 -2.85134 -1.47582 
4.62057 -2.84388 -1.48388 4.54549 -2.82907 -1.48914 4.47855 -2.79918 -1.48936 
4.42413 -2.74665 -1.48203 4.35895 -2.69344 -1.46394 4.29373 -2.64589 -1.45064 
4.23922 -2.60465 -1.45291 4.17228 -2.57476 -1.45313 4.09736 -2.54292 -1.44412 
4.02237 -2.51483 -1.43833 3.95445 -2.48859 -1.44185 3.89326 -2.47487 -1.46887 
3.6675 -2.62811 -1.56088 3.74153 -2.55563 -1.50962 5.15614 -1.67976 -2.24187 
5.20205 -1.50675 -2.13706 3.76192 -2.38283 -1.50731 3.7063 -2.32348 -1.50799 
3.66287 -2.27793 -1.51925 3.61968 -2.2333 -1.52943 3.56584 -2.17488 -1.51759 
3.52466 -2.08813 -1.49347 3.4933 -1.96873 -1.45066 3.47181 -1.82229 -1.39401 
3.46446 -1.64683 -1.32589 3.45452 -1.46129 -1.24675 3.45729 -1.26928 -1.17534 
3.46352 -1.09077 -1.1224 5.1487 -2.56231 -0.683827 5.09328 -2.45256 -0.549324 
5.03173 -2.36075 -0.458479 4.97256 -2.2981 -0.390531 4.90442 -2.24053 -0.343238 
4.83616 -2.18854 -0.300798 4.77573 -2.1492 -0.254991 4.70786 -2.11236 -0.229051 
4.6437 -2.08273 -0.228995 4.60038 -2.0533 -0.251784 5.29422 -2.60276 -0.786369 
5.36102 -2.51749 -0.72722 5.42428 -2.43148 -0.665083 5.47659 -2.34765 -0.62317 
5.52284 -2.27164 -0.598684 5.5677 -2.23419 -0.608876 5.61216 -2.23051 -0.647983 
5.65516 -2.26532 -0.721836 5.69116 -2.29948 -0.807835 5.71145 -2.30805 -0.900944 
5.72511 -2.27078 -0.967833 0.428903 -2.03181 -1.36958 0.425647 -2.02898 -1.28133 
0.399977 -2.03035 -1.21081 0.349028 -2.02804 -1.17871 0.305606 -2.04404 -1.14801 
0.275678 -2.07794 -1.1078 0.237918 -2.10475 -1.07586 0.194385 -2.12634 -1.05002 
0.149726 -2.1469 -1.02537 0.103864 -2.15887 -0.995571 0.0497979 -2.1421 -0.953776 
-0.02845 -2.07425 -0.895592 5.83374 -2.02189 -0.844276 5.96674 -1.9235 -1.34478 
5.87837 -1.7612 -1.30044 5.83079 -1.61271 -1.21734 5.8794 -1.93559 -1.27247 
5.8785 -1.92352 -1.17224 5.89719 -1.86151 -1.0509 5.90936 -1.75934 -0.908125 
5.24761 -1.29006 -2.08368 5.30988 -1.37158 -2.03408 5.34336 -1.43375 -2.02985 
5.35639 -1.51097 -2.01916 5.38816 -1.57956 -2.01881 5.43882 -1.63382 -2.02406 
5.47043 -1.70248 -2.02362 5.48023 -1.78119 -2.01115 5.49268 -1.85304 -1.99531 
5.49952 -1.91061 -1.96192 5.51213 -1.95428 -1.92207 5.52072 -1.98854 -1.87037 
5.54324 -1.99952 -1.81188 5.57432 -1.97281 -1.72921 5.60876 -1.90236 -1.61223 
5.65253 -1.78543 -1.46425 5.71375 -1.62954 -1.29939 1.97092 -1.5072 -1.48729 
-0.221541 -1.97298 -0.864195 -0.274132 -1.95724 -0.905113 -0.309112 -1.91341 -0.925852 
-0.341054 -1.83548 -0.918143 -0.374207 -1.73378 -0.888803 -0.416912 -1.63086 -0.849376 
5.99014 -1.86929 -0.556303 1.64722 -1.85354 -0.767362 1.71695 -1.85568 -0.765518 
1.77678 -1.84885 -0.774144 1.83963 -1.84475 -0.779581 1.89944 -1.83221 -0.783478 
1.96827 -1.81646 -0.768361 2.0386 -1.78502 -0.737412 2.10925 -1.74247 -0.696648 
1.90778 -1.31922 -1.44483 1.83079 -1.33895 -1.47807 1.75384 -1.35304 -1.50651 
1.67715 -1.3446 -1.5157 1.6017 -1.31454 -1.50459 1.53215 -1.28982 -1.48726 
1.47232 -1.29665 -1.47863 1.40929 -1.32334 -1.49237 1.34928 -1.35275 -1.50293 
1.27949 -1.35626 -1.50956 1.20397 -1.3432 -1.51277 1.12835 -1.34142 -1.52557 
1.05836 -1.36181 -1.54666 0.997236 -1.3959 -1.56314 0.928491 -1.41172 -1.57817 
0.860964 -1.41728 -1.58242 0.808152 -1.43046 -1.56639 0.761176 -1.44893 -1.54419 
0.709431 -1.46308 -1.52702 0.647783 -1.46827 -1.52032 0.588013 -1.47515 -1.51163 
0.518274 -1.47301 -1.51348 0.442641 -1.46554 -1.52155 0.365946 -1.4571 -1.53074 
0.28925 -1.44866 -1.53993 0.213617 -1.44118 -1.548 0.143866 -1.43334 -1.54511 
0.0830455 -1.42222 -1.5233 0.0135216 -1.38615 -1.49645 -0.0618166 -1.33494 -1.46732 
-0.139337 -1.27626 -1.43267 -0.22408 -1.2166 -1.39053 2.03933 -1.21962 -1.36883 
2.1085 -1.16622 -1.32177 2.18533 -1.13611 -1.28169 2.26881 -1.10574 -1.23814 
-0.188062 -1.9146 -0.641637 -0.353933 -1.29615 -1.2727 -0.373819 -1.38538 -1.22181 
-0.394176 -1.4251 -1.1634 -0.422476 -1.44782 -1.11062 -0.441852 -1.47421 -1.04502 
-0.455444 -1.51153 -0.978068 -0.467834 -1.53287 -0.895599 -0.355685 -1.15694 -1.45664 
6.07673 -1.64638 -0.510646 5.90214 -1.72861 -0.721095 5.83653 -1.51994 -0.697243 
5.81755 -1.40609 -0.670912 5.8051 -1.32298 -0.677102 5.80617 -1.28146 -0.731729 
5.80618 -1.29386 -0.831573 5.7901 -1.36147 -0.963503 5.69472 -1.26717 -0.970625 
5.63691 -1.09127 -0.851051 5.57818 -0.961867 -0.751105 5.52766 -0.88119 -0.656785 
5.48241 -0.838533 -0.5807 5.43801 -0.819521 -0.522555 5.39349 -0.823151 -0.483523 
5.34895 -0.838128 -0.454009 5.30541 -0.859714 -0.42817 5.26765 -0.886526 -0.396233 
5.23761 -0.926019 -0.360885 5.1928 -0.957821 -0.345884 5.13222 -0.98672 -0.357043 
5.07465 -1.01835 -0.365014 5.01979 -1.05812 -0.374871 4.98372 -1.10922 -0.360129 
4.94477 -1.1577 -0.348438 4.90221 -1.19155 -0.331057 4.86453 -1.22412 -0.303787 
4.83573 -1.25905 -0.262379 3.66391 -1.44128 -0.668124 3.74107 -1.34002 -0.591276 
3.81363 -1.27363 -0.530548 3.88804 -1.25474 -0.498587 3.9551 -1.26199 -0.479256 
4.00979 -1.28065 -0.457813 4.07548 -1.27174 -0.423161 4.14126 -1.25154 -0.378916 
4.19623 -1.23633 -0.328707 4.26345 -1.23235 -0.299721 4.33869 -1.23592 -0.284799 
4.41536 -1.24445 -0.275489 4.49212 -1.25295 -0.266228 4.56888 -1.26145 -0.256967 
4.64564 -1.26994 -0.247706 4.7224 -1.27844 -0.238445 3.49787 -1.55395 -0.648282 
3.48186 -1.56246 -0.555713 3.50055 -1.57938 -0.499359 2.25507 -1.60687 -0.651744 
2.30167 -1.54994 -0.673457 2.34541 -1.52627 -0.701746 2.38198 -1.49258 -0.730342 
2.40282 -1.43338 -0.765905 2.41667 -1.37354 -0.81362 2.4292 -1.33526 -0.881699 
2.44153 -1.30262 -0.954599 2.45243 -1.25375 -1.01224 2.4538 -1.18859 -1.04702 
2.43298 -1.13263 -1.07076 2.40089 -1.0962 -1.11335 -0.242826 -1.90742 -0.333993 
-0.213094 -1.90075 -0.218337 -0.224281 -1.83708 -0.0945083 -0.255944 -1.72267 0.0353327 
-0.259064 -1.6027 0.191627 -0.489948 -1.46764 -0.640346 -0.492038 -1.41682 -0.505613 
-0.482062 -1.39983 -0.411289 -0.482935 -1.43348 -0.349817 -0.478074 -1.51901 -0.333408 
-0.425137 -1.6614 -0.381608 5.09022 -1.61865 -0.333483 5.02261 -1.62996 -0.353833 
4.96196 -1.64061 -0.352151 4.89416 -1.60933 -0.331107 4.83198 -1.53941 -0.298403 
4.80055 -1.42576 -0.260274 5.21087 -1.55468 -0.306974 5.25804 -1.50811 -0.316499 
5.30307 -1.47548 -0.332473 5.34778 -1.44922 -0.35238 5.39244 -1.42865 -0.377029 
3.4859 -1.39007 -0.738153 3.44255 -1.26743 -0.708188 3.40912 -1.18529 -0.699318 
2.21143 -1.61316 -0.403613 2.19864 -1.52606 -0.231399 2.165 -1.46559 -0.11918 
2.1291 -1.4297 -0.0314023 2.10126 -1.40823 0.0618366 2.0674 -1.38057 0.166909 
2.42321 -0.909653 -1.12723 2.47232 -0.780487 -1.07382 2.51011 -0.682036 -1.04897 
2.53124 -0.592691 -1.05902 2.54523 -0.504661 -1.08271 2.55666 -0.399396 -1.09234 
2.55856 -0.28155 -1.08235 2.54002 -0.167501 -1.05626 2.51982 -0.0654624 -1.03889 
2.51026 0.0302281 -1.03703 2.48825 0.114556 -1.03314 2.45806 0.195119 -1.02471 
2.42489 0.274314 -1.01465 2.38348 0.344088 -1.00485 2.32954 0.391211 -1.00261 
2.28619 0.415091 -1.03031 2.24247 0.405057 -1.08673 2.18614 0.361093 -1.16029 
2.13241 0.295827 -1.25457 1.5292 -0.441786 -1.63897 1.57966 -0.568033 -1.65756 
1.61592 -0.633214 -1.65145 1.65941 -0.658816 -1.62498 1.7234 -0.656322 -1.59421 
1.78895 -0.653106 -1.56431 1.84388 -0.64353 -1.51889 1.91137 -0.605678 -1.46114 
0.840005 -0.388585 -1.86659 0.872194 -0.417606 -1.83273 0.905952 -0.445906 -1.79973 
0.94937 -0.464042 -1.76735 1.01374 -0.459745 -1.73871 1.08098 -0.427755 -1.70837 
1.13438 -0.373559 -1.68933 1.18704 -0.315406 -1.67658 1.27603 -0.274736 -1.66157 
3.51269 -0.859778 -1.0859 3.56392 -0.732101 -1.14518 3.60177 -0.693999 -1.16752 
3.65328 -0.685321 -1.18969 3.61551 -0.86413 -1.16187 3.67573 -0.8861 -1.1938 
3.70483 -0.822997 -1.21117 3.76511 -0.687322 -1.23419 3.80983 -0.666814 -1.25877 
3.85562 -0.647267 -1.28223 3.90724 -0.633 -1.29953 3.96764 -0.626685 -1.30755 
4.01813 -0.611397 -1.32604 4.05695 -0.585552 -1.35685 4.08587 -0.550734 -1.39813 
4.12357 -0.523869 -1.43012 1.36666 -0.210677 -1.68883 1.37296 -0.185523 -1.71197 
1.41793 -0.199934 -1.69053 1.86465 -1.61146 0.196628 1.89583 -1.5476 0.182161 
1.94861 -1.46102 0.217023 1.54856 -0.0188206 -1.54787 1.63579 0.141777 -1.44682 
1.71584 0.23942 -1.36395 2.0716 -1.28009 0.468162 2.06692 0.409605 -1.27348 
2.04579 0.595414 -1.18309 2.00748 0.764767 -1.08461 1.95713 0.895778 -0.97519 
1.91441 0.972413 -0.87047 1.85217 1.01921 -0.821968 1.77937 1.03206 -0.824968 
1.71384 1.01744 -0.864325 1.67003 0.996116 -0.930338 2.01259 0.249486 -1.29612 
1.94441 0.285369 -1.26904 1.87005 0.305758 -1.27517 2.56632 -0.467797 0.0866763 
2.58445 -0.236865 0.164752 0.0925912 0.493245 -0.849326 0.126875 0.549556 -0.744313 
0.137641 0.578164 -0.640781 0.150976 0.602328 -0.543489 0.15999 0.630129 -0.438988 
2.55084 0.0718833 0.156274 2.50023 0.127013 0.130764 2.44677 0.195764 0.146449 
2.41505 0.290364 0.168099 2.40225 0.384566 0.171743 2.37031 0.453071 0.17149 
2.31628 0.488906 0.164144 2.26338 0.514017 0.146535 0.752495 -0.529347 0.771786 
0.806746 -0.548208 0.79347 0.850101 -0.572088 0.821169 0.89349 -0.601579 0.844027 
0.949178 -0.636651 0.850458 1.00202 -0.689905 0.843999 1.06869 -0.742428 0.825082 
1.1436 -0.785518 0.806442 1.22012 -0.805293 0.806091 1.29573 -0.807063 0.818891 
1.36459 -0.785652 0.838785 1.41871 -0.750903 0.843119 1.47171 -0.715134 0.846263 
1.53233 -0.697634 0.847964 1.58405 -0.677785 0.835521 1.63095 -0.653557 0.817987 
1.68166 -0.627084 0.809219 1.73642 -0.598607 0.809484 1.77923 -0.564993 0.792368 
1.83278 -0.546784 0.781855 1.87635 -0.519545 0.760806 1.90523 -0.467627 0.73372 
1.93512 -0.399566 0.721942 1.95509 -0.316824 0.704437 1.97018 -0.235363 0.677023 
1.98995 -0.169506 0.64506 2.0185 -0.111603 0.622376 2.0382 -0.0344408 0.599982 
2.05055 0.0529333 0.577095 2.05206 0.131215 0.553558 2.03057 0.194831 0.536079 
1.99663 0.271924 0.525732 0.299651 -0.154349 0.540589 0.267972 -0.0632226 0.55947 
0.234443 -0.0179382 0.540814 0.192652 -0.00459121 0.502609 0.140053 0.00378638 0.470374 
0.107906 0.0272009 0.431667 0.0963002 0.0657015 0.386445 0.0754534 0.099947 0.346323 
0.056174 0.134914 0.305336 0.0559114 0.178638 0.253853 0.0570448 0.223006 0.201599 
0.0459119 0.256098 0.151293 0.0389732 0.279877 0.0890345 0.0276972 0.284785 0.0147102 
0.0302265 0.29033 -0.07196 0.0420656 0.304345 -0.157231 0.0613523 0.330698 -0.222775 
0.0897745 0.365965 -0.264577 0.110561 0.425206 -0.300208 0.131488 0.501383 -0.321457 
0.16034 0.581766 -0.324837 2.65504 0.144645 0.488415 0.258815 0.745431 -0.25531 
0.336411 0.838567 -0.159737 2.14762 0.621521 0.16984 2.18534 0.644512 0.153835 
1.97456 0.538028 0.533029 1.78764 0.606458 0.408488 1.76973 0.658926 0.381207 
1.73704 0.703089 0.360991 1.73503 0.76934 0.33449 1.77679 0.852274 0.307957 
2.0672 0.815541 0.231096 1.99514 0.88503 0.255825 0.490042 1.0466 0.0515387 
0.556384 1.13456 0.153323 0.404401 1.02966 0.11809 0.403968 1.08124 0.251909 
0.425198 1.10341 0.340022 
LINES 61 608
5 61 64 65 66 63 
6 61 67 68 69 70 58 
12 61 71 72 73 74 75 76 77 78 79 80 56 
4 61 81 82 63 
18 63 83 84 85 86 87 88 89 90 91 92 93 94 95 96 97 98 59 
4 62 99 100 59 
4 60 101 102 53 
12 58 115 116 117 118 119 120 121 122 123 124 43 
13 58 125 126 127 128 129 130 131 132 133 134 135 56 
14 57 136 137 138 139 140 141 142 143 144 145 146 147 48 
3 56 148 45 
3 55 149 54 
4 54 150 151 42 
6 54 152 153 154 155 44 
3 53 156 52 
18 53 157 158 159 160 161 162 163 164 165 166 167 168 169 170 171 172 42 
3 51 173 49 
8 48 174 175 176 177 178 179 41 
3 45 180 46 
10 50 181 182 183 184 185 186 187 188 36 
34 49 189 190 191 192 193 194 195 196 197 198 199 200 201 202 203 204 205 206 207 208 209 210 211 212 213 214 215 216 217 218 219 220 40 
6 49 221 222 223 224 35 
3 34 225 48 
9 40 226 227 228 229 230 231 232 41 
3 47 233 40 
3 45 234 32 
3 45 235 44 
8 44 236 237 238 239 240 241 42 
22 42 242 243 244 245 246 247 248 249 250 251 252 253 254 255 256 257 258 259 260 261 24 
18 37 262 263 264 265 266 267 268 269 270 271 272 273 274 275 276 277 24 
5 37 278 279 280 38 
14 36 281 282 283 284 285 286 287 288 289 290 291 292 35 
7 34 293 294 295 296 297 21 
8 41 298 299 300 301 302 303 34 
5 37 315 316 317 30 
8 36 318 319 320 321 322 323 20 
21 35 324 325 326 327 328 329 330 331 332 333 334 335 336 337 338 339 340 341 342 19 
10 22 343 344 345 346 347 348 349 350 25 
11 33 351 352 353 354 355 356 357 358 359 22 
5 28 361 362 363 27 
5 28 364 365 366 27 
11 27 367 368 369 370 371 372 373 374 375 26 
5 22 376 377 378 22 
5 23 379 380 381 20 
3 20 385 18 
11 19 386 387 388 389 390 391 392 393 394 12 
4 17 398 399 11 
7 15 400 401 402 403 404 10 
10 11 405 406 407 408 409 410 411 412 9 
23 13 445 446 447 448 449 450 451 452 453 454 455 456 457 458 459 460 461 462 463 464 465 10 
3 11 466 8 
4 10 467 468 4 
3 9 469 5 
3 9 470 5 
4 4 479 480 1 
5 4 481 482 483 2 
16 59 103 104 105 106 107 108 109 110 111 112 113 114 29 360 28 
14 24 309 308 307 306 305 304 39 310 311 312 313 314 31 
9 22 382 383 384 16 397 396 395 19 
36 14 413 414 415 416 417 418 419 420 421 422 423 424 425 426 427 428 429 430 431 432 433 434 435 436 437 438 439 440 441 442 443 444 7 471 3 
10 6 472 473 474 475 476 0 478 477 5 

POINT_DATA 484
SCALARS DY_raw double
LOOKUP_TABLE default
604.238 1185.84 1079.34 790.488 818.322 622.882 672.492 796.846 1168.97 
588.298 564.456 584.915 1030.94 469.973 573.021 703.599 751.128 682.296 
981.298 645.669 816.858 1905.94 757.592 550.88 598.064 944.956 641.483 
965.788 806.679 531.148 907.096 595.627 1676.07 2118.61 528.543 540.336 
460.589 518.792 506.792 636.766 723.869 705.825 565.683 528.946 524.227 
543.196 589.993 851.549 613.09 676.331 1090.45 422.914 715.14 637.606 
453.77 571.923 424.208 524.47 479.298 446.827 743.589 589.12 366.644 
714.214 729.752 722.466 752.684 597.574 582.414 512.12 476.592 542.537 
512.88 477.001 448.56 426.116 434.987 441.951 436.229 439.814 424.61 
658.719 792.48 647.034 670.573 490.019 518.042 531.717 526.925 469.307 
606.69 560.573 672.913 722.999 611.115 615.344 677.986 540.378 470.752 
380.83 386.521 687.246 563.796 465.763 515.912 454.035 462.333 471.487 
452.684 485.112 542.598 576.5 556.085 512.776 511.421 542.626 622.446 
667.009 630.37 607.403 634.852 619.598 588.515 500.198 497.251 470.322 
454.806 487.299 560.698 587.195 569.322 567.158 547.55 484.99 442.827 
470.884 590.678 511.323 487.915 487.915 449.237 448.356 448.356 443.233 
408.06 416.855 388.909 508.058 493.983 483.111 641.267 679.939 485.038 
499.305 552.363 572.173 715.14 567.878 531.303 509.443 560.709 531.835 
664.799 723.499 657.333 681.278 588.64 588.64 526.686 547.328 522.542 
504.643 557.217 450.249 607.62 583.371 642.581 553.712 637.802 720.908 
549.833 849.962 720.751 621.905 621.905 575.668 496.05 547.602 561.255 
628.018 576.749 672.986 672.986 762.386 902.81 936.95 801.112 857.989 
864.132 739.081 739.081 697.401 860.949 790.743 849.015 784.508 892.152 
800.165 800.165 801.922 750.161 845.673 816.592 640.919 725.025 666.755 
591.563 554.888 524.25 556.509 594.099 627.934 592.027 573.2 526.732 
559.824 642.88 637.019 698.277 729.715 745.84 858.786 693.017 698.471 
679.881 529.099 623.067 648.812 697.344 569.278 543.82 537.632 525.033 
501.752 562.901 618.544 633.817 626.247 655.129 605.899 605.899 572.103 
583.933 540.751 575.027 764.025 764.025 749.686 751.484 619.695 616.665 
608.187 556.29 602.763 675.304 748.027 930.375 1064.15 1064.15 942.375 
964.909 1105.86 924.188 891.071 891.071 692.762 725.316 542.231 483.941 
479.903 506.792 613.697 595.141 676.941 683.345 773.8 785.898 762.814 
724.867 679.98 570.523 539.62 540.046 511.59 468.453 570.422 755.046 
954.158 736.709 747.714 735.864 646.16 535.457 512.116 547.89 617.016 
607.945 635.698 582.176 519.006 667.459 618.95 601.671 583.827 595.627 
597.177 713.835 809.916 549.5 626.512 696.846 716.109 853.384 791.086 
705.879 919.05 890.19 810.801 774.648 746.017 672.171 648.833 674.282 
622.192 656.961 669.061 715.977 757.272 938.186 963.555 838.952 811.404 
663.441 659.225 631.462 668.732 768.717 871.075 803.297 901.018 911.973 
1242.2 1242.2 822.082 822.082 698.812 636.936 681.622 651.142 689.676 
607.126 865.517 937.99 1058.14 660.049 663.985 830.029 859.586 728.888 
728.888 554.654 554.654 466.519 466.481 466.481 506.832 871.461 871.461 
806.135 541.974 584.177 729.047 679.632 643.989 723.242 930.193 953.553 
1065.17 986.733 1064.72 998.136 1226.42 1233.04 1104.34 1170.27 699.492 
743.1 827.029 467.434 478.286 796.176 646.055 640.035 633.979 539.512 
610.338 648.089 737.961 786.948 743.604 685.372 685.372 653.821 512.009 
512.009 628.468 593.594 593.594 722.401 753.258 719.113 699.317 577.971 
519.318 634.983 556.191 629.779 600.308 552.07 528.497 570.88 551.572 
501.237 501.237 484.195 470.871 492.43 518.778 540.213 517.468 553.428 
631.832 694.339 710.564 768.207 478.203 518.067 527.14 527.14 555.074 
555.074 527.244 580.669 580.669 649.095 704.674 753.421 707.449 648.203 
609.222 620.054 564.098 533.735 558.712 473.235 497.471 763.221 656.739 
738.855 580.451 620.716 813.695 559.43 559.43 548.278 544.8 570.619 
685.735 723.619 973.853 1057.94 986.048 895.736 1072.32 
FIELD FieldData 7
DY_minmax 1 484 double
0.135616 0.467589 0.406799 0.241925 0.257812 0.146257 0.174574 0.245554 0.457957 
0.126517 0.112908 0.124586 0.379169 0.0589787 0.117797 0.19233 0.219458 0.18017 
0.350836 0.159264 0.256976 0.878611 0.223148 0.10516 0.132092 0.330093 0.156874 
0.341984 0.251166 0.0938964 0.308483 0.130701 0.747404 1 0.0924098 0.0991413 
0.0536227 0.0868439 0.0799944 0.154182 0.203899 0.1936 0.113609 0.0926399 0.0899464 
0.100774 0.127485 0.276777 0.140668 0.176765 0.413138 0.0321179 0.198917 0.154662 
0.0497304 0.11717 0.0328565 0.0900849 0.0643014 0.0457674 0.215155 0.126986 0 
0.198388 0.207257 0.203099 0.220347 0.131812 0.123158 0.0830358 0.0627567 0.100397 
0.0834695 0.0629903 0.0467566 0.0339455 0.0390091 0.0429841 0.0397181 0.0417641 0.0330859 
0.166713 0.243062 0.160043 0.173479 0.0704209 0.0864157 0.0942214 0.0914861 0.0585983 
0.137015 0.110692 0.174814 0.203402 0.139541 0.141955 0.17771 0.0991649 0.059423 
0.00809675 0.0113454 0.182995 0.112532 0.0565759 0.0852004 0.0498813 0.0546176 0.0598429 
0.0491105 0.0676201 0.100432 0.119783 0.10813 0.08341 0.0826367 0.100448 0.146009 
0.171444 0.150532 0.137422 0.15309 0.144383 0.126641 0.0762305 0.0745487 0.0591777 
0.0503215 0.0688683 0.110763 0.125888 0.115686 0.11445 0.103259 0.06755 0.0434844 
0.0594987 0.127876 0.0825807 0.0692196 0.0692196 0.0471431 0.0466399 0.0466399 0.0437161 
0.0236396 0.0286595 0.0127085 0.0807171 0.0726831 0.0664775 0.156751 0.178825 0.0675776 
0.0757211 0.106006 0.117313 0.198917 0.114862 0.0939851 0.0815075 0.11077 0.094289 
0.170183 0.203688 0.165921 0.179589 0.126713 0.126713 0.0913495 0.103132 0.0889846 
0.0787677 0.108777 0.0477204 0.137546 0.123705 0.157501 0.106776 0.154773 0.202209 
0.104562 0.275871 0.20212 0.1457 0.1457 0.119308 0.0738629 0.103288 0.111082 
0.149189 0.119925 0.174856 0.174856 0.225884 0.306037 0.325523 0.247989 0.280454 
0.28396 0.212582 0.212582 0.188792 0.282143 0.24207 0.275331 0.238511 0.299953 
0.247448 0.247448 0.248451 0.218907 0.273424 0.256825 0.156553 0.204559 0.171299 
0.128381 0.107447 0.0899592 0.108372 0.129828 0.149141 0.128646 0.1179 0.0913758 
0.110264 0.157672 0.154326 0.189292 0.207236 0.21644 0.280908 0.18629 0.189403 
0.178792 0.0927271 0.146363 0.161058 0.188759 0.115661 0.101129 0.0975976 0.0904064 
0.0771178 0.112021 0.143781 0.152499 0.148178 0.164663 0.136564 0.136564 0.117273 
0.124025 0.0993781 0.118942 0.22682 0.22682 0.218635 0.219662 0.144438 0.142709 
0.13787 0.108248 0.134774 0.176179 0.217689 0.32177 0.398127 0.398127 0.32862 
0.341482 0.421937 0.318239 0.299336 0.299336 0.186144 0.204725 0.100222 0.0669517 
0.0646464 0.0799944 0.141014 0.130423 0.177114 0.180769 0.232399 0.239305 0.226129 
0.204469 0.178848 0.116371 0.0987321 0.0989757 0.0827332 0.0581108 0.116314 0.221695 
0.335346 0.211229 0.21751 0.210746 0.159544 0.0963559 0.0830335 0.103453 0.142909 
0.137731 0.153572 0.123023 0.0869664 0.171701 0.144013 0.13415 0.123965 0.130701 
0.131585 0.198172 0.253014 0.104372 0.148329 0.188475 0.19947 0.277825 0.242266 
0.193631 0.315307 0.298833 0.253519 0.232884 0.216541 0.174391 0.16107 0.175596 
0.145863 0.165709 0.172616 0.199395 0.222965 0.326229 0.340709 0.269587 0.253863 
0.169408 0.167001 0.151154 0.172428 0.229498 0.287923 0.249236 0.305014 0.311267 
0.499756 0.499756 0.259958 0.259958 0.189597 0.154279 0.179785 0.162388 0.184382 
0.137264 0.28475 0.326117 0.394697 0.167472 0.169718 0.264494 0.281365 0.206764 
0.206764 0.107314 0.107314 0.057007 0.0569856 0.0569856 0.0800171 0.288143 0.288143 
0.250856 0.100076 0.124165 0.206855 0.178649 0.158305 0.203542 0.321667 0.335 
0.398711 0.353939 0.398451 0.360448 0.490748 0.494525 0.421066 0.458701 0.189985 
0.214876 0.262782 0.0575296 0.0637238 0.245171 0.159484 0.156048 0.152591 0.0986707 
0.139097 0.160645 0.211943 0.239904 0.215164 0.181926 0.181926 0.163917 0.0829725 
0.0829725 0.149446 0.12954 0.12954 0.203062 0.220674 0.201184 0.189885 0.120623 
0.0871442 0.153165 0.108191 0.150194 0.133372 0.105839 0.0923836 0.116575 0.105554 
0.0768239 0.0768239 0.0670967 0.0594913 0.0717967 0.0868359 0.099071 0.0860884 0.106614 
0.151366 0.187044 0.196305 0.229207 0.0636763 0.0864299 0.091609 0.091609 0.107553 
0.107553 0.091668 0.122162 0.122162 0.161219 0.192943 0.220767 0.194527 0.16071 
0.13846 0.144643 0.112704 0.0953733 0.10963 0.0608403 0.0746742 0.226361 0.165582 
0.212453 0.122038 0.145021 0.255171 0.11004 0.11004 0.103674 0.101689 0.116426 
0.182133 0.203757 0.346587 0.394583 0.353548 0.301999 0.40279 
WidthEq 1 484 double
5.56319 2.54926 2.66559 4.24784 7.70767 5.5233 4.03398 4.12399 2.12696 
5.16742 13.4553 6.94975 4.48447 5.02999 5.47526 3.96589 10.3056 3.2274 
2.16998 10.2818 4.83952 1 9.64372 6.40528 5.71711 4.74324 5.49281 
3.61022 6.20708 11.4749 6.6394 6.63146 1.1228 1.86109 12.6282 10.665 
6.92406 12.1155 9.18383 7.01491 9.81853 8.96642 13.2717 5.8349 11.6867 
8.63894 4.51768 3.98553 11.1351 8.58485 4.27291 4.91053 5.94351 6.73965 
13.2362 5.57196 13.3354 9.88766 10.2419 10.7264 2.24977 7.42238 5.5895 
5.09494 4.89528 4.84223 4.6455 7.22669 7.20998 8.30436 9.59401 7.99818 
8.3927 8.70723 9.20409 9.58378 9.9831 9.87032 9.89058 11.0934 12.0979 
6.68159 5.2378 5.46294 5.08868 7.17259 6.81337 6.73275 6.75051 7.56148 
5.93118 6.61225 5.81966 5.25659 6.15215 6.13252 6.45624 8.58485 10.2749 
7.69389 9.37827 3.33287 6.85263 11.321 10.7483 11.2228 10.3766 10.7786 
11.0033 10.3501 10.7813 10.9952 10.7504 11.0758 11.6059 9.14436 8.1001 
7.70997 7.85951 6.65611 6.41885 5.94914 5.86247 6.41447 6.45999 10.7594 
10.5315 10.3895 9.43048 9.29849 8.28598 8.6617 8.70786 9.83231 12.2496 
12.1637 9.60738 12.1825 13.0547 13.0547 13.5927 12.9611 12.9611 11.5829 
11.8199 12.1627 12.7074 11.9718 11.6729 10.2845 10.5326 10.2045 11.6362 
12.0438 11.1259 10.7281 5.94351 8.8787 9.27113 9.28387 7.75487 7.75383 
5.68787 4.74178 5.41741 5.3251 6.9132 6.9132 9.34799 9.56519 12.0211 
13.5127 13.0745 7.38103 10.999 10.2285 9.60425 10.7001 10.4273 9.74063 
6.16113 6.25804 8.07233 8.47499 8.47499 7.82755 7.87141 7.65629 7.09135 
8.74315 9.03993 8.60803 8.60803 7.50592 6.92887 6.81713 7.35868 7.38708 
7.23838 7.99902 7.99902 8.47687 7.44702 7.92843 7.98565 8.23231 7.83632 
7.87788 7.87788 7.73775 8.55665 7.96539 8.27909 9.50588 8.92026 9.44761 
10.2329 10.9854 12.6992 13.5831 13.3707 8.87452 9.6032 9.88077 10.8275 
13.5359 10.6401 10.022 8.68927 8.04016 8.19701 7.90587 9.55747 8.39229 
5.32364 10.9668 9.98791 9.54577 9.03492 12.3719 13.9147 13.8525 14.1825 
12.1907 9.13329 7.89104 7.20225 6.84177 6.67156 6.63982 6.63982 6.81316 
6.48004 6.86245 6.59032 4.61981 4.61981 4.55673 4.54191 5.41156 5.41908 
5.58846 11.1671 9.20701 7.58842 6.28414 5.15948 4.39258 4.39258 4.8391 
4.8673 4.18456 5.00305 4.84307 4.84307 5.35914 4.88735 6.26326 13.0724 
11.3488 9.18383 7.32422 7.16696 6.53623 5.54418 5.42221 4.94958 4.98634 
4.94332 5.50972 8.13352 9.42631 10.1809 12.3682 10.8212 6.80836 5.3063 
2.74996 10.2617 10.1694 9.88849 10.5445 11.3672 11.17 7.7839 6.3539 
5.98507 5.23654 5.47422 6.29458 6.8919 7.3119 7.23003 6.94516 6.63146 
11.444 9.63599 8.08151 6.93179 6.89796 6.72294 6.38335 5.58157 5.39151 
8.87452 7.00865 7.03621 7.00238 7.38207 7.44055 7.98335 8.80247 8.3808 
9.58608 9.29097 9.26445 8.76383 8.42758 7.09845 6.89315 7.98085 8.37871 
10.0758 10.4457 10.1698 9.57313 8.52971 7.95495 8.29684 7.61745 6.8944 
4.13715 4.13715 8.47144 8.47144 10.6274 11.9442 11.4998 11.9797 11.3043 
9.59736 5.74572 4.81446 3.54548 7.12623 5.35287 3.75746 3.52083 4.03231 
4.03231 5.18391 5.18391 6.31505 7.03392 7.03392 6.8094 8.54746 8.54746 
8.60218 7.55062 7.44702 6.18389 9.24252 9.92128 10.2932 3.70441 7.48775 
6.03999 5.2543 4.72987 5.2167 4.46526 4.56551 4.84662 4.20816 10.476 
10.2826 9.48395 5.66908 7.50488 4.06865 7.2789 8.8528 10.1544 13.0597 
7.23817 6.91675 5.97421 5.37668 4.87983 4.84203 4.84203 4.78626 6.84741 
6.84741 5.46879 5.52184 5.52184 4.19563 4.14279 4.47278 4.8627 5.81569 
6.50761 5.4218 6.04501 5.42284 5.17159 5.51787 5.26432 5.06612 4.99135 
5.16115 5.16115 5.43871 5.66448 5.62125 5.67555 5.71857 5.90403 5.8915 
5.45521 5.01579 4.69666 4.24074 5.32176 6.27537 6.49759 6.49759 6.52808 
6.52808 6.9107 6.55231 6.55231 5.87981 5.53478 5.16407 5.2969 5.84681 
5.9976 6.67866 8.1684 10.0579 10.2364 13.5989 14.3009 4.15094 11.4877 
8.24024 5.56193 5.20751 4.17266 5.25179 5.25179 5.2827 5.72588 5.65446 
5.14089 4.9711 5.25242 3.01646 5.36979 4.22988 3.22385 
rRFP 1 484 double
2516.05 2371.74 2377.31 2453.07 2618.73 2514.14 2442.83 2447.14 2351.52 
2497.1 2893.93 2582.44 2464.4 2490.52 2511.84 2439.57 2743.12 2404.21 
2353.58 2741.98 2481.4 2297.56 2711.43 2556.37 2523.42 2476.79 2512.68 
2422.54 2546.88 2799.11 2567.58 2567.2 2303.44 2338.79 2854.33 2760.33 
2581.21 2829.78 2689.41 2585.56 2719.8 2679 2885.14 2529.06 2809.25 
2663.32 2465.99 2440.51 2782.84 2660.73 2454.27 2484.8 2534.26 2572.38 
2883.44 2516.47 2888.19 2723.11 2740.07 2763.27 2357.4 2605.07 2517.31 
2493.63 2484.07 2481.53 2472.11 2595.7 2594.9 2647.3 2709.05 2632.64 
2651.53 2666.59 2690.38 2708.56 2727.68 2722.28 2723.25 2780.84 2828.94 
2569.6 2500.47 2511.25 2493.33 2593.11 2575.91 2572.05 2572.9 2611.73 
2533.67 2566.28 2528.33 2501.37 2544.25 2543.31 2558.81 2660.73 2741.65 
2618.07 2698.72 2409.26 2577.79 2791.74 2764.32 2787.04 2746.52 2765.77 
2776.53 2745.25 2765.9 2776.14 2764.42 2780 2805.38 2687.52 2637.52 
2618.84 2626 2568.38 2557.02 2534.53 2530.38 2556.81 2558.99 2764.85 
2753.94 2747.14 2701.22 2694.9 2646.42 2664.41 2666.62 2720.46 2836.2 
2832.09 2709.69 2832.99 2874.75 2874.75 2900.51 2870.27 2870.27 2804.28 
2815.63 2832.04 2858.12 2822.9 2808.59 2742.11 2753.99 2738.28 2806.83 
2826.35 2782.4 2763.35 2534.26 2674.8 2693.59 2694.2 2620.99 2620.94 
2522.02 2476.72 2509.07 2504.65 2580.69 2580.69 2697.27 2707.67 2825.26 
2896.68 2875.7 2603.09 2776.32 2739.43 2709.54 2762.01 2748.95 2716.07 
2544.68 2549.32 2636.19 2655.47 2655.47 2624.47 2626.57 2616.27 2589.22 
2668.31 2682.52 2661.84 2661.84 2609.07 2581.44 2576.09 2602.02 2603.38 
2596.26 2632.68 2632.68 2655.56 2606.25 2629.3 2632.04 2643.85 2624.89 
2626.88 2626.88 2620.17 2659.38 2631.07 2646.09 2704.83 2676.79 2702.04 
2739.64 2775.67 2857.73 2900.05 2889.88 2674.6 2709.49 2722.78 2768.11 
2897.79 2759.14 2729.54 2665.73 2634.65 2642.16 2628.22 2707.3 2651.51 
2504.58 2774.78 2727.91 2706.74 2682.28 2842.06 2915.93 2912.95 2928.75 
2833.38 2686.99 2627.51 2594.53 2577.27 2569.12 2567.6 2567.6 2575.9 
2559.95 2578.26 2565.23 2470.88 2470.88 2467.86 2467.15 2508.79 2509.15 
2517.26 2784.37 2690.52 2613.02 2550.57 2496.72 2460 2460 2481.38 
2482.73 2450.04 2489.23 2481.57 2481.57 2506.28 2483.69 2549.57 2875.6 