# vtk DataFile Version 3.0
vtk output
ASCII
DATASET POLYDATA
POINTS 445 float
-0.357999 -0.820945 0.202851 -0.684467 -0.440762 -0.297818 1.99187 -0.532186 -1.40776 
2.96705 0.340138 -0.0711041 5.35882 -0.129812 -0.399852 2.98812 0.421388 0.181843 
5.30434 -0.0276199 -0.821561 4.93892 0.557988 0.520837 5.59196 0.473938 0.40176 
4.60581 0.559076 0.420671 5.93808 0.208853 -0.510588 5.70215 0.613298 0.470361 
6.04685 0.816422 0.26677 6.18126 0.61321 -0.207578 3.51494 0.706871 -0.253593 
1.06978 1.39181 0.391161 6.42196 1.03414 -0.107587 6.41437 0.597914 -0.459518 
6.30542 1.06761 -0.851412 5.92898 0.85539 -1.01688 2.49407 0.84016 -1.55298 
6.55754 0.988063 -0.508615 2.93725 1.27295 -0.545748 5.81453 0.858513 -1.24025 
2.67273 1.12515 -1.19776 0.92977 1.22489 -1.35969 2.40076 1.60122 -0.247855 
6.43428 1.59513 -0.0719587 1.55388 1.7907 -1.1138 5.92178 1.8564 -0.716299 
6.21454 1.55918 -0.811312 1.42615 1.83423 -1.25226 6.31361 1.92483 -0.170423 
5.62979 1.81784 -0.796636 6.44498 1.70595 -0.9721 5.06954 2.32406 -0.619135 
5.08337 2.30957 -0.670595 5.12271 2.29582 -0.711201 5.17482 2.28732 -0.727602 
5.22894 2.27914 -0.742172 5.28206 2.26052 -0.767674 5.33463 2.23139 -0.774694 
5.38584 2.18327 -0.766584 5.43648 2.12799 -0.756614 5.48671 2.07025 -0.756316 
5.53626 2.00827 -0.77255 5.5842 1.92567 -0.779993 6.00796 1.87017 -0.795906 
6.07175 1.84541 -0.818074 6.12223 1.76907 -0.806501 6.16887 1.66651 -0.796653 
6.39118 1.71323 -0.931347 6.3347 1.69332 -0.907482 6.27532 1.63767 -0.874338 
6.49139 1.58623 -0.886503 6.5353 1.45952 -0.799014 6.56617 1.31953 -0.707584 
6.56832 1.16043 -0.610067 6.41632 1.38452 -0.926574 5.68646 1.8247 -0.758366 
5.74517 1.83178 -0.736384 5.81862 1.84504 -0.715501 5.6273 1.77543 -0.842485 
5.63301 1.71072 -0.882958 5.65399 1.62309 -0.918186 5.67002 1.5143 -0.947787 
5.70307 1.40404 -0.977713 5.74556 1.284 -1.00541 5.79143 1.15876 -1.02991 
5.84777 1.01218 -1.03717 6.36657 1.76564 -0.126331 1.48611 1.81303 -1.18701 
1.63133 1.74716 -1.11927 1.69223 1.70472 -1.11578 1.74555 1.66587 -1.11073 
1.79838 1.63911 -1.1184 1.8515 1.62051 -1.1438 1.9058 1.6128 -1.1565 
1.96044 1.60711 -1.16129 2.01474 1.5994 -1.17398 2.06845 1.58795 -1.20124 
2.12217 1.57311 -1.21197 2.17514 1.54646 -1.20932 2.22643 1.49882 -1.19934 
2.27715 1.44405 -1.1874 2.32844 1.39644 -1.17732 2.38149 1.37027 -1.1728 
2.43569 1.35837 -1.1721 2.48988 1.34599 -1.1732 2.54319 1.30943 -1.17905 
2.60068 1.23169 -1.19435 1.59934 1.83834 -1.0442 1.63993 1.87259 -0.988285 
1.65619 1.89496 -0.936463 1.66069 1.91083 -0.883819 1.66503 1.92429 -0.830626 
1.68114 1.93673 -0.777657 1.72421 1.94685 -0.725206 1.77916 1.95591 -0.673089 
1.83596 1.96436 -0.622771 1.89247 1.97029 -0.58223 1.94771 1.96486 -0.556268 
2.00258 1.95357 -0.523448 2.05665 1.93382 -0.493881 2.1125 1.93209 -0.453458 
2.16885 1.93709 -0.416557 2.22376 1.92913 -0.40043 2.27583 1.87074 -0.372487 
2.33179 1.75877 -0.31313 6.2044 1.38061 -0.809525 6.22437 1.22086 -0.810314 
5.91293 1.64813 -0.557382 5.9251 1.4794 -0.44063 5.9291 1.37258 -0.354059 
5.92669 1.30604 -0.279947 5.92376 1.25535 -0.210008 5.92142 1.2118 -0.141926 
5.92205 1.1824 -0.0775921 5.93341 1.15928 -0.0152589 5.96094 1.10622 0.0550818 
5.98899 0.989814 0.147745 6.45204 1.32123 -0.0864589 6.37736 1.39435 0.0633224 
6.31219 1.20387 0.166724 6.24197 1.0384 0.226825 6.15911 0.912372 0.257572 
6.26578 1.00796 -0.937242 6.21297 0.956141 -0.99286 6.15454 0.913519 -1.02432 
6.09506 0.888379 -1.02997 6.0245 0.87056 -1.0246 2.46528 1.57189 -0.311034 
2.52109 1.534 -0.35079 2.57248 1.48267 -0.354995 2.62307 1.42687 -0.347039 
2.6738 1.37577 -0.350572 2.72521 1.33945 -0.385672 2.77737 1.31491 -0.434257 
2.83044 1.29951 -0.476899 2.88411 1.28788 -0.504877 2.35916 1.58869 -0.161346 
2.30944 1.58455 -0.104186 2.25737 1.58202 -0.0711264 2.21641 1.57481 -0.0230059 
2.19967 1.55362 0.0379458 2.18301 1.53288 0.100662 2.14249 1.52862 0.16025 
2.09135 1.53965 0.216247 2.03879 1.55753 0.268662 1.98572 1.57292 0.311304 
1.93139 1.57695 0.339367 1.87611 1.56795 0.376039 1.81879 1.53574 0.411406 
1.76109 1.49762 0.453531 1.7033 1.46246 0.477361 1.64684 1.44623 0.485848 
1.59148 1.44383 0.488862 1.53669 1.44856 0.489912 1.48191 1.45329 0.490963 
1.42712 1.45802 0.492013 1.37233 1.46273 0.492957 1.31747 1.46698 0.49214 
1.26197 1.46633 0.482127 1.20454 1.4542 0.456833 1.14219 1.43034 0.434115 
6.51249 1.16441 -0.208257 6.57913 1.23061 -0.28719 6.61935 1.21562 -0.342183 
6.62714 1.15312 -0.383327 6.62029 1.08229 -0.421713 6.6009 1.02695 -0.46355 
0.86761 1.14848 -1.37781 0.805868 1.07111 -1.36987 0.743942 0.989067 -1.35049 
0.6822 0.911701 -1.34254 0.620041 0.835286 -1.36067 0.558462 0.766012 -1.38065 
0.497889 0.702983 -1.37632 0.437792 0.642901 -1.36044 0.377846 0.583754 -1.34091 
0.318888 0.534288 -1.31337 0.261778 0.50336 -1.273 0.205696 0.485896 -1.23958 
0.150225 0.472218 -1.19138 0.0935951 0.444274 -1.13937 0.0358461 0.405841 -1.0985 
-0.0213655 0.370747 -1.04463 -0.0779955 0.342804 -0.992627 -0.135743 0.30438 -0.951754 
-0.19296 0.26925 -0.897995 -0.249667 0.240827 -0.847858 -0.305562 0.228062 -0.825849 
-0.360871 0.222464 -0.805589 -0.415757 0.21596 -0.759151 -0.472501 0.183772 -0.693954 
-0.531565 0.123021 -0.621226 -0.593724 0.0240597 -0.548784 -0.654949 -0.107586 -0.483664 
-0.694367 -0.266093 -0.396898 2.634 1.01454 -1.25149 2.60501 0.936111 -1.29656 
2.57019 0.896148 -1.34311 2.54358 0.877392 -1.3941 2.51249 0.866241 -1.44678 
2.4983 0.85363 -1.49978 2.72937 1.13733 -1.13308 2.76399 1.14885 -1.07787 
2.80875 1.1488 -1.03449 2.86102 1.12973 -1.00288 2.91382 1.09283 -0.95109 
2.96463 1.0514 -0.88774 3.00421 1.01861 -0.82426 3.01846 1.00962 -0.765722 
3.02019 1.01611 -0.710632 3.0111 1.03793 -0.659026 2.98662 1.08267 -0.61266 
2.96838 1.16285 -0.575636 5.82038 0.863387 -1.18269 5.84942 0.862003 -1.1124 
2.97008 1.01527 -0.421636 2.98501 0.702583 -0.268583 6.48549 0.79011 -0.495295 
5.9191 0.687347 -0.876291 5.91869 0.540956 -0.767607 5.92762 0.424978 -0.679316 
5.91869 0.319055 -0.594859 6.31801 0.899568 -0.717506 6.33003 0.761118 -0.613417 
6.36569 0.665371 -0.531715 6.29002 0.825617 -0.163594 1.07987 1.40175 0.30451 
1.06973 1.40806 0.236942 1.02806 1.40708 0.180686 0.973335 1.40038 0.127882 
0.916537 1.39193 0.0775632 0.860032 1.386 0.0370226 0.804207 1.38428 0.0129172 
0.748184 1.38134 -0.0159789 0.692517 1.3806 -0.036242 0.637048 1.3811 -0.0517231 
0.582286 1.38243 -0.0341617 0.526236 1.36871 -0.0158992 0.468593 1.33448 0.01158 
0.411491 1.29936 0.0654427 0.356893 1.26702 0.130705 0.316751 1.24111 0.195714 
0.31477 1.20473 0.261944 0.349814 1.16515 0.327466 0.388709 1.12522 0.392805 
0.415054 1.09311 0.454776 0.455615 1.05004 0.508536 0.505442 1.00186 0.545577 
0.55838 0.968657 0.582089 0.613724 0.967391 0.594551 0.671967 1.0018 0.59753 
0.731834 1.05338 0.607914 0.79069 1.09868 0.593872 0.848411 1.13532 0.555977 
0.909593 1.19596 0.522894 0.980907 1.28543 0.475927 6.35632 0.549589 -0.387869 
6.30056 0.537228 -0.324871 6.24413 0.564285 -0.267889 6.29437 0.771856 0.015022 
6.21054 0.612413 0.113843 6.16131 0.589889 0.179176 6.12411 0.675847 0.222642 
5.95771 0.745285 0.349229 5.88821 0.692242 0.389222 5.8287 0.66536 0.414884 
5.76775 0.649426 0.452677 3.56269 0.700684 -0.218077 3.61064 0.6689 -0.192436 
3.66104 0.617911 -0.166074 3.71258 0.566812 -0.124968 3.76483 0.525143 -0.0917011 
3.81911 0.506649 -0.0572368 3.87428 0.500739 -0.0331429 3.9303 0.503685 -0.00424635 
3.98605 0.504925 0.0179912 4.0415 0.500748 0.0488507 4.09557 0.481002 0.0784269 
4.14851 0.443571 0.128226 4.20087 0.399008 0.179989 4.25328 0.358299 0.217002 
4.30805 0.342817 0.263216 4.36495 0.351227 0.313427 4.4236 0.381077 0.358069 
4.48359 0.429916 0.38758 4.54415 0.489269 0.398607 3.45214 0.707593 -0.255678 
3.39163 0.702792 -0.248787 3.33538 0.700676 -0.244981 3.2789 0.68747 -0.237186 
3.21535 0.636058 -0.208716 3.12093 0.516671 -0.143746 6.08505 0.432996 -0.172949 
6.00818 0.284288 -0.148858 5.9429 0.184066 -0.15125 5.88255 0.127574 -0.161056 
5.8243 0.100203 -0.196028 5.76682 0.084643 -0.244381 5.70992 0.0762334 -0.294591 
5.65341 0.0703023 -0.335132 5.59701 0.0614588 -0.357283 5.53931 0.037499 -0.378947 
5.48047 -0.00414249 -0.38038 5.4204 -0.0605105 -0.379763 5.64844 0.548598 0.440885 
4.66263 0.566952 0.468799 4.71858 0.569472 0.496031 4.77292 0.561971 0.484169 
4.82779 0.557747 0.485093 4.88359 0.559307 0.508579 4.65131 0.454939 0.388661 
4.69489 0.350969 0.356688 4.72785 0.262314 0.321227 4.73684 0.190121 0.282538 
4.74565 0.139533 0.238317 4.7683 0.0949515 0.191986 4.77885 0.0658139 0.142195 
4.79191 0.0436509 0.0905133 4.83069 0.0264672 0.0364923 4.88125 0.00826717 -0.0177541 
4.93373 -0.0100717 -0.0719313 4.9864 -0.0279411 -0.124242 5.03954 -0.042878 -0.165113 
5.09369 -0.05158 -0.181659 5.14783 -0.0602819 -0.198206 5.20097 -0.0752188 -0.239076 
5.25364 -0.0930882 -0.291387 5.30623 -0.111437 -0.345566 5.30839 0.00745664 -0.773897 
5.31426 0.0423765 -0.726266 5.32891 0.0621471 -0.675116 5.35692 0.0591743 -0.618687 
5.36693 0.0217637 -0.552687 5.36465 -0.0433871 -0.47907 2.97921 0.37871 0.04919 
2.98516 0.403814 0.125575 2.95502 0.136561 -0.122257 2.94444 -0.00458856 -0.159159 
2.93803 -0.0736509 -0.200473 2.93473 -0.101032 -0.250276 2.93242 -0.114668 -0.303509 
2.9283 -0.128148 -0.356708 2.91423 -0.140769 -0.409715 2.88495 -0.152077 -0.462431 
2.86826 -0.171671 -0.513542 2.84858 -0.205399 -0.560907 2.80384 -0.258553 -0.602258 
2.75612 -0.325824 -0.639753 2.72106 -0.400929 -0.673883 2.67119 -0.472242 -0.698051 
2.61198 -0.538902 -0.707262 2.55042 -0.608719 -0.729327 2.48887 -0.678536 -0.751392 
2.43024 -0.738054 -0.762457 2.38212 -0.787919 -0.792196 2.35043 -0.820124 -0.837461 
2.30533 -0.830038 -0.889767 2.25201 -0.81768 -0.947556 2.19863 -0.783697 -1.01077 
2.14638 -0.734953 -1.07594 2.09521 -0.676591 -1.13329 2.04646 -0.614623 -1.17601 
2.0067 -0.564445 -1.23174 1.98431 -0.53268 -1.29378 1.96856 -0.523538 -1.35219 
2.81797 0.0594825 0.0405606 2.71901 -0.168395 0.114993 2.64798 -0.317752 0.158082 
2.5844 -0.419117 0.188777 2.52369 -0.49006 0.221785 2.46417 -0.550109 0.2675 
2.40455 -0.607232 0.294926 2.34413 -0.669329 0.302904 2.28295 -0.736099 0.292688 
2.22197 -0.801642 0.287263 2.1613 -0.861769 0.273216 2.10207 -0.905862 0.262221 
2.04438 -0.929769 0.24076 1.98795 -0.942324 0.23388 1.93134 -0.959513 0.238631 
1.87305 -0.997718 0.250604 1.81412 -1.04351 0.262781 1.75536 -1.08464 0.263323 
1.69767 -1.10855 0.241863 1.64135 -1.11689 0.221695 1.58482 -1.12653 0.196417 
1.52773 -1.1467 0.189524 1.4689 -1.18829 0.188294 1.40896 -1.24035 0.176032 
1.3502 -1.28148 0.176574 1.29352 -1.29915 0.179457 1.23767 -1.30456 0.17072 
1.1818 -1.30654 0.14556 1.12654 -1.3048 0.134966 1.07159 -1.30103 0.132281 
1.01633 -1.29928 0.121688 0.961037 -1.29415 0.0945734 0.90744 -1.27141 0.0766412 
0.855585 -1.22727 0.0530438 0.803705 -1.17972 0.0129141 0.751459 -1.138 -0.020149 
0.696753 -1.12569 -0.0490133 0.6408 -1.13528 -0.0443461 0.58353 -1.1672 -0.00783603 
0.52515 -1.20955 0.0177565 0.467607 -1.23962 0.0317251 0.412647 -1.23951 0.0445051 
0.359706 -1.21625 0.0583765 0.305377 -1.20514 0.0545601 0.250774 -1.20282 0.0759741 
0.195783 -1.20643 0.103917 0.14321 -1.18443 0.142621 0.0928985 -1.13424 0.172344 
0.0428145 -1.07555 0.175683 -0.00792441 -1.02447 0.17912 -0.0598797 -0.99156 0.20091 
-0.113608 -0.976723 0.211641 -0.167997 -0.966732 0.213362 -0.222556 -0.942632 0.210255 
-0.282872 -0.893071 0.204815 -0.710356 -0.266346 -0.284633 -0.723951 -0.128972 -0.262461 
-0.744935 -0.041352 -0.22723 -0.752393 0.00191846 -0.18119 -0.752117 0.0157301 -0.127918 
-0.751662 0.00793549 -0.0691156 -0.75092 -0.0214748 -0.00478365 -0.739471 -0.0662377 0.0629271 
-0.701712 -0.120985 0.130003 -0.653208 -0.187307 0.185406 -0.604847 -0.270152 0.206752 
-0.55862 -0.374003 0.205603 -0.512027 -0.477017 0.217686 -0.465111 -0.585573 0.238067 
-0.414791 -0.69652 0.240448 -0.635732 -0.531898 -0.219647 -0.587066 -0.601447 -0.147006 
-0.546606 -0.648677 -0.0797476 -0.519655 -0.675549 -0.0171078 -0.477522 -0.710762 0.0477042 
-0.422334 -0.758111 0.119158 
LINES 42 537
13 35 36 37 38 39 40 41 42 43 44 45 46 33 
6 29 47 48 49 50 30 
5 34 51 52 53 30 
6 34 54 55 56 57 21 
3 34 58 18 
5 33 59 60 61 29 
10 33 62 63 64 65 66 67 68 69 19 
3 32 70 27 
3 31 71 28 
21 28 72 73 74 75 76 77 78 79 80 81 82 83 84 85 86 87 88 89 90 24 
20 28 91 92 93 94 95 96 97 98 99 100 101 102 103 104 105 106 107 108 26 
4 30 109 110 18 
12 29 111 112 113 114 115 116 117 118 119 120 12 
3 27 121 16 
6 27 122 123 124 125 12 
7 18 126 127 128 129 130 19 
11 26 131 132 133 134 135 136 137 138 139 22 
27 26 140 141 142 143 144 145 146 147 148 149 150 151 152 153 154 155 156 157 158 159 160 161 162 163 164 15 
8 16 165 166 167 168 169 170 21 
30 25 171 172 173 174 175 176 177 178 179 180 181 182 183 184 185 186 187 188 189 190 191 192 193 194 195 196 197 198 1 
8 24 199 200 201 202 203 204 20 
14 24 205 206 207 208 209 210 211 212 213 214 215 216 22 
4 23 217 218 19 
4 22 219 220 3 
3 21 221 17 
6 19 222 223 224 225 10 
5 18 226 227 228 17 
3 16 229 13 
32 15 230 231 232 233 234 235 236 237 238 239 240 241 242 243 244 245 246 247 248 249 250 251 252 253 254 255 256 257 258 259 15 
5 17 260 261 262 13 
6 16 263 264 265 266 12 
14 13 296 297 298 299 300 301 302 303 304 305 306 307 4 
7 9 309 310 311 312 313 7 
20 9 314 315 316 317 318 319 320 321 322 323 324 325 326 327 328 329 330 331 4 
8 6 332 333 334 335 336 337 4 
4 3 338 339 5 
31 3 340 341 342 343 344 345 346 347 348 349 350 351 352 353 354 355 356 357 358 359 360 361 362 363 364 365 366 367 368 2 
57 3 369 370 371 372 373 374 375 376 377 378 379 380 381 382 383 384 385 386 387 388 389 390 391 392 393 394 395 396 397 398 399 400 401 402 403 404 405 406 407 408 409 410 411 412 413 414 415 416 417 418 419 420 421 422 423 0 
17 1 424 425 426 427 428 429 430 431 432 433 434 435 436 437 438 0 
8 1 439 440 441 442 443 444 0 
8 12 267 268 269 270 11 308 8 
28 9 289 288 287 286 285 284 283 282 281 280 279 278 277 276 275 274 273 272 271 14 290 291 292 293 294 295 3 

POINT_DATA 445
SCALARS DY_raw double
LOOKUP_TABLE default
1530.85 1290.25 843.356 1106.58 1652.01 2020.43 1512.1 2298.14 1524.47 
1346.22 2398.78 1483.69 1827.23 1829.78 1149.46 1172.28 1948.11 1842.38 
1668.39 1768.05 912.971 1893.81 1082.63 1385.44 1004.14 1433.48 1659.85 
1768.19 1153.57 1730.13 1651.96 1157.07 1273.56 1355.37 953.575 1520.28 
1520.28 1475.8 1545.24 1447.51 1447.51 1447.82 1305.76 1370.43 1410.43 
1478.09 1375.81 1508.61 1548.78 1398.84 1448.72 1089.31 1362.63 1378.94 
1298.09 1403.64 1532.95 1488.52 1336.78 1604.76 1727.19 1731.87 1394.98 
1292.66 1179.44 1514.48 1412.01 1631.6 1597.14 1711.39 1484.98 1091.42 
1137.29 1292.64 1324.38 1293.91 1293.91 1320 1311.08 1311.08 1392.69 
1345.57 1505 1288.37 1272.12 1272.12 1128.05 1128.05 951.837 972.305 
1016.73 1034.32 1064.53 1078.43 1057.31 1057.31 1065.68 1080.82 1041.84 
1014.46 1033.74 1032.58 1065.7 1103.72 1312.7 1392.07 1386.93 1378.82 
1382.12 1552.96 1498.52 1615.93 1561.23 1488.83 1358.18 1408.66 1515.58 
1561.02 1624.35 1626.15 1685.45 1801.17 2087.83 2117.96 2011.43 2020.85 
1521.32 1400.38 1489.74 1677.03 1784.19 1517.52 1321.5 1428.53 1360.29 
1457.87 1354.39 1469.66 1370.45 1239.82 1819.14 1668.13 1599.57 1459.48 
1342.03 1473.8 1452.36 1382.14 1352.91 1486.56 1337.47 1246.2 1447.58 
1354.87 1351.16 1351.16 1400.59 1400.59 1406.03 1426.45 1328.24 1331.28 
1273.88 1206.52 1214.62 1830.16 1752.45 1867.16 1783.96 1913.06 1844.27 
1233.55 1111.91 1083.1 1180.18 1196.08 1130.02 1237.74 1236.5 1233.78 
1231.03 1345.97 1261.76 1252.63 1354.67 1424.16 1318.24 1229.38 1460.06 
1394.75 1340.34 1488.33 1373.91 1261.05 1242.36 1323.35 1294.64 1283.19 
1276.89 992.928 1019.2 1110.65 1030.79 1030.79 949.215 1134.76 1231.72 
1208.71 1063.33 1051.2 948.95 1033.28 1013.97 1090.23 1090.23 1191.09 
1192.53 1485.29 1600.96 1733.48 1221.24 1848.62 1880.99 1759.91 1755.28 
2017.38 1623.97 1583.21 1579.95 1739.98 1212.9 1176.08 1210.62 1314.22 
1353.28 1520.64 1485.88 1485.88 1358.55 1309.77 1309.77 1399.16 1180.93 
1241.53 1164.84 1162.34 1197.4 1214.99 1302.89 1286.05 1233.7 1272.81 
1278.8 1278.8 1413.4 1540.97 1439.91 1626.57 1489.49 1359.62 2000.68 
2141.19 1952.39 2021.2 2267.93 2372.23 2173.31 1865.5 1770.29 1561.13 
1493.89 1136.44 1267.22 1452.61 1567.41 1744.75 1621.9 1447.11 1447.11 
1406.92 1324.5 1433.32 1305.07 1338.7 1463.32 1623.59 1674.26 1569.68 
1485.81 1436.5 1191.4 1273.26 1464.32 1664.15 1653.04 1598.04 1980.59 
2214.94 2221.04 1949.24 1899.57 1847.84 1709.87 1682.21 1609.14 1607.92 
1517.86 1536.17 1495.71 1330.73 1427.32 1615.26 1807.63 1807.63 1394.97 
1516.89 1661.64 1450.81 1518.38 1528.58 1621.11 1621.11 1735.03 1816.82 
2009.63 1824.97 1942.68 1671.05 1753.04 1696.61 1476.47 1557.03 1531.87 
1418.32 1418.32 1335.41 1220.17 1317.48 1368.65 1567.05 1002.1 1119.41 
1190.46 1229.21 1290.18 1332.06 1332.06 1325.93 1164.04 1164.04 1100.68 
1227.67 1292.46 1214.32 1160.12 1266.81 1191.41 1281.36 1204.12 1284.71 
1262.01 1412.51 1412.51 1360.02 1249.95 1075.41 925.871 842.136 843.356 
995.172 1105.83 1235.58 1269.07 1236.7 1227.45 1334.6 1209.1 1373.74 
1391.03 1467.32 1438.02 1375.41 1250.51 1360.98 1205.45 1219.1 1335.88 
1317.08 1231.39 1231.39 1255.54 1480.29 1584.34 2052.05 1957.91 1913.96 
1827.64 1827.64 1644.73 1527.05 1527.05 1536.9 1460.7 1372.66 1203.89 
1219.1 1284.15 1349.17 1432.16 1505.21 1454.76 1454.76 1311.06 1284.94 
1392.58 1392.58 1453.14 1366.11 1457.68 1419.29 1316.64 1340.44 1536.73 
1597.72 1325 1245.89 1142.37 1121.68 1056.05 1056.05 1030.05 1083.15 
1100.38 1179.3 1208.49 1338.46 1491.35 1565.78 1586 1268.87 1325.77 
1329.51 1496.93 1507.87 1488.78 
FIELD FieldData 7
DY_minmax 1 445 double
0.442434 0.287871 0.000783601 0.169884 0.520269 0.756945 0.430391 0.935353 0.438339 
0.32383 1 0.412142 0.632836 0.634474 0.197425 0.21209 0.710487 0.642563 
0.530792 0.594817 0.0455053 0.675603 0.154494 0.349023 0.104072 0.379882 0.525305 
0.594906 0.200067 0.570457 0.520235 0.202317 0.277151 0.329709 0.0715896 0.435648 
0.435648 0.407069 0.451678 0.388895 0.388895 0.389094 0.297833 0.339381 0.365074 
0.408544 0.342839 0.428146 0.453955 0.357633 0.389676 0.15879 0.334367 0.344845 
0.292908 0.360716 0.443784 0.415246 0.317765 0.489915 0.568564 0.571573 0.35515 
0.289424 0.21669 0.431921 0.366094 0.507159 0.48502 0.558419 0.412971 0.160145 
0.189612 0.289409 0.3098 0.290226 0.290226 0.306985 0.301251 0.301251 0.353684 
0.323413 0.425827 0.286668 0.276224 0.276224 0.183673 0.183673 0.0704726 0.0836216 
0.112163 0.123461 0.142866 0.1518 0.138228 0.138228 0.143607 0.153332 0.128294 
0.110703 0.12309 0.122345 0.143621 0.168042 0.302293 0.35328 0.349978 0.344771 
0.346894 0.45664 0.42167 0.49709 0.46195 0.41544 0.331514 0.363938 0.432626 
0.461818 0.502498 0.503658 0.541755 0.616095 0.800245 0.819604 0.751162 0.757215 
0.436314 0.358624 0.416029 0.53634 0.605187 0.433872 0.30795 0.376706 0.332865 
0.395556 0.329077 0.403129 0.339391 0.255476 0.627637 0.530629 0.486583 0.396589 
0.321136 0.405789 0.392016 0.346903 0.328123 0.413985 0.318205 0.259574 0.388946 
0.329384 0.327002 0.327002 0.358757 0.358757 0.362252 0.375371 0.312278 0.314229 
0.277358 0.234082 0.239286 0.634716 0.584796 0.658482 0.605035 0.687972 0.643779 
0.251449 0.173303 0.154795 0.217162 0.227375 0.184937 0.254138 0.253345 0.251598 
0.249831 0.323669 0.269573 0.263705 0.329257 0.373896 0.305855 0.248772 0.396957 
0.355005 0.32005 0.415119 0.341616 0.269112 0.257106 0.309137 0.290694 0.283337 
0.279289 0.0968702 0.113748 0.172497 0.121194 0.121194 0.0687884 0.187982 0.250271 
0.235491 0.142094 0.134306 0.0686183 0.122796 0.110387 0.159375 0.159375 0.224173 
0.225097 0.413167 0.487474 0.572607 0.24354 0.646575 0.667368 0.589583 0.586611 
0.754989 0.502257 0.476076 0.47398 0.576784 0.238181 0.214531 0.236715 0.303272 
0.328366 0.435879 0.413546 0.413546 0.33175 0.30041 0.30041 0.357834 0.217645 
0.256576 0.207309 0.205702 0.228223 0.239522 0.29599 0.285175 0.251543 0.276671 
0.280514 0.280514 0.366986 0.448937 0.384013 0.503927 0.415868 0.332434 0.744261 
0.834527 0.713237 0.757438 0.915942 0.982948 0.855159 0.657421 0.596256 0.461889 
0.418692 0.189063 0.273075 0.392171 0.465923 0.579846 0.500926 0.38864 0.38864 
0.362824 0.309878 0.379782 0.297391 0.318995 0.399054 0.502012 0.534563 0.467378 
0.413499 0.381824 0.224371 0.276959 0.399695 0.528071 0.520933 0.485602 0.731353 
0.881902 0.885817 0.711216 0.679304 0.646072 0.557442 0.53967 0.492733 0.491944 
0.434091 0.445853 0.419865 0.313875 0.375931 0.496664 0.620241 0.620241 0.355143 
0.433471 0.526458 0.391015 0.434422 0.440979 0.500421 0.500421 0.573605 0.626143 
0.750006 0.631384 0.706997 0.532503 0.585176 0.548922 0.407504 0.459256 0.443091 
0.370147 0.370147 0.316885 0.242853 0.305366 0.338237 0.465693 0.102765 0.17812 
0.223765 0.248661 0.287831 0.314732 0.314732 0.310795 0.206796 0.206796 0.166091 
0.24767 0.289293 0.239092 0.204275 0.272814 0.224374 0.282164 0.232541 0.284311 
0.269733 0.366416 0.366416 0.332692 0.261986 0.149859 0.053792 0 0.000783601 
0.0983116 0.169401 0.252751 0.274268 0.253474 0.247531 0.316362 0.235742 0.341508 
0.352614 0.401622 0.3828 0.342578 0.262346 0.333312 0.233394 0.242164 0.317186 
0.305107 0.250062 0.250062 0.265572 0.409957 0.476797 0.777262 0.716786 0.688549 
0.633094 0.633094 0.515596 0.439997 0.439997 0.446322 0.397369 0.340816 0.232391 
0.242167 0.283951 0.325723 0.379038 0.425967 0.393558 0.393558 0.301239 0.284463 
0.35361 0.35361 0.392514 0.336603 0.395432 0.37077 0.304824 0.320117 0.446215 
0.485393 0.310197 0.259375 0.192872 0.179584 0.137418 0.137418 0.120715 0.154832 
0.165897 0.216599 0.23535 0.31884 0.417062 0.464873 0.477868 0.274138 0.310692 
0.313093 0.420643 0.427674 0.41541 
WidthEq 1 445 double
1.98435 3.54788 2.71011 3.28608 2.3672 1 1.70328 1.35643 3.23942 
2.44344 1.92479 3.70191 3.4182 3.13795 1.84915 3.66986 3.04199 3.55642 
3.90308 4.09687 2.51372 2.85088 3.28399 3.51958 3.47352 2.84468 2.49163 
3.4242 3.12823 3.55249 4.18687 1.85064 4.07018 4.38737 3.59439 2.53827 
2.53827 3.03434 3.06838 3.38812 3.38812 3.46726 3.91703 3.8472 3.98227 
4.20264 4.39041 4.00087 4.1606 4.59807 4.77444 3.63649 3.91992 4.2802 
3.51565 3.49581 3.24691 3.42763 3.96375 4.21417 3.79061 3.66134 4.42267 
4.16314 3.23636 3.02672 2.72586 2.85515 3.41121 3.94403 3.92324 2.95076 
3.23454 2.9641 2.70123 2.59697 2.59697 2.52847 2.54022 2.54022 2.55594 
2.60593 2.52644 2.59168 2.7213 2.7213 2.98741 2.98741 3.33998 3.49907 
3.58219 3.40179 3.29211 3.19929 3.21885 3.21885 3.25997 3.38196 3.4069 
3.50888 3.58775 3.57222 3.26389 3.27002 2.74269 2.50339 2.26514 2.29059 
2.49709 4.53541 4.51156 3.51697 3.49324 3.37236 3.35093 3.31293 3.29055 
3.25541 3.15938 3.17875 3.38104 3.33952 2.63027 2.38746 2.65487 2.97757 
4.50825 4.74905 4.40129 4.09748 3.98359 2.72846 3.04202 3.11545 3.23753 
3.11442 3.28042 3.13779 3.2041 3.19012 2.34971 2.42692 2.36119 2.59559 
2.81123 2.67743 2.80124 2.78093 2.79815 2.72603 2.83624 2.86311 2.67997 
2.72755 2.69879 2.69879 2.79398 2.79398 2.90707 2.94367 3.02423 3.11797 
3.34546 3.4535 3.58492 3.04911 2.9573 2.69471 2.98963 2.87649 3.01251 
3.39009 3.4943 3.33709 3.21418 2.889 2.97398 2.93801 2.99071 2.87298 
2.73693 2.57417 2.32586 2.15378 2.10252 1.96812 2.19132 2.33392 2.16338 
2.26316 2.57268 2.47878 2.71885 3.02343 3.13173 3.08822 3.3459 3.57882 
3.76275 3.25691 3.24971 3.16007 3.41992 3.41992 2.99552 3.3517 3.18724 
3.16672 3.3267 3.62063 3.88974 3.67454 3.7054 3.45787 3.45787 3.04643 
3.13559 3.98448 4.15336 2.6211 2.88286 3.25006 3.55255 3.24533 2.9424 
2.35778 3.8264 3.48359 3.53156 3.7554 3.44552 3.29374 3.09908 2.83187 
2.71893 2.56736 2.57888 2.57888 2.63899 2.74917 2.74917 2.86588 3.32486 
3.35973 3.61566 3.57993 3.5519 3.36689 3.25697 2.98626 2.8877 2.81616 
2.85324 2.85324 2.81364 2.85412 3.02315 2.89444 3.03194 3.35575 3.37631 
3.10268 3.23307 2.71494 2.35188 2.3286 2.68806 3.35196 3.32957 3.69771 
3.77819 1.93184 1.92219 1.96231 1.87375 1.79391 1.87714 2.08099 2.08099 
2.18788 2.32742 2.33332 2.44082 2.38595 2.21554 2.15234 2.05154 2.26918 
2.52099 2.46434 1.65486 1.59371 1.53839 1.70579 1.98199 2.34373 2.65004 
2.17042 1.93066 1.91407 1.99663 2.07657 2.15692 2.25133 2.29191 2.34213 
2.54636 2.52119 3.47238 2.55844 2.38172 2.20714 1.99259 1.99259 2.58227 
2.45287 2.19052 2.16975 2.07343 2.03852 1.99905 1.99905 1.91387 1.83698 
1.67088 1.77579 1.71044 1.7568 1.79586 2.01432 2.0914 2.21458 2.06922 
2.53489 2.53489 2.66148 2.80598 2.67167 2.62201 2.04786 3.23348 2.81465 
2.4979 2.31956 2.14999 2.07755 2.07755 2.1381 2.37048 2.37048 2.49455 
2.35777 2.30193 2.30392 2.2236 2.12221 2.13679 2.14008 2.24225 2.128 
2.14311 1.97208 1.97208 2.26679 2.54035 3.00423 3.28722 3.1165 2.71011 
3.31248 3.04013 2.77372 2.63306 2.34099 2.24823 2.19769 2.30291 2.20504 
2.2089 2.11902 2.05909 2.12048 2.13774 2.09183 2.13333 2.12574 2.04784 
1.90868 1.79471 1.79471 1.45537 1.30335 1.27685 1.25335 1.25924 1.51065 
1.63427 1.63427 1.80675 1.89502 1.89502 1.84256 1.80521 1.7971 1.82143 
1.77754 1.65272 1.63248 1.61341 1.57855 1.58513 1.58513 1.66671 1.66781 
1.63725 1.63725 1.57033 1.59313 1.51103 1.58084 1.7526 1.79647 1.72855 
1.83215 3.70642 3.26461 3.29195 3.06639 3.20266 3.20266 3.44471 3.40907 
3.26422 2.91926 2.61438 2.26391 1.99592 2.02762 1.92652 3.3592 2.78693 
2.53126 2.16176 2.07137 2.06358 
rRFP 1 445 double
4745.37 6702.21 5653.7 6374.56 5224.53 3513.4 4393.6 3959.49 6316.16 
5319.95 4670.83 6894.99 6539.91 6189.17 4576.16 6854.88 6069.06 6712.9 
7146.77 7389.31 5407.91 5829.88 6371.94 6666.79 6609.15 5822.12 5380.26 
6547.42 6177 6707.99 7501.95 4578.02 7355.9 7752.88 6760.42 5438.63 
5438.63 6059.49 6102.09 6502.27 6502.27 6601.32 7164.23 7076.83 7245.88 
7521.68 7756.69 7269.16 7469.07 8016.58 8237.32 6813.11 7167.84 7618.75 
6661.88 6637.04 6325.53 6551.72 7222.7 7536.12 7006.01 6844.21 7797.06 
7472.25 6312.33 6049.95 5673.41 5835.22 6531.17 7198.02 7172 5954.88 
6310.05 5971.58 5642.58 5512.1 5512.1 5426.37 5441.07 5441.07 5460.75 
5523.31 5423.83 5505.48 5667.7 5667.7 6000.75 6000.75 6442.02 6641.12 
6745.15 6519.37 6382.1 6265.94 6290.42 6290.42 6341.88 6494.56 6525.77 
6653.41 6752.11 6732.68 6346.79 6354.46 5694.48 5394.98 5096.79 5128.64 
5387.09 7938.16 7908.32 6663.53 6633.83 6482.54 6455.72 6408.16 6380.15 
6336.17 6215.98 6240.23 6493.4 6441.44 5553.77 5249.88 5584.56 5988.44 
7904.17 8205.54 7770.3 7390.07 7247.53 5676.67 6069.1 6161.01 6313.79 
6159.72 6367.47 6188.96 6271.95 6254.46 5202.64 5299.27 5217.01 5510.37 
5780.25 5612.8 5767.75 5742.33 5763.89 5673.62 5811.56 5845.19 5615.98 
5675.53 5639.53 5639.53 5758.67 5758.67 5900.21 5946.01 6046.84 6164.16 
6448.88 6584.09 6748.57 6077.98 5963.07 5634.42 6003.53 5861.93 6032.17 
6504.73 6635.15 6438.4 6284.57 5877.59 5983.95 5938.93 6004.88 5857.54 
5687.26 5483.56 5172.79 4957.42 4893.26 4725.06 5004.4 5182.88 4969.43 
5094.31 5481.7 5364.17 5664.64 6045.83 6181.38 6126.93 6449.43 6740.94 
6971.14 6338.05 6329.04 6216.85 6542.06 6542.06 6010.9 6456.69 6250.85 
6225.17 6425.4 6793.27 7130.07 6860.74 6899.36 6589.56 6589.56 6074.62 
6186.21 7248.64 7460.01 5542.3 5869.91 6329.47 6708.06 6323.56 5944.42 
5212.74 7050.8 6621.75 6681.79 6961.94 6574.1 6384.14 6140.52 5806.09 
5664.74 5475.04 5489.46 5489.46 5564.69 5702.59 5702.59 5848.65 6423.09 
6466.73 6787.04 6742.33 6707.25 6475.7 6338.12 5999.31 5875.96 5786.42 
5832.83 5832.83 5783.27 5833.93 6045.49 5884.4 6056.49 6461.75 6487.48 
6145.02 6308.21 5659.74 5205.35 5176.22 5626.1 6457.01 6428.99 6889.74 
6990.46 4679.65 4667.57 4717.79 4606.95 4507.02 4611.19 4866.32 4866.32 
5000.1 5174.74 5182.12 5316.67 5247.99 5034.72 4955.62 4829.46 5101.85 
5417.01 5346.1 4332.99 4256.46 4187.23 4396.73 4742.42 5195.15 5578.52 
4978.25 4678.17 4657.41 4760.74 4860.79 4961.35 5079.51 5130.3 5193.15 
5448.75 5417.25 6607.72 5463.88 5242.7 5024.2 4755.68 4755.68 5493.7 
5331.75 5003.4 4977.41 4856.86 4813.16 4763.77 4763.77 4657.16 4560.93 
4353.04 4484.35 4402.56 4460.58 4509.46 4782.88 4879.35 5033.52 4851.59 
5434.4 5434.4 5592.83 5773.69 5605.59 5543.44 4824.85 6308.72 5784.54 
5388.1 5164.9 4952.68 4862.01 4862.01 4937.79 5228.63 5228.63 5383.91 
5212.73 5142.84 5145.33 5044.8 4917.91 4936.16 4940.27 5068.15 4925.16 
4944.06 4730.01 4730.01 5098.86 5441.23 6021.81 6375.98 6162.32 5653.7 
6407.6 6066.74 5733.31 5557.27 5191.72 5075.63 5012.38 5144.07 5021.57 
5026.41 4913.91 4838.91 4915.74 4937.35 4879.89 4931.83 4922.33 4824.83 
4650.67 4508.02 4508.02 4083.32 3893.06 3859.89 3830.48 3837.85 4152.51 
4307.23 4307.23 4523.09 4633.57 4633.57 4567.91 4521.16 4511.01 4541.47 
4486.54 4330.31 4304.99 4281.12 4237.49 4245.72 4245.72 4347.83 4349.2 
4310.96 4310.96 4227.2 4255.73 4152.98 4240.35 4455.32 4510.23 4425.22 
4554.88 6900.64 6347.68 6381.9 6099.6 6270.15 6270.15 6573.09 6528.49 
6347.2 5915.46 5533.89 5095.26 4759.85 4799.53 4672.99 6466.07 5749.84 
5429.86 4967.41 4854.28 4844.53 
rGFP 1 445 double
5652.05 7191.95 4899.9 6250.64 6524.95 4634.74 5189.85 5731.58 7552.72 
5903.73 7231.46 8106.81 8860.16 8356.09 4739.83 6916.43 8540.43 9166.57 
9126.17 9857.8 4909.27 8013.33 6169.65 7490.47 6102.21 6692.09 6750.04 
8668.95 6222.94 8760.6 9530.84 4755.63 7797.93 8560.84 6041.83 6473.2 
6473.2 7092.38 7355.68 7518.64 7518.64 7634.27 7729 7886.63 8231.01 
8826.2 8654.7 8650.05 9058.17 9046.28 9531.14 6575.59 7955.69 8516.43 
7177.94 7521.17 7591.65 7716.43 7912.98 9377.04 9161.41 8955.27 8783.83 
7995.86 6431.42 7198.22 6463.26 7272.77 8062.49 9364.1 8440.26 5834.84 
6292.93 6445.83 6191.77 5974.57 5974.57 5951.9 5944.73 5944.73 6173.96 
6120.78 6416.6 5953.37 6076.12 6076.12 5984.25 5984.25 5793.43 6016.47 
6256.44 6132.85 6118.85 6064.54 6017.63 6017.63 6088.4 6269.6 6163.77 
6173.94 6323.12 6302.93 6092.65 6223.49 6214.64 6099.2 5755.89 5772.62 
6065.6 9657.62 9375 8297.48 8068.05 7635.17 7165.49 7281.09 7601.4 
7696.07 7746.23 7783.44 8312.89 8629.37 8105.86 7670.86 7954.38 8631.53 
9472.8 9264.8 9171.1 9485.89 9721.81 6754.81 6634.35 7064.84 7018.28 
7154.75 7057.28 7225.8 7005.35 6569.49 6888.77 6662.74 6391.21 6402.53 