# vtk DataFile Version 3.0
vtk output
ASCII
DATASET POLYDATA
POINTS 567 float
0.839675 -1.49272 0.696081 0.49304 -1.18411 0.688735 0.230657 -1.07495 0.772191 
0.730727 -1.06515 0.555491 -0.402481 -0.0206326 0.954801 -0.00976957 0.403783 1.48938 
1.52164 0.504797 1.62906 1.38341 0.707338 1.83576 -0.293433 0.377315 0.813393 
1.82413 0.824626 1.63014 1.17948 1.14795 1.75441 0.0846905 1.10198 1.38061 
2.2697 0.841834 1.41364 1.9816 -0.801119 -1.07666 -0.115075 0.0352939 -0.903078 
-0.407594 1.26251 0.732388 -0.230038 1.39024 0.751074 1.39329 1.74545 1.39099 
-0.21236 0.203771 -0.879544 -0.500614 1.18766 0.0807998 0.134936 0.148755 -1.1861 
2.1648 1.72686 0.578692 2.17491 1.79899 0.661124 2.3384 1.77678 0.66051 
3.08347 0.760985 -0.670452 2.62048 1.8162 0.444629 2.01704 2.26571 0.859244 
2.9065 1.48757 -0.183616 1.15363 0.480421 -1.87631 0.891243 0.589577 -1.79286 
3.16269 1.3516 -0.945336 1.73338 2.23924 0.183256 1.13398 0.7446 -1.88489 
3.06499 1.84204 -0.366445 0.901981 1.4829 -1.69513 1.15878 1.342 -2.11709 
1.16889 1.41413 -2.03466 3.63852 1.70458 -1.61565 1.09264 1.92677 -1.47083 
2.17625 1.86529 -1.37869 5.13625 1.85936 -1.24725 5.22988 2.26316 -0.780277 
5.31418 2.47646 -0.830476 5.08949 2.07021 -1.62174 5.62156 2.40537 -1.39313 
5.55475 2.236 -1.97066 4.9822 2.69446 -2.10238 5.20831 2.68076 -1.92592 
4.69442 2.85812 -2.30676 5.60424 2.60529 -2.15308 5.70857 2.82671 -2.09051 
4.86148 2.85322 -1.98535 4.67215 3.2248 -1.79797 4.45589 2.87865 -2.52055 
5.36718 3.30753 -2.00455 5.4419 3.44438 -1.83989 5.62057 3.53036 -1.71685 
4.81889 3.10734 -2.8141 5.28296 2.98162 -2.78548 5.55 3.29918 -2.28878 
4.7273 3.51322 -2.47302 4.31153 3.71672 -2.30652 5.44195 3.85714 -1.98089 
4.9997 3.38825 -2.87853 5.15266 3.38617 -2.85438 5.10938 3.86983 -2.31817 
5.08668 3.41285 -2.87527 5.05841 3.89042 -2.40333 5.0165 3.90418 -2.48362 
4.98752 3.89937 -2.54925 4.9417 3.86884 -2.59032 4.89152 3.80537 -2.60187 
4.85106 3.71386 -2.5875 4.79365 3.61014 -2.5446 5.1966 3.29581 -2.856 
5.23884 3.16311 -2.8308 5.21429 3.43135 -2.82808 5.27338 3.47121 -2.79696 
5.31948 3.4892 -2.74754 5.34527 3.46966 -2.67613 5.38109 3.41066 -2.59157 
5.42815 3.35507 -2.49031 5.48368 3.31885 -2.38845 4.91191 3.27308 -2.86418 
5.42882 3.74375 -1.95345 5.42437 3.60676 -1.90643 4.35869 3.65183 -2.18213 
4.40657 3.59238 -2.06273 4.45498 3.53708 -1.94975 4.50195 3.47083 -1.84556 
4.54801 3.38943 -1.78089 4.60109 3.30266 -1.76966 4.67834 3.42711 -2.46506 
4.66272 3.32521 -2.44745 4.6727 3.19665 -2.41122 4.67773 3.04162 -2.36066 
4.67486 3.41145 -2.30414 4.65106 3.32077 -2.14839 4.65199 3.2556 -2.01627 
4.67066 3.22316 -1.90445 4.73976 3.12729 -2.84078 4.67567 3.13265 -2.82939 
4.61059 3.07625 -2.79046 4.53787 2.98159 -2.68748 5.48643 3.33393 -2.20331 
5.42669 3.33456 -2.11081 5.61051 3.13631 -2.24251 5.65879 2.97845 -2.17752 
5.35723 2.92549 -2.74419 5.41658 2.88344 -2.68185 5.46783 2.84104 -2.61739 
5.5169 2.80517 -2.53473 5.55498 2.76263 -2.43136 5.57447 2.69582 -2.30205 
5.20638 2.92374 -2.81332 5.14093 2.8854 -2.83252 5.08361 2.87722 -2.83529 
5.02901 2.88375 -2.82117 4.97599 2.90162 -2.79409 4.92271 2.92283 -2.78566 
4.87104 2.9858 -2.80102 5.56101 3.5017 -1.75787 5.50146 3.47304 -1.79888 
5.6598 3.40986 -1.68961 5.69976 3.29484 -1.66727 5.73961 3.17985 -1.64493 
5.77683 3.05961 -1.61768 5.80106 2.93407 -1.58433 5.79198 2.79634 -1.53882 
5.73909 2.62167 -1.47138 5.60028 3.49704 -1.61182 5.55799 3.48905 -1.52639 
5.50747 3.5089 -1.46689 5.45613 3.53776 -1.43095 5.40309 3.55559 -1.41883 
5.34987 3.57216 -1.40816 5.29787 3.59739 -1.38758 5.24446 3.61254 -1.37853 
5.19006 3.61985 -1.37841 5.1362 3.61792 -1.38859 5.08985 3.59679 -1.41918 
5.05996 3.57107 -1.46368 5.02634 3.55576 -1.51941 5.00181 3.55595 -1.58996 
4.9711 3.56259 -1.6654 4.94477 3.56303 -1.73594 4.90051 3.5435 -1.78682 
4.85295 3.50011 -1.81646 4.81424 3.42708 -1.82212 4.75347 3.33388 -1.81266 
5.40669 3.46284 -1.92511 5.39988 3.44381 -1.98102 5.40308 3.38422 -2.00266 
5.30553 3.15591 -1.93771 5.26371 3.024 -1.89055 5.23235 2.92051 -1.86963 
5.23508 2.83393 -1.86941 5.23012 2.75806 -1.88814 4.52639 2.87379 -2.41858 
4.59997 2.86754 -2.34751 5.77482 2.81459 -1.99731 5.80316 2.77628 -1.88784 
5.80686 2.69585 -1.74633 5.74371 2.56995 -1.57348 4.91742 2.79041 -2.03792 
4.873 2.77304 -2.19666 4.78903 2.82991 -2.26041 4.35596 2.74366 -2.47804 
4.27498 2.62332 -2.42373 4.2049 2.52408 -2.34785 4.13726 2.43293 -2.26255 
4.06962 2.34121 -2.17415 4.00127 2.24406 -2.08075 3.93218 2.1414 -1.98245 
3.86194 2.0304 -1.87692 3.79096 1.92057 -1.77576 3.7152 1.80608 -1.68615 
5.6798 2.72794 -2.10865 5.65121 2.65529 -2.12729 5.10426 2.68829 -2.01658 
5.5795 2.42064 -2.06187 4.68211 2.64599 -2.21098 4.7011 2.47791 -2.12824 
4.74146 2.37981 -2.0645 4.79225 2.34527 -2.02698 4.85211 2.38366 -2.02454 
4.91673 2.49601 -2.06468 5.18996 2.46229 -1.82323 5.15345 2.25935 -1.72073 
5.01765 2.41815 -1.93566 5.05304 2.22123 -1.76299 5.52654 2.32759 -1.24001 
5.45532 2.28579 -1.1213 5.39852 2.28545 -1.04065 5.34481 2.29728 -0.971019 
5.2888 2.29123 -0.885461 5.50647 2.1817 -1.30599 5.41913 2.02255 -1.23185 
5.35099 1.94022 -1.18892 5.28866 1.90074 -1.18935 5.22148 1.88388 -1.20706 
5.11982 1.95867 -1.44032 5.28388 2.371 -0.80787 5.17518 2.26915 -0.781684 
5.1194 2.2674 -0.79194 5.0604 2.24239 -0.817584 4.99905 2.19854 -0.842355 
4.93907 2.1364 -0.853873 4.90007 2.06573 -0.860643 4.90362 1.99488 -0.872483 
4.90555 1.93546 -0.894117 4.90214 1.88237 -0.920635 4.90885 1.82797 -0.947108 
4.94466 1.78762 -0.987053 4.99744 1.77922 -1.04456 5.06218 1.81597 -1.12795 
3.58561 1.66496 -1.52813 3.5361 1.67034 -1.46793 3.48441 1.69089 -1.44137 
3.43062 1.7025 -1.3876 3.36816 1.66347 -1.27926 3.28276 1.54196 -1.11825 
2.12158 1.87143 -1.37993 2.06615 1.87221 -1.38729 2.01008 1.86841 -1.39989 
1.95588 1.87793 -1.39727 1.89981 1.87414 -1.40986 1.84438 1.87492 -1.41723 
1.78972 1.88113 -1.41839 1.73521 1.88846 -1.41827 1.68071 1.89587 -1.41806 
1.62621 1.90327 -1.41786 1.57171 1.91068 -1.41765 1.51721 1.91808 -1.41745 
1.46271 1.92549 -1.41724 1.40822 1.93289 -1.41704 1.35372 1.9403 -1.41683 
1.29913 1.94762 -1.41673 1.24304 1.95343 -1.41856 1.17769 1.94996 -1.43217 
1.02369 1.9219 -1.38586 0.961747 1.9071 -1.32217 0.906042 1.90901 -1.2612 
0.853101 1.92691 -1.21543 0.800421 1.94699 -1.18954 0.749703 1.98137 -1.15851 
0.698247 2.01018 -1.12264 0.64393 2.01799 -1.08841 0.587721 2.01139 -1.03704 
0.528316 1.9814 -0.990034 0.466345 1.93279 -0.953096 0.402982 1.87426 -0.927497 
0.342658 1.83771 -0.887979 0.286272 1.82985 -0.838064 0.231038 1.83081 -0.80045 
0.176288 1.83522 -0.758887 0.11778 1.81193 -0.715419 0.0559974 1.76437 -0.666081 
-0.00816063 1.69927 -0.61443 -0.0720644 1.63627 -0.571539 -0.133016 1.59435 -0.504585 
-0.194243 1.55015 -0.429022 -0.2574 1.49159 -0.328851 -0.325324 1.40712 -0.213724 
-0.403382 1.30581 -0.0704957 1.04636 1.80051 -1.46276 0.988385 1.69824 -1.45188 
0.936593 1.61159 -1.44492 0.911825 1.53334 -1.4469 0.899289 1.47028 -1.46358 
0.885064 1.44106 -1.50966 0.872644 1.45081 -1.59006 1.16384 1.37807 -2.07588 
3.17646 1.46744 -0.893224 3.17103 1.52908 -0.844051 3.1343 1.54736 -0.777864 
3.09205 1.53875 -0.691522 3.06162 1.51801 -0.596253 3.01715 1.49358 -0.496027 
2.97426 1.48014 -0.405615 2.94793 1.47566 -0.325065 2.91965 1.48264 -0.254309 
2.98574 1.6648 -0.275031 1.12741 0.680729 -1.90158 1.12953 0.593276 -1.89871 
1.08214 0.770664 -1.85216 1.02472 0.755985 -1.83242 0.96007 0.688295 -1.8173 
1.19207 0.762762 -1.85587 1.24784 0.764445 -1.84569 1.30253 0.758378 -1.84437 
1.35777 0.756621 -1.84931 1.41391 0.761484 -1.85788 1.47169 0.778402 -1.86386 
1.52941 0.794259 -1.84868 1.58428 0.789238 -1.83496 1.63695 0.767856 -1.81756 
1.6911 0.757344 -1.79894 1.74736 0.76225 -1.77388 1.80314 0.763934 -1.76369 
1.85965 0.771187 -1.75834 1.91902 0.79945 -1.75136 1.98026 0.841963 -1.76167 
2.0429 0.894419 -1.76064 2.10392 0.934737 -1.75108 2.15914 0.932181 -1.73454 
2.21275 0.917494 -1.70949 2.26628 0.901733 -1.66328 2.32024 0.889293 -1.62446 
2.37578 0.888052 -1.57284 2.43369 0.904444 -1.52347 2.4925 0.927455 -1.47772 
2.55187 0.95485 -1.43816 2.61033 0.975687 -1.40608 2.66667 0.981091 -1.38045 
2.72294 0.985428 -1.33366 2.77721 0.974303 -1.25976 2.82946 0.947857 -1.16979 
2.87953 0.904984 -1.06502 2.92961 0.862103 -0.960243 2.97968 0.81923 -0.855476 
3.03121 0.787351 -0.760508 1.68265 2.27356 0.214216 1.63052 2.29787 0.23374 
1.57869 2.32429 0.255676 1.52513 2.33839 0.263532 1.46989 2.34051 0.257697 
1.41401 2.33806 0.246631 1.36091 2.35546 0.258263 1.3075 2.37062 0.267326 
1.25336 2.38027 0.281295 1.19807 2.38117 0.307639 1.13853 2.35112 0.321016 
1.0802 2.32996 0.333354 1.0248 2.3306 0.337012 0.970837 2.34217 0.330788 
0.914515 2.33626 0.32696 0.85461 2.3039 0.32649 0.795358 2.2759 0.342205 
0.738317 2.26426 0.354229 0.681243 2.2527 0.355149 0.62189 2.22457 0.348327 
0.560825 2.18333 0.360091 0.498544 2.13312 0.372812 0.438386 2.09835 0.39198 
0.380426 2.08016 0.396511 0.321961 2.05867 0.386085 0.264 2.04048 0.390616 
0.203122 2.00028 0.414766 0.138832 1.93483 0.443653 0.0737469 1.86281 0.498599 
0.00862581 1.79053 0.564446 -0.0603628 1.69435 0.636458 -0.138646 1.55936 0.697102 
3.12114 1.04228 -0.817511 2.85846 1.52524 -0.137297 2.82066 1.55033 -0.0812157 
2.8074 1.55527 -0.0105226 2.80341 1.55334 0.0650462 2.79206 1.55803 0.135732 
2.76618 1.58149 0.191769 2.74762 1.62077 0.233074 2.72527 1.67176 0.264592 
2.71858 1.72622 0.291147 2.70861 1.76993 0.327516 2.67144 1.80054 0.378691 
1.95445 2.21115 0.94534 1.8889 2.1346 0.98395 1.82648 2.05304 0.995039 
1.78879 1.9768 0.993401 1.80709 1.91085 0.97805 1.85359 1.87582 0.945659 
1.90914 1.87891 0.90146 1.96588 1.8896 0.843567 2.02236 1.89816 0.794461 
2.0751 1.87909 0.747343 2.12545 1.84239 0.702462 3.08459 0.646331 -0.49687 
3.10859 0.528567 -0.323373 3.13141 0.416569 -0.154776 3.12088 0.320301 0.00414643 
3.08644 0.249691 0.14355 3.06547 0.194062 0.268193 3.04574 0.149384 0.382954 
3.00999 0.100006 0.501219 2.9757 0.036778 0.615369 2.92183 -0.0431009 0.707926 
2.85667 -0.130474 0.779188 2.78959 -0.217815 0.827851 2.72378 -0.295264 0.887786 
2.65961 -0.360737 0.950225 2.59472 -0.431708 1.01756 2.53038 -0.498089 1.06777 
2.46555 -0.567694 1.10309 2.40596 -0.598742 1.1377 2.34957 -0.606608 1.18762 
2.29434 -0.605576 1.22532 2.23904 -0.605399 1.27324 2.18311 -0.609726 1.31599 
2.1272 -0.614997 1.36889 2.07408 -0.612821 1.40819 2.03533 -0.578917 1.44046 
2.01528 -0.51961 1.45927 1.98019 -0.458118 1.46711 1.93236 -0.416157 1.47352 
1.88266 -0.375013 1.5011 1.83303 -0.332881 1.54099 1.7834 -0.290748 1.58088 
1.73286 -0.255101 1.61336 1.68166 -0.223876 1.62959 1.63331 -0.171715 1.64737 
1.58817 -0.096511 1.65791 1.54657 -0.00936363 1.66001 1.51743 0.0817691 1.65723 
1.51381 0.173208 1.65115 1.51361 0.270657 1.64111 1.50581 0.381869 1.63048 
2.29021 1.83036 0.66871 2.23571 1.83776 0.668915 2.16985 1.76293 0.619908 
0.0780821 0.233075 -1.16706 -0.00510849 0.184795 -1.06021 -0.162413 0.143154 -0.878599 
0.124011 -0.0222317 -1.13904 0.0632841 -0.196893 -1.03079 -0.00305714 -0.297074 -0.901334 
-0.0581174 -0.299314 -0.822535 -0.0951137 -0.179933 -0.833946 -0.563891 1.10285 0.270854 
-0.590883 1.03741 0.417151 -0.596555 1.01236 0.514982 -0.59288 1.02438 0.577498 
-0.576633 1.05332 0.623575 -0.542415 1.08825 0.662271 -0.511063 1.13257 0.69427 
-0.46457 1.19157 0.717045 -0.580501 0.983151 0.178816 -0.623984 0.797966 0.266633 
-0.647356 0.644422 0.329554 -0.664466 0.518466 0.368419 -0.677434 0.421856 0.381153 
-0.684843 0.352502 0.369355 -0.676894 0.309066 0.332994 -0.641018 0.284243 0.27692 
-0.602609 0.264681 0.215933 -0.579192 0.247155 0.155002 -0.554564 0.212661 0.108771 
-0.546406 0.169197 0.0724091 -0.537165 0.119988 0.04094 -0.499997 0.0893865 -0.0102351 
-0.448198 0.0792125 -0.0810801 -0.393139 0.0797884 -0.161731 -0.34207 0.0641094 -0.227669 
-0.303542 0.0445307 -0.288657 -0.290279 0.0395927 -0.359356 -0.283379 0.0635244 -0.454537 
-0.267033 0.0973726 -0.559555 -0.235774 0.129202 -0.664634 -0.219536 0.163073 -0.769658 
-0.188993 0.120055 -0.886086 1.3181 1.59641 1.51186 1.24438 1.44283 1.61385 
1.1874 1.29635 1.70113 -0.19 1.19371 0.827391 -0.167019 1.02191 0.895357 
-0.170748 0.884367 0.941865 -0.183237 0.776464 0.964368 -0.196204 0.679853 0.977102 
-0.208663 0.58877 0.984937 -0.222193 0.503443 0.987866 -0.241987 0.446972 0.966313 
-0.273866 0.414552 0.925198 -0.288545 0.396599 0.869314 -0.326604 1.32546 0.73675 
2.04115 -0.772459 -1.03565 2.1007 -0.743872 -0.994723 2.16008 -0.716477 -0.955158 
2.21779 -0.70121 -0.918255 2.27249 -0.70808 -0.884271 2.32548 -0.728067 -0.8317 
2.37726 -0.756956 -0.77809 2.43134 -0.769199 -0.716669 2.4878 -0.763817 -0.657485 
2.54431 -0.757226 -0.596937 2.59747 -0.761305 -0.526493 2.63798 -0.769277 -0.451092 
2.64974 -0.773337 -0.375589 2.63788 -0.774185 -0.299997 2.59434 -0.793213 -0.204761 
2.53507 -0.83933 -0.0863188 2.47078 -0.908318 0.0392748 2.407 -0.971918 0.137431 
2.34733 -1.00468 0.214854 2.28994 -1.02002 0.26742 2.23318 -1.03085 0.325143 
2.17504 -1.05183 0.382458 2.11647 -1.07613 0.447167 2.0556 -1.11692 0.493045 
1.99405 -1.1622 0.522587 1.93585 -1.18331 0.568559 1.8779 -1.2023 0.60575 
1.81863 -1.23101 0.643029 1.7607 -1.24994 0.680309 1.70485 -1.25335 0.712932 
1.65005 -1.24813 0.710641 1.59694 -1.23079 0.722199 1.54153 -1.23016 0.725856 
1.48235 -1.25708 0.720413 1.4242 -1.27631 0.712551 1.36613 -1.2947 0.694476 
1.31016 -1.2975 0.671826 1.25444 -1.29818 0.640403 1.20083 -1.2835 0.615351 
1.14561 -1.28094 0.598817 1.08606 -1.31018 0.579527 1.0236 -1.36136 0.579945 
0.961998 -1.40707 0.609001 0.900748 -1.45052 0.651814 2.20956 0.806625 1.4547 
2.15269 0.795602 1.48981 2.10105 0.823076 1.52414 2.05086 0.861546 1.54866 
1.99691 0.872542 1.56415 1.93968 0.859273 1.5855 1.88154 0.839233 1.61032 
0.111706 1.01113 1.3834 0.113821 0.923679 1.38627 0.104124 0.837824 1.38919 
0.0899632 0.746979 1.39702 0.0643449 0.646483 1.41471 0.0214177 0.531535 1.44716 
1.22939 1.0229 1.80706 1.28051 0.912208 1.83682 1.32844 0.808258 1.84479 
1.75478 0.722574 1.6545 1.68628 0.63679 1.66366 1.61204 0.567826 1.65355 
1.77157 0.844675 1.68957 1.71648 0.846043 1.75003 1.65832 0.825282 1.79641 
1.60023 0.805637 1.83658 1.54237 0.797601 1.86744 1.4727 0.762121 1.86202 
1.45701 0.531058 1.70485 1.40526 0.571366 1.7573 1.37607 0.631775 1.79464 
-0.35931 0.00957867 0.849677 -0.342885 0.0154112 0.769164 -0.333369 -0.0170372 0.722997 
-0.315039 -0.0842843 0.706198 -0.311466 -0.160742 0.699268 -0.307064 -0.231701 0.687426 
-0.286083 -0.293712 0.66572 -0.268401 -0.355275 0.644026 -0.235983 -0.435645 0.636982 
-0.195726 -0.533751 0.644777 -0.154786 -0.640697 0.665106 -0.110444 -0.723562 0.690609 
-0.061119 -0.769978 0.724174 -0.0122132 -0.818483 0.721773 0.0359417 -0.872346 0.713251 
0.0846243 -0.923047 0.730721 0.132733 -0.97814 0.754386 0.180349 -1.03645 0.763163 
0.663351 -1.15351 0.591769 0.60211 -1.1969 0.634657 0.547005 -1.19503 0.67332 

LINES 65 701
9 65 67 68 69 70 71 72 73 60 
4 64 74 75 58 
9 64 76 77 78 79 80 81 82 59 
4 62 84 85 55 
8 61 86 87 88 89 90 91 52 
6 60 92 93 94 95 48 
6 60 96 97 98 99 52 
6 57 100 101 102 103 53 
4 59 104 105 54 
4 59 106 107 50 
8 58 108 109 110 111 112 113 49 
9 58 114 115 116 117 118 119 120 57 
4 56 121 122 55 
9 56 123 124 125 126 127 128 129 44 
22 56 130 131 132 133 134 135 136 137 138 139 140 141 142 143 144 145 146 147 148 149 52 
5 55 150 151 152 54 
7 54 153 154 155 156 157 47 
4 53 158 159 48 
6 50 160 161 162 163 44 
3 46 164 51 
4 46 165 166 48 
4 50 177 178 49 
3 47 179 46 
3 49 180 45 
8 48 181 182 183 184 185 186 46 
4 47 187 188 43 
4 46 189 190 43 
7 44 191 192 193 194 195 41 
7 44 196 197 198 199 200 40 
3 43 201 40 
3 42 202 41 
15 41 203 204 205 206 207 208 209 210 211 212 213 214 215 40 
20 39 222 223 224 225 226 227 228 229 230 231 232 233 234 235 236 237 238 239 38 
27 38 240 241 242 243 244 245 246 247 248 249 250 251 252 253 254 255 256 257 258 259 260 261 262 263 264 19 
9 38 265 266 267 268 269 270 271 34 
3 36 272 35 
11 30 273 274 275 276 277 278 279 280 281 27 
3 33 282 27 
4 32 283 284 28 
5 32 285 286 287 29 
36 32 288 289 290 291 292 293 294 295 296 297 298 299 300 301 302 303 304 305 306 307 308 309 310 311 312 313 314 315 316 317 318 319 320 321 24 
34 31 322 323 324 325 326 327 328 329 330 331 332 333 334 335 336 337 338 339 340 341 342 343 344 345 346 347 348 349 350 351 352 353 16 
3 30 354 24 
13 27 355 356 357 358 359 360 361 362 363 364 365 25 
13 26 366 367 368 369 370 371 372 373 374 375 376 22 
42 24 377 378 379 380 381 382 383 384 385 386 387 388 389 390 391 392 393 394 395 396 397 398 399 400 401 402 403 404 405 406 407 408 409 410 411 412 413 414 415 416 6 
4 23 417 418 22 
3 22 419 21 
3 14 422 18 
25 19 436 437 438 439 440 441 442 443 444 445 446 447 448 449 450 451 452 453 454 455 456 457 458 18 
3 18 459 14 
12 16 463 464 465 466 467 468 469 470 471 472 8 
46 13 474 475 476 477 478 479 480 481 482 483 484 485 486 487 488 489 490 491 492 493 494 495 496 497 498 499 500 501 502 503 504 505 506 507 508 509 510 511 512 513 514 515 516 517 0 
9 12 518 519 520 521 522 523 524 9 
8 11 525 526 527 528 529 530 5 
5 9 534 535 536 6 
8 9 537 538 539 540 541 542 7 
5 6 543 544 545 7 
20 4 546 547 548 549 550 551 552 553 554 555 556 557 558 559 560 561 562 563 2 
5 3 564 565 566 1 
5 64 66 63 83 57 
19 53 167 168 169 170 171 172 173 174 175 176 37 216 217 218 219 220 221 30 
10 14 421 420 20 423 424 425 426 427 14 
12 19 428 429 430 431 432 433 434 435 15 473 16 
9 17 460 461 462 10 531 532 533 7 

POINT_DATA 567
SCALARS DY_raw double
LOOKUP_TABLE default
1296.07 1093.65 878.722 625.663 1097.68 714.185 697.172 779.093 1017.42 
688.007 713.891 402.18 719.035 1015.03 820.122 784.428 751.947 654.163 
826.974 641.486 737.203 1873 1110.12 1091.89 683.572 854.774 476.079 
909.419 2059.56 1657.29 1005.6 708.863 859.844 464.695 828.503 492.844 
606.356 830.777 542.183 686.336 1144.81 980.962 980.222 1295.77 1038.07 
1696.94 1305.42 1096.53 1148.93 1089.03 928.935 1397.15 1246.55 984.275 
1059.12 880.113 728.384 1171.46 1071.32 960.071 920.53 1044.19 675.313 
1062.72 942.093 896.024 1020.32 842.62 838.833 800.649 800.649 801.958 
835.678 863.57 931.183 978.962 924.845 875.681 918.366 936.76 997.749 
1013.33 957.054 1044.17 615.489 686.833 1107.35 932.365 1121.32 996.969 
1082.76 1185.62 971.394 1065.66 1101.32 1058.13 933.34 1124.63 1180.26 
1232.68 1158.59 1114.95 1022.35 1036.52 958.706 990.552 979.635 916.601 
1150.99 1222.88 1119 1144.12 1236.83 1413.89 1183.1 1186.03 1161.94 
1109.25 1144.48 1158.78 1261.07 728.806 761.78 807.228 1012.17 1130.15 
1031.34 946.128 1002.04 1161.46 916.893 1083.37 1175 1075.08 1082.69 
983.496 966.665 868.284 868.284 880.763 931.852 1022.33 985.685 1064.44 
1008.26 991.412 972.206 996.711 1005.28 1070.92 817.991 844.314 844.314 
1002.24 920.648 1008.6 1081.24 1116.22 1086.82 1171.49 938.392 1012.74 
1092.24 1275.78 1350.04 1221.16 1177.6 956.426 882.323 930.118 910.82 
856.709 830.131 905.92 1064.86 939.958 869.407 967.991 1033.94 1157.35 
1251.89 1188.21 1261.77 1362.6 1432.63 1427.58 1435.59 1090.47 1072.37 
1217.36 1283.93 955.17 1079.83 1034.41 1079.99 1160.97 1163.79 1326.69 
1380.38 1144.54 1037.04 1319.22 971.818 1061.2 1001.16 989.252 1099.67 
1148.54 1259.96 1307.53 1426.08 1499.46 1687.26 1679.12 1577.55 1254.18 
906.961 969.213 946.1 883.633 910.11 849.537 700.516 681.872 681.872 
728.522 728.522 761.353 868.574 868.574 867.679 834.238 834.238 784.179 
773.706 773.706 729.966 734.73 641.218 579.544 577.898 670.083 753.741 
808.998 787.717 852.434 775.661 666.409 690.698 753.586 794.412 818.725 
872.557 852.889 779.537 779.537 783.145 681.06 626.879 680.644 704.274 
675.165 709.315 676.925 690.897 633.815 650.661 737.254 801.831 978.67 
953.446 850.748 492.844 872.183 791.137 890.453 847.819 1075.86 830.997 
852.436 1098.97 867.145 716.784 1015.83 1104.21 733.106 871.68 1104.17 
729.123 819.315 819.315 808.148 885.632 885.632 1024.64 1062.78 981.972 
1019.79 1037.21 1001.76 1039.59 949.255 878.715 755.692 628.859 650.41 
731.731 731.731 813.436 805.432 882.144 839.761 786.474 771.664 695.86 
670.256 664.642 772.065 857.8 835.566 881.554 943.466 658.09 618.351 
640.859 638.095 638.095 655.055 655.055 646.847 522.734 522.734 588.033 
582.343 617.074 579.782 572.184 596.465 581.414 573.813 573.813 491.788 
524.722 516.017 494.086 559.038 525.343 453.013 516.859 564.332 502.655 
537.781 629.658 707.232 761.932 914.347 899.018 899.018 1036.79 923.709 
1014.93 926.33 762.882 836.955 782.959 787.834 455.664 530.614 590.187 
618.131 636.846 692.511 785.404 754.906 794.382 921.183 1000.06 674.569 
827.447 621.704 694.403 743.214 672.597 771.689 727.576 682.929 653.394 
656.043 728.976 781.504 780.11 892.361 849.541 890.301 861.355 904.477 
840.452 958.915 919.351 984.361 877.811 866.627 924.106 972.395 928.62 
785.015 1034.77 997.442 903.394 1100.61 991.004 997.577 990.134 1103.86 
879.047 861.32 740.05 953.22 978.724 1110.12 743.46 771.786 701.252 
856.137 1017.93 876.122 777.364 720.975 658.68 630.104 635.178 674.776 
674.776 723.768 733.347 757.656 773.075 756.482 789.54 895.893 784.326 
821.538 780.196 667.574 690.982 776.176 776.176 743.956 799.277 709.904 
723.946 735.217 620.929 562.17 535.765 470.19 530.723 511.819 607.528 
893.662 563.038 552.011 539.741 823.547 752.113 737.062 758.604 725.661 
880.435 905.923 935.183 935.183 953.088 814.455 850.723 816.077 703.544 
649.143 626.974 725.723 806.502 842.565 893.464 902.943 805.282 722.258 
784.845 686.768 836.978 813.906 754.127 798.467 1028.35 926.418 899.814 
792.821 806.358 795.792 799.74 819.795 913.852 738.839 756.057 636.381 
624.951 624.951 594.413 643.89 669.301 587.514 596.095 575.239 573.895 
573.895 620.697 747.193 793.036 965.349 754.734 748.861 772.514 689.676 
729.929 736.519 689.774 426.538 491.625 501.09 516.002 558.446 656.216 
835.18 914.371 774.23 745.161 666.255 636.169 688.007 697.666 702.363 
708.593 758.622 735.698 785.855 863.124 832.035 1011.49 1040.1 895.587 
934.263 813.035 857.359 856.378 827.132 738.828 768.531 846.842 1040.93 
930.553 926.209 950.163 798.944 824.436 876.825 682.997 838.181 901.57 

FIELD FieldData 7
DY_minmax 1 567 double
0.539342 0.417208 0.287528 0.134842 0.419637 0.188253 0.177988 0.227416 0.371216 
0.172458 0.188075 0 0.191179 0.369768 0.252171 0.230634 0.211037 0.152037 
0.256305 0.144389 0.202141 0.887439 0.427144 0.416145 0.169781 0.273079 0.0445883 
0.306049 1 0.757288 0.364084 0.185041 0.276138 0.0377193 0.257228 0.0547035 
0.123192 0.2586 0.0844726 0.171449 0.448078 0.349216 0.348769 0.539159 0.383673 
0.781211 0.544981 0.418946 0.450562 0.414421 0.317825 0.600331 0.509464 0.351215 
0.396373 0.288367 0.196819 0.464154 0.403736 0.336611 0.312754 0.387367 0.164799 
0.398543 0.325764 0.297968 0.372965 0.265745 0.26346 0.240422 0.240422 0.241211 
0.261557 0.278386 0.319181 0.348009 0.315357 0.285693 0.311448 0.322546 0.359345 
0.368746 0.334791 0.387354 0.128703 0.17175 0.425475 0.319894 0.433901 0.358874 
0.410637 0.4727 0.343443 0.400319 0.421838 0.395778 0.320483 0.435901 0.469463 
0.501096 0.456387 0.430058 0.374189 0.382735 0.335788 0.355002 0.348415 0.310383 
0.451804 0.495182 0.432505 0.447661 0.503596 0.610431 0.471181 0.472943 0.458414 
0.426623 0.447877 0.456505 0.518225 0.197074 0.21697 0.244391 0.368046 0.439232 
0.379612 0.328199 0.361934 0.458122 0.310559 0.411002 0.46629 0.406002 0.410595 
0.350745 0.34059 0.28123 0.28123 0.288759 0.319585 0.374176 0.352065 0.399584 
0.365684 0.355521 0.343933 0.358718 0.363887 0.403492 0.250885 0.266767 0.266767 
0.362055 0.312825 0.365895 0.409722 0.430826 0.413087 0.464172 0.323531 0.368387 
0.41636 0.527098 0.571907 0.49414 0.467862 0.334412 0.289701 0.318538 0.306895 
0.274246 0.25821 0.303939 0.399835 0.324475 0.281908 0.34139 0.38118 0.455642 
0.512684 0.474259 0.518647 0.579483 0.621734 0.618688 0.62352 0.415289 0.404369 
0.491848 0.532018 0.333654 0.40887 0.381467 0.408963 0.457826 0.459526 0.557817 
0.590211 0.44791 0.38305 0.553307 0.343699 0.39763 0.361401 0.354218 0.420841 
0.450327 0.517553 0.546253 0.617784 0.662059 0.775372 0.770457 0.709176 0.514065 
0.304566 0.342127 0.328181 0.290491 0.306466 0.269919 0.180005 0.168756 0.168756 
0.196903 0.196903 0.216712 0.281405 0.281405 0.280865 0.260688 0.260688 0.230484 
0.224166 0.224166 0.197774 0.200649 0.144227 0.107015 0.106022 0.161643 0.212119 
0.245459 0.232619 0.271667 0.225345 0.159426 0.174081 0.212026 0.236659 0.251328 
0.283809 0.271941 0.227683 0.227683 0.229861 0.168266 0.135575 0.168015 0.182272 
0.16471 0.185314 0.165771 0.174202 0.13976 0.149924 0.202171 0.241135 0.347833 
0.332614 0.27065 0.0547035 0.283582 0.234682 0.294606 0.268883 0.406477 0.258733 
0.271668 0.420418 0.280543 0.189821 0.370255 0.423582 0.199669 0.283279 0.423554 
0.197266 0.251684 0.251684 0.244946 0.291697 0.291697 0.375569 0.398579 0.349826 
0.372645 0.383155 0.361767 0.384591 0.330085 0.287524 0.213296 0.13677 0.149773 
0.198839 0.198839 0.248137 0.243307 0.289593 0.264021 0.231869 0.222933 0.177196 
0.161747 0.15836 0.223175 0.274905 0.261489 0.289237 0.326593 0.154407 0.13043 
0.14401 0.142343 0.142343 0.152576 0.152576 0.147623 0.0727377 0.0727377 0.112137 
0.108704 0.129659 0.107159 0.102575 0.117225 0.108143 0.103557 0.103557 0.0540666 
0.0739377 0.0686852 0.055453 0.0946424 0.0743122 0.0306709 0.0691932 0.0978366 0.060623 
0.0818171 0.137252 0.184057 0.217061 0.309023 0.299774 0.299774 0.382899 0.314671 
0.369712 0.316253 0.217635 0.262328 0.229748 0.23269 0.0322704 0.0774923 0.113437 
0.130297 0.141589 0.175175 0.231223 0.212822 0.236641 0.313147 0.360736 0.16435 
0.25659 0.132453 0.176317 0.205768 0.16316 0.222948 0.196332 0.169394 0.151573 
0.153172 0.197177 0.22887 0.228029 0.295758 0.269921 0.294515 0.27705 0.303068 
0.264437 0.335914 0.312042 0.351267 0.286978 0.28023 0.314911 0.344047 0.317635 
0.230989 0.381683 0.359159 0.302414 0.421408 0.355275 0.359241 0.35475 0.423366 
0.287724 0.277028 0.203858 0.332477 0.347866 0.427144 0.205916 0.223007 0.180449 
0.273901 0.37152 0.285959 0.226372 0.19235 0.154763 0.137521 0.140583 0.164474 
0.164474 0.194035 0.199814 0.214482 0.223785 0.213773 0.233719 0.297888 0.230573 
0.253026 0.228081 0.160129 0.174253 0.225656 0.225656 0.206215 0.239594 0.185669 
0.194142 0.200943 0.131985 0.0965322 0.0806003 0.0410349 0.0775581 0.0661522 0.123899 
0.296542 0.0970559 0.0904029 0.0829996 0.254238 0.211137 0.202056 0.215053 0.195177 
0.288562 0.30394 0.321595 0.321595 0.332398 0.248752 0.270634 0.249731 0.181832 
0.149009 0.135632 0.195214 0.243953 0.265712 0.296423 0.302142 0.243217 0.193124 
0.230886 0.17171 0.262341 0.24842 0.212352 0.239105 0.377808 0.316306 0.300255 
0.235698 0.243866 0.237491 0.239873 0.251974 0.308724 0.203128 0.213517 0.141308 
0.134412 0.134412 0.115987 0.145839 0.161171 0.111824 0.117001 0.104418 0.103607 
0.103607 0.131845 0.208168 0.235828 0.339795 0.212718 0.209175 0.223446 0.173465 
0.197752 0.201728 0.173524 0.014697 0.053968 0.059679 0.0686762 0.094285 0.153276 
0.261256 0.309037 0.224482 0.206942 0.159333 0.14118 0.172458 0.178285 0.18112 
0.184879 0.215064 0.201233 0.231496 0.278117 0.259359 0.367634 0.384896 0.297704 
0.321039 0.247895 0.274638 0.274046 0.256401 0.203121 0.221043 0.268293 0.385396 
0.318801 0.31618 0.330633 0.239393 0.254774 0.286384 0.169435 0.263067 0.301314 

WidthEq 1 567 double
1.57246 1.51989 1.96145 2.01979 1.92663 6.07773 4.51677 4.7148 2.11475 
4.76194 5.21719 6.21087 4.10055 2.56036 4.27005 4.08107 5.94959 1.58305 
4.1127 5.14472 5.88659 1.18321 2.84559 2.11087 7.17576 3.21519 2.23634 
3.78041 1.0773 2.24332 5.91572 5.32758 4.47256 2.0234 3.51646 1.51213 
1 8.28017 7.1076 5.14782 5.03985 4.91343 3.09205 5.85979 5.49459 
2.71857 6.45543 7.21506 7.25573 5.98837 6.32143 5.66926 5.71261 6.96101 
7.17826 6.90078 5.20435 5.56904 4.19155 6.09393 6.34728 3.04896 3.93863 
4.86371 4.45852 5.21952 4.79796 5.11378 4.96548 4.84699 4.84699 5.5344 
6.01991 6.32798 4.29332 4.07711 4.17069 4.25368 3.68588 3.61349 4.15182 
5.09707 5.78715 5.72562 5.53656 7.45324 3.64305 5.43082 4.88603 5.6647 
5.35292 5.4939 6.68638 6.64958 6.87475 7.35923 6.22586 5.90461 6.07876 
5.98035 5.77741 6.03232 6.20544 6.40554 6.4625 7.06046 6.28929 6.44587 
4.05307 3.68433 3.94638 3.96362 4.21395 3.94319 4.12899 4.07332 4.34416 
4.64439 4.78994 5.18988 4.90438 5.68159 7.26254 5.03364 4.77667 4.63198 
5.27967 5.7326 5.9514 5.47666 5.13955 4.64646 4.42077 4.58252 4.71428 
4.53219 4.89663 5.85083 5.85083 5.92667 6.33168 6.23207 6.36503 6.5136 
6.71068 6.48663 6.9474 6.9898 6.89475 6.53919 8.44614 8.55024 8.55024 
7.68272 8.30723 8.07852 7.51175 7.17576 7.01315 6.96007 5.29208 4.22335 
4.56167 4.96694 6.22767 6.93878 7.09045 6.95154 6.70172 5.9944 5.44702 
5.45047 4.72471 4.42973 4.42499 5.71485 7.06417 6.3098 6.39287 7.08812 
4.60363 6.84287 5.88453 5.2745 4.93566 5.07794 5.48942 7.76614 7.61335 
7.05236 6.66027 5.97372 4.86974 4.03643 4.30969 4.94281 5.62135 4.96858 
4.48704 4.99331 5.40729 4.66171 4.84888 5.2726 5.38075 4.87741 4.79709 
4.24032 3.66597 3.41891 3.35885 2.96822 2.77571 2.6642 2.79406 3.95267 
7.91901 7.52141 7.25194 6.97205 6.31428 6.15477 5.57421 5.67392 5.67392 
5.18014 5.18014 4.84199 4.24834 4.24834 4.23464 4.52978 4.52978 4.84845 
4.88172 4.88172 5.18789 5.71752 6.34323 6.76954 6.42596 5.11861 4.55822 
4.10339 4.25609 4.28375 4.41267 4.45076 4.76271 4.60975 4.65155 4.66215 
4.72781 4.73005 4.7628 4.7628 4.83984 5.66607 6.07747 5.91072 5.70572 
5.26045 4.9622 4.9479 4.95807 6.62959 6.57797 5.86126 5.3337 4.30426 
4.47575 4.99417 1.51213 5.51148 5.45228 4.35356 3.9612 3.43675 4.16544 
4.07237 3.71268 3.82419 3.50879 3.5299 3.28327 5.44952 4.73367 3.87839 
5.37325 4.53978 4.53978 4.26514 3.89106 3.89106 3.54145 3.47449 3.60953 
3.8328 3.82755 3.73775 3.80023 4.04643 4.1613 4.64465 4.95764 4.89938 
4.73177 4.73177 4.33408 4.16828 3.74818 4.12364 4.23558 4.18931 4.4493 
4.34511 4.39087 4.20723 3.99249 4.96031 5.50915 5.27467 6.62545 6.66975 
6.599 6.58133 6.58133 6.47594 6.47594 6.5348 7.39921 7.39921 6.98514 
6.64872 6.61597 6.46999 6.25266 6.29696 5.95028 6.30351 6.30351 6.69155 