# vtk DataFile Version 3.0
vtk output
ASCII
DATASET POLYDATA
POINTS 268 float
1.17567 0.409002 1.17589 1.67503 0.459229 0.626005 1.97048 0.321948 0.563089 
1.08573 0.0857333 0.902696 3.44985 0.504334 0.260216 3.63892 0.463884 0.37871 
2.46259 0.105287 0.0399191 2.58494 -0.20139 0.761154 1.79353 0.102956 -0.714373 
0.173703 -0.618601 0.892138 2.8242 -0.0508924 -0.05428 0.036102 -0.388447 -0.826505 
0.540742 -0.274632 -0.852538 1.32659 -0.15588 -1.01924 2.23646 -0.912316 0.674562 
1.80539 -0.322879 -1.01542 -0.0911931 -1.67755 -0.391186 -0.540832 -1.69869 -1.23991 
-0.295888 -1.98902 -0.706999 -0.132042 -2.24159 -0.271785 2.05765 -1.82026 -0.609489 
-0.655156 -1.79682 -1.53179 -0.590148 -2.76969 -0.793297 -0.600914 -2.69289 -0.65518 
-0.609274 -2.61751 -0.532093 -0.60641 -2.54921 -0.428381 -0.574438 -2.47539 -0.352026 
-0.512667 -2.40991 -0.308226 -0.440743 -2.36007 -0.282911 -0.372535 -2.33186 -0.276565 
-0.312695 -2.30621 -0.284014 -0.234429 -2.27861 -0.281096 -0.526083 -2.65382 -0.790648 
-0.473695 -2.55658 -0.783919 -0.424875 -2.46478 -0.77137 -0.391845 -2.34702 -0.764866 
-0.344491 -2.18818 -0.733047 -0.644238 -2.74833 -0.849687 -0.670968 -2.72465 -0.907701 
-0.699279 -2.70591 -0.954603 -0.724815 -2.6867 -1.00218 -0.731721 -2.65977 -1.06499 
-0.729862 -2.62926 -1.13487 -0.725754 -2.59184 -1.2017 -0.715538 -2.54345 -1.25574 
-0.695446 -2.47236 -1.28625 -0.680571 -2.36599 -1.30557 -0.660659 -2.20641 -1.29777 
-0.626812 -1.97954 -1.27542 -0.0255902 -2.27124 -0.269816 0.0627643 -2.29009 -0.270337 
0.140814 -2.29738 -0.267828 0.208425 -2.30138 -0.255718 0.257354 -2.3108 -0.22746 
0.306284 -2.32022 -0.199203 0.373692 -2.32194 -0.186138 0.449792 -2.32004 -0.18022 
0.52731 -2.31755 -0.175467 0.60491 -2.31503 -0.170782 0.682509 -2.3125 -0.166096 
0.760034 -2.30995 -0.161486 0.836256 -2.3069 -0.158208 0.904491 -2.30076 -0.163082 
0.955675 -2.28806 -0.185365 1.00556 -2.27485 -0.20898 1.06443 -2.2651 -0.223414 
1.11471 -2.25868 -0.249981 1.16661 -2.2595 -0.278241 1.23467 -2.27318 -0.293376 
1.30192 -2.2733 -0.30261 1.35263 -2.25378 -0.322017 1.40132 -2.22023 -0.336778 
1.45939 -2.19693 -0.345311 1.5088 -2.1769 -0.366049 1.55868 -2.16369 -0.389663 
1.61879 -2.15443 -0.402835 1.67534 -2.14379 -0.419642 1.7353 -2.13447 -0.432959 
1.78257 -2.12025 -0.459242 1.81626 -2.1008 -0.499383 1.83848 -2.07693 -0.551236 
1.87047 -2.05019 -0.589756 1.90848 -2.01252 -0.615414 1.94784 -1.95549 -0.629619 
1.99446 -1.88799 -0.629697 -0.121112 -2.16368 -0.331609 -0.1033 -2.05724 -0.356884 
-0.0960985 -1.89137 -0.371448 -0.625564 -1.74637 -1.40205 -0.22207 -1.81449 -0.614711 
-0.175228 -1.69832 -0.528317 -0.136096 -1.65928 -0.4578 -0.31253 -1.92195 -0.782809 
-0.333353 -1.87497 -0.837809 -0.34121 -1.83843 -0.898029 -0.34874 -1.80246 -0.956911 
-0.367929 -1.76662 -1.0047 -0.387988 -1.72861 -1.05754 -0.439717 -1.70929 -1.12753 
-0.416303 -1.4332 -1.18249 -0.351778 -1.22922 -1.14055 -0.31291 -1.09651 -1.1242 
-0.275604 -0.998787 -1.12066 -0.230516 -0.904187 -1.10887 -0.1686 -0.791811 -1.06748 
-0.0999036 -0.662926 -1.00734 -0.0313045 -0.52318 -0.928791 -0.0677304 -1.50719 -0.271348 
-0.0817659 -1.3708 -0.159069 -0.0964482 -1.27324 -0.044405 -0.0964377 -1.20242 0.0593115 
-0.0762298 -1.13342 0.145152 -0.0538054 -1.07744 0.224064 -0.0420479 -1.03287 0.309118 
-0.0260093 -0.993453 0.388032 -0.0133735 -0.962405 0.467119 0.0121469 -0.93294 0.532988 
0.0454924 -0.907167 0.589798 0.0793788 -0.867266 0.651413 0.11215 -0.806987 0.721815 
0.143326 -0.719578 0.804024 1.81561 -0.137961 -0.87197 1.7395 -0.438029 -1.11138 
1.67041 -0.489071 -1.1599 1.62134 -0.496038 -1.197 1.57211 -0.481527 -1.22305 
1.50449 -0.453207 -1.2229 1.43383 -0.390922 -1.18967 1.37726 -0.288798 -1.11594 
0.116933 -0.422653 -0.879506 0.188627 -0.438918 -0.906808 0.247886 -0.426312 -0.92157 
0.316898 -0.411595 -0.921267 0.391997 -0.388224 -0.909058 0.46713 -0.344974 -0.886737 
2.29078 -0.797098 0.665026 2.33486 -0.70329 0.659911 2.38012 -0.638892 0.654373 
2.4292 -0.596606 0.644397 2.45871 -0.542464 0.616929 2.49635 -0.459458 0.617171 
2.54631 -0.341766 0.669523 1.25037 -0.158934 -1.02252 1.18122 -0.171347 -1.02193 
1.12311 -0.201268 -1.0168 1.05603 -0.247614 -1.03089 0.983509 -0.29187 -1.05055 
0.916612 -0.318403 -1.05439 0.865941 -0.318055 -1.02486 0.822451 -0.307213 -0.981289 
0.779434 -0.303176 -0.940588 0.730067 -0.303331 -0.909734 0.669161 -0.299028 -0.890657 
0.610099 -0.288814 -0.866341 1.35975 -0.0745969 -0.941284 1.40191 0.003497 -0.873355 
1.46263 0.0893229 -0.820686 1.52438 0.182515 -0.766234 1.57732 0.255807 -0.710612 
1.64415 0.278953 -0.686607 1.71984 0.222593 -0.695594 0.530678 -0.190501 -0.731173 
0.521094 -0.113132 -0.612832 0.513726 -0.048722 -0.501555 0.515522 0.0125457 -0.400441 
0.538507 0.0618066 -0.324614 0.572874 0.094956 -0.266018 0.618546 0.111973 -0.224588 
0.682778 0.136721 -0.198418 0.746294 0.175064 -0.166412 0.79227 0.21306 -0.117358 
0.837307 0.243704 -0.07016 0.893254 0.25805 -0.0398015 0.938858 0.254195 -0.00618589 
0.978455 0.247838 0.0323693 1.02366 0.250759 0.0689336 1.07961 0.265105 0.0992912 
1.12656 0.261811 0.131801 1.17391 0.251732 0.161358 1.23112 0.245764 0.182802 
1.27696 0.262848 0.224099 1.32333 0.294059 0.2702 1.38685 0.332402 0.302205 
1.45141 0.350335 0.325485 1.49693 0.346447 0.359167 1.5269 0.329129 0.403009 
1.54526 0.313922 0.45903 1.58082 0.326727 0.508772 1.63295 0.381168 0.558011 
0.0230472 -0.247761 -0.662009 0.0199508 -0.135433 -0.530138 0.0322341 -0.0608979 -0.433299 
0.0424441 -0.0146637 -0.346044 0.0588006 0.0179342 -0.270016 0.0722343 0.0354127 -0.196835 
0.0993494 0.0377479 -0.142773 0.13429 0.036401 -0.0977645 0.17017 0.0423879 -0.0509085 
0.205016 0.0687868 0.00466868 0.240801 0.102537 0.062102 0.284331 0.132553 0.110539 
0.340204 0.146869 0.140957 0.385727 0.14298 0.17464 0.424702 0.122462 0.208457 
0.462819 0.0946451 0.240358 0.502592 0.0605672 0.268274 0.54884 0.043079 0.296111 
0.604003 0.0432064 0.321868 0.638538 0.0486322 0.369831 0.647647 0.0365154 0.436072 
0.655817 0.0170656 0.500466 0.682783 -0.00150443 0.546781 0.71844 -0.0164539 0.58595 
0.755516 -0.030812 0.623953 0.792275 -0.0383518 0.664841 0.828236 -0.0323314 0.711631 
0.863082 -0.00593301 0.767208 0.898947 0.0278507 0.824575 0.943977 0.0584922 0.871779 
1.01012 0.0770842 0.893758 2.77095 -0.0296562 -0.0173138 2.70151 -0.0154451 -0.0035858 
2.6241 0.00184502 0.00198933 2.54418 0.0399918 0.0150912 1.88882 0.22615 -0.643746 
1.94464 0.31882 -0.570296 1.98947 0.385702 -0.507239 2.04378 0.429442 -0.464084 
2.08811 0.445899 -0.421548 2.12677 0.432199 -0.384846 2.16583 0.411715 -0.351095 
2.21207 0.394227 -0.323258 2.26764 0.387569 -0.300454 2.30297 0.379435 -0.258392 
2.31208 0.367328 -0.192147 2.31945 0.361438 -0.121852 2.34602 0.349652 -0.0725844 
2.38239 0.3211 -0.0392539 2.42036 0.265427 -0.0177252 2.45052 0.192599 0.00497695 
2.42633 0.173002 0.121101 2.40026 0.216897 0.202606 2.36508 0.244416 0.264745 
2.32315 0.274539 0.319986 2.27999 0.305146 0.373976 2.23708 0.329016 0.424859 
2.19385 0.336373 0.467188 2.14257 0.335481 0.499478 2.06853 0.331878 0.525636 
3.59157 0.473963 0.349153 3.53444 0.479964 0.327643 3.48851 0.490634 0.296919 
1.85543 0.336298 0.579648 1.75974 0.383758 0.597074 1.12745 0.0822082 0.860668 
1.17046 0.07818 0.819971 1.22067 0.0846335 0.793328 1.28713 0.0980827 0.789999 
1.35403 0.124615 0.793834 1.41109 0.148309 0.784266 1.4708 0.16436 0.774047 
1.51937 0.178075 0.749094 1.56071 0.201205 0.720128 1.59996 0.238397 0.695731 
1.63663 0.296466 0.678781 1.66452 0.371183 0.659584 1.08862 0.182199 1.01604 
1.1186 0.289961 1.1071 
LINES 23 316
11 22 23 24 25 26 27 28 29 30 31 19 
7 22 32 33 34 35 36 18 
14 22 37 38 39 40 41 42 43 44 45 46 47 48 17 
38 19 49 50 51 52 53 54 55 56 57 58 59 60 61 62 63 64 65 66 67 68 69 70 71 72 73 74 75 76 77 78 79 80 81 82 83 84 20 
5 19 85 86 87 16 
3 17 88 21 
5 18 89 90 91 16 
9 18 92 93 94 95 96 97 98 17 
10 17 99 100 101 102 103 104 105 106 11 
16 16 107 108 109 110 111 112 113 114 115 116 117 118 119 120 9 
8 11 129 130 131 132 133 134 12 
9 14 135 136 137 138 139 140 141 7 
14 13 142 143 144 145 146 147 148 149 150 151 152 153 12 
9 13 154 155 156 157 158 159 160 8 
30 12 161 162 163 164 165 166 167 168 169 170 171 172 173 174 175 176 177 178 179 180 181 182 183 184 185 186 187 188 1 
33 11 189 190 191 192 193 194 195 196 197 198 199 200 201 202 203 204 205 206 207 208 209 210 211 212 213 214 215 216 217 218 219 3 
6 10 220 221 222 223 6 
18 8 224 225 226 227 228 229 230 231 232 233 234 235 236 237 238 239 6 
5 5 249 250 251 4 
14 3 254 255 256 257 258 259 260 261 262 263 264 265 1 
4 3 266 267 0 
11 8 121 15 122 123 124 125 126 127 128 13 
14 6 240 241 242 243 244 245 246 247 248 2 252 253 1 

POINT_DATA 268
SCALARS DY_raw double
LOOKUP_TABLE default
245.223 291.341 202.043 196.137 510.111 268.327 158.835 262.735 185.712 
206.831 192.659 168.515 175.01 225.35 140.402 163.739 128.384 160.636 
129.38 116.489 174.849 320.646 112.838 122.663 128.431 131.779 131.368 
147.409 148.559 144.683 125.897 113.183 133.767 129.238 126.579 119.227 
128.538 120.692 129.808 143.563 158.27 163.378 168.654 165.228 162.877 
165.077 160.004 158.705 155.147 112.152 121.881 133.186 142.921 127.387 
135.555 154.865 146.495 133.825 166.57 159.598 159.598 193.691 174.182 
195.134 205.12 205.12 192.638 205.037 186.039 212.944 220.558 198.368 
245.643 245.643 227.105 223.254 195.946 196.774 192.133 192.133 179.115 
166.697 166.697 165.073 178.813 130.536 129.185 125.143 266.831 133.136 
133.865 131.446 127.177 129.488 134.247 146.45 131.394 123.091 120.67 
165.796 176.941 178.896 160.953 167.435 148.094 132.865 141.108 128.783 
145.009 168.279 158.574 156.592 174.609 170.47 136.046 154.753 132.065 
145.952 159.4 177.201 188.133 185.362 147.919 153.739 145.387 151.969 
134.815 155.83 160.446 159.681 170.353 165.766 163.791 171.15 221.543 
143.287 141.435 140.125 147.12 147.12 184.415 206.346 169.235 171.351 
175.567 175.731 162.436 180.43 198.347 221.023 219.898 193.121 193.121 
177.872 209.756 189.752 222.784 224.862 225.679 221.412 199.433 187.81 
209.613 191.579 188.866 209.618 182.141 201.302 180.551 183.665 201.587 
204.894 173.32 173.32 191.041 177.698 177.698 173.425 194.462 194.462 
254.218 265.393 304.616 316.45 316.45 292.415 264.425 283.029 274.215 
161.945 163.704 168.161 163.817 141.813 150.873 165.332 155.852 152.59 
166.861 168.404 184.263 173.085 153.264 153.264 163.906 172.432 164.181 
186.673 194.3 189.766 198.266 200.227 200.227 190.51 197.909 183.963 
173.419 184.165 189.08 196.137 189.552 208.396 165.386 165.386 200.153 
205.034 237.955 218.214 218.214 217.928 222.845 222.845 206.729 207.529 
214.325 226.467 230.559 230.559 181.518 170.522 146.637 157.988 162.365 
188.885 199.305 240.501 225.625 210.481 195.523 268.966 268.966 324.367 
205.454 240.137 218.721 208.743 215.906 228.584 239.734 240.215 240.215 
232.574 209.148 219.809 216.265 246.555 202.397 214.151 
FIELD FieldData 7
DY_minmax 1 268 double
0.334382 0.450269 0.225878 0.211039 1 0.39244 0.117306 0.378387 0.184843 
0.23791 0.202299 0.141629 0.15795 0.284446 0.0709867 0.129628 0.0407863 0.12183 
0.0432898 0.0108964 0.157545 0.523907 0.00172326 0.0264107 0.0409051 0.0493173 0.0482848 
0.0885931 0.0914821 0.0817435 0.0345372 0.00259019 0.0543142 0.0429318 0.0362516 0.0177766 
0.0411742 0.0214584 0.0443643 0.07893 0.115886 0.128721 0.141979 0.133371 0.127462 
0.132991 0.120243 0.11698 0.108037 0 0.0244454 0.0528529 0.0773149 0.038281 
0.0588063 0.10733 0.0862958 0.0544591 0.136742 0.119223 0.119223 0.204893 0.155868 
0.208519 0.233611 0.233611 0.202245 0.233402 0.185663 0.253272 0.272405 0.216644 
0.335438 0.335438 0.288857 0.279178 0.210558 0.21264 0.200978 0.200978 0.168265 
0.13706 0.13706 0.132979 0.167506 0.0461936 0.0427993 0.0326418 0.388681 0.0527271 
0.0545598 0.0484817 0.037753 0.0435623 0.0555209 0.0861837 0.0483505 0.0274857 0.0214043 
0.134797 0.162801 0.167715 0.122627 0.138916 0.0903149 0.0520474 0.0727612 0.0417894 
0.0825628 0.141036 0.116649 0.111668 0.156943 0.146541 0.0600414 0.107048 0.050037 
0.084933 0.118726 0.163455 0.190925 0.183963 0.0898752 0.104499 0.0835135 0.100052 
0.0569475 0.109753 0.121352 0.119431 0.146247 0.134721 0.129758 0.148251 0.274879 
0.078236 0.073583 0.0702893 0.0878684 0.0878684 0.181583 0.236693 0.143437 0.148755 
0.15935 0.159761 0.126353 0.171569 0.216593 0.273573 0.270745 0.203459 0.203459 
0.165141 0.24526 0.194994 0.277997 0.283219 0.285272 0.27455 0.21932 0.190114 
0.244901 0.199586 0.192767 0.244913 0.175868 0.224017 0.171873 0.179698 0.224734 
0.233044 0.153702 0.153702 0.198232 0.164704 0.164704 0.153968 0.20683 0.20683 
0.356987 0.385066 0.483627 0.513364 0.513364 0.452967 0.382635 0.429383 0.407235 
0.125119 0.12954 0.140741 0.129824 0.0745325 0.0972991 0.13363 0.109809 0.101613 
0.137473 0.14135 0.181202 0.153112 0.103305 0.103305 0.130047 0.151472 0.130738 
0.187256 0.206422 0.195029 0.216388 0.221315 0.221315 0.196899 0.215491 0.180448 
0.153951 0.180954 0.193305 0.211039 0.194492 0.241842 0.133766 0.133766 0.221131 
0.233394 0.316119 0.266515 0.266515 0.265795 0.278152 0.278152 0.237654 0.239665 
0.256742 0.287253 0.297535 0.297535 0.174304 0.146674 0.0866534 0.115176 0.126176 
0.192815 0.219 0.322517 0.285137 0.247084 0.209495 0.394045 0.394045 0.533258 
0.234449 0.321603 0.267788 0.242714 0.260713 0.292572 0.32059 0.321799 0.321799 
0.302599 0.243732 0.270521 0.261618 0.33773 0.226768 0.256306 
WidthEq 1 268 double
3.59139 3.94521 5.85813 6.99501 1 2.48488 7.46673 3.16658 8.73211 
3.37127 5.38376 10.5006 9.30537 9.27713 8.52801 11.306 11.875 11.9581 
11.5523 10.7719 6.82968 4.19928 13.7695 14.3108 13.8908 13.221 12.5133 
11.5713 10.472 9.48792 9.8441 10.4954 12.9746 12.6261 11.3258 11.6616 
11.6322 12.9166 12.0609 10.6816 9.11607 8.89294 8.38135 8.21239 8.21343 
7.70985 7.95573 9.03643 10.0284 10.7841 9.95203 9.32893 8.92377 9.37273 
9.34057 8.84563 9.53742 9.56295 9.03067 8.99183 8.99183 7.76839 7.87759 
7.65493 7.47387 7.47387 7.48027 7.71521 7.79721 7.66703 7.42553 7.87195 
6.76837 6.76837 7.20569 7.15169 7.67544 7.64231 7.49162 7.49162 7.56504 
8.00587 8.00587 8.27497 7.57172 10.7382 10.3685 10.8392 6.3964 11.6255 
11.9766 12.233 11.0071 9.90645 9.69762 9.12667 10.3881 11.4717 12.449 
12.5797 11.715 10.9058 10.0966 10.0327 10.0026 10.5418 11.1363 12.5199 
12.2721 10.8412 11.3363 10.9185 10.4131 10.3858 11.5433 10.3267 10.6027 
8.96054 8.38268 5.23226 3.8231 8.84615 13.1723 12.7223 12.8235 12.1591 
12.31 11.2058 10.9551 9.88196 8.81331 8.38152 8.17165 8.51539 7.20574 
8.74992 9.06916 8.93755 7.98904 7.98904 6.47898 5.22229 11.3603 11.1721 
10.5573 8.71477 8.62649 6.492 6.60039 5.88463 6.31976 7.50966 7.50966 
8.67547 9.80227 10.2204 9.25293 8.85722 8.30442 8.50104 8.82645 8.9565 
8.89196 8.92493 9.15969 8.6757 8.68544 8.24662 8.47983 7.68841 7.31996 
7.08248 8.20231 8.20231 7.72229 7.6445 7.6445 7.00602 5.87184 5.87184 
4.30076 4.24405 3.23302 2.97567 2.97567 3.33277 3.68849 3.39103 4.01061 
11.0199 10.8101 10.2547 10.4769 10.7697 10.2784 9.80284 9.50884 9.41024 
9.15128 8.34666 7.88958 7.76332 7.69642 7.69642 7.57668 7.22413 7.29898 
6.62759 6.29579 6.2388 6.34477 6.62875 6.62875 7.39746 7.31944 7.99964 
8.39241 7.9978 7.45866 6.99501 6.59244 6.12182 7.30353 7.30353 8.09225 
8.21314 7.06929 7.53081 7.53081 7.49923 6.85804 6.85804 6.39312 5.91218 
6.14591 5.658 5.49768 5.49768 7.12392 7.23894 7.00377 6.84167 5.9535 
5.4555 4.9945 4.83021 4.91838 5.18968 5.53174 2.72708 2.72708 2.16829 
5.88031 5.1566 6.07272 6.33048 5.93857 5.51238 5.34313 5.0213 5.0213 
4.98701 5.10411 4.95163 5.04769 4.69624 5.28972 4.13451 
rRFP 1 268 double
2875 2936.4 3268.36 3465.65 2425.3 2682.98 3547.51 2801.28 3767.1 
2836.8 3186.04 4074 3866.58 3861.68 3731.68 4213.77 4312.51 4326.93 
4256.51 4121.07 3436.96 2980.49 4641.26 4735.2 4662.32 4546.09 4423.28 
4259.8 4069.04 3898.26 3960.07 4073.09 4503.33 4442.84 4217.2 4275.48 
4270.37 4493.26 4344.77 4105.4 3833.73 3795.01 3706.23 3676.91 3677.09 
3589.7 3632.37 3819.91 3992.05 4123.19 3978.8 3870.67 3800.36 3878.27 
3872.69 3786.8 3906.85 3911.28 3818.91 3812.17 3812.17 3599.86 3618.81 
3580.17 3548.75 3548.75 3549.86 3590.63 3604.86 3582.27 3540.36 3617.83 
3426.32 3426.32 3502.21 3492.84 3583.73 3577.98 3551.83 3551.83 3564.57 
3641.07 3641.07 3687.77 3565.73 4115.22 4051.07 4132.75 3361.77 4269.21 
4330.14 4374.63 4161.9 3970.89 3934.65 3835.57 4054.47 4242.52 4412.12 
4434.8 4284.73 4144.32 4003.88 3992.8 3987.57 4081.15 4184.32 4424.42 
4381.41 4133.11 4219.02 4146.52 4058.81 4054.07 4254.95 4043.81 4091.72 
3806.74 3706.46 3159.75 2915.21 3786.89 4537.64 4459.54 4477.11 4361.81 
4388 4196.37 4152.86 3966.64 3781.19 3706.26 3669.84 3729.49 3502.22 
3770.19 3825.59 3802.75 3638.15 3638.15 3376.1 3158.02 4223.19 4190.53 
4083.83 3764.09 3748.77 3378.36 3397.17 3272.96 3348.47 3554.96 3554.96 
3757.27 3952.81 4025.38 3857.48 3788.81 3692.88 3727 3783.47 3806.04 
3794.84 3800.56 3841.3 3757.31 3759 3682.85 3723.32 3585.98 3522.04 
3480.83 3675.16 3675.16 3591.86 3578.36 3578.36 3467.56 3270.74 3270.74 
2998.1 2988.26 2812.81 2768.15 2768.15 2830.12 2891.85 2840.23 2947.75 
4164.11 4127.7 4031.33 4069.89 4120.7 4035.44 3952.91 3901.89 3884.78 
3839.84 3700.21 3620.89 3598.98 3587.37 3587.37 3566.59 3505.41 3518.4 
3401.89 3344.31 3334.42 3352.81 3402.09 3402.09 3535.49 3521.95 3639.99 
3708.15 3639.67 3546.11 3465.65 3395.79 3314.12 3519.19 3519.19 3656.06 
3677.04 3478.54 3558.63 3558.63 3553.15 3441.88 3441.88 3361.2 3277.74 
3318.3 3233.63 3205.81 3205.81 3488.02 3507.98 3467.17 3439.04 3284.91 
3198.49 3118.49 3089.98 3105.28 3152.36 3211.72 2725.01 2725.01 2628.04 
3272.21 3146.62 3305.6 3350.33 3282.32 3208.36 3178.99 3123.14 3123.14 
3117.19 3137.51 3111.05 3127.72 3066.73 3169.72 2969.25 
rGFP 1 268 double
3194.51 3463.22 3497.41 3685.8 2823.93 2980.58 3499.8 3145.79 3935.48 
3011.1 3351.05 4083.33 3942.35 4404.42 3511.17 4165.06 3838.38 4234.72 
3808.46 3568.62 3507.98 3660.3 3867.54 4069.22 4097.83 4056.07 3957.67 
4019.53 3869.53 3686.56 3553.16 3501.72 4049.4 3945.58 3747.43 3704.2 
3809 3872.75 3879.42 3847.3 3756.62 3766.73 3727.37 3670.74 3651.6 
3586.54 3586.77 3747.95 3869.69 3523.28 3526.78 3556.3 3589.21 3507.78 
3579.98 3683.7 3711 3593.58 3818.06 3748.9 3748.9 3818.49 3685.95 
3807.56 3846.86 3846.86 3754.8 3895.72 3764.4 3946.47 3951.58 3875.36 
3976.42 3976.42 3950.27 3910.46 3817.79 3817.63 3753.21 3753.21 3668.83 
3648.37 3648.37 3679.79 3667.74 3715.53 3653.27 3670.26 4020.58 3861.59 
3917.07 3921.8 3713.67 3596.59 3615.7 3650.42 3678.75 3725.88 3816.05 
4399.49 4386.67 4264.83 3938.89 3993.65 3795.14 3714.46 3885.25 3926.17 
4093.38 4138.17 4111.46 4023.57 4132.04 4084.28 3884.25 3911.9 3714.07 
3621.63 3650.02 3240.98 3033.07 3953.56 4262.26 4269.73 4178.2 4161.63 
3973.4 4060.01 4071.51 3891.78 3815.19 3703.19 3652.26 3771.23 3910.2 
3567.57 3596.52 3566.19 3489.17 3489.17 3508.64 3391.42 4236.38 4228.17 
4167.33 3845.27 3715.07 3485.17 3622.99 3614.46 3703.52 3764.09 3764.09 
3856.94 4369.9 4253.17 4375.22 4305.47 4187.95 4196.05 4074.1 3995.94 
4177.69 4023.65 4043.77 4132.4 3895.79 3973.88 3844.86 3725.91 3789.43 
3764.98 3735.44 3735.44 3789.09 3672.23 3672.23 3528.84 3455.67 3455.67 
3407.15 3440.16 3298.65 3255.47 3255.47 3288.37 3289.15 3273.58 3413.59 
4098.43 4083.47 4038.27 4030.12 3841.11 3864.56 3934.54 3795.79 3749.73 
3840.81 3719.43 3767.58 3657.53 3493.4 3493.4 3555.68 3559.49 3512.17 
3551.01 3537.09 3497.73 3571.77 3641.07 3641.07 3723.11 3762.4 3785.46 
3769.22 3786.73 3724.1 3685.8 3563.43 3589.58 3521.72 3521.72 3933.51 
3997.79 3995.99 3957.15 3957.15 3948.11 3842.1 3842.1 3635.46 3540.77 
3631.04 3595.17 3581.36 3581.36 3606.94 3548.22 3340.83 3394.72 3280.46 
3344.28 3309.25 3475.49 3423.53 3406.15 3395.4 3047.31 3047.31 3017.14 
3521.95 3552.11 3642.05 3635.26 3595.99 3573.86 3594.75 3520.01 3520.01 
3473.67 3381.33 3402.23 3405.46 3471.7 3384.44 3199.23 
bkstRFP 1 268 double
623.236 684.636 1016.6 1213.89 173.536 431.216 1295.75 549.516 1515.34 
585.036 934.276 1822.24 1614.82 1609.92 1479.92 1962.01 2060.75 2075.17 
2004.75 1869.31 1185.2 728.726 2389.5 2483.44 2410.56 2294.33 2171.52 
2008.04 1817.28 1646.5 1708.31 1821.33 2251.57 2191.08 1965.44 2023.72 
2018.61 2241.5 2093.01 1853.64 1581.97 1543.25 1454.47 1425.15 1425.33 
1337.94 1380.61 1568.15 1740.29 1871.43 1727.04 1618.91 1548.6 1626.51 
1620.93 1535.04 1655.09 1659.52 1567.15 1560.41 1560.41 1348.1 1367.05 
1328.41 1296.99 1296.99 1298.1 1338.87 1353.1 1330.51 1288.6 1366.07 
1174.56 1174.56 1250.45 1241.08 1331.97 1326.22 1300.07 1300.07 1312.81 
1389.31 1389.31 1436.01 1313.97 1863.46 1799.31 1880.99 1110.01 2017.45 
2078.38 2122.87 1910.14 1719.13 1682.89 1583.81 1802.71 1990.76 2160.36 
2183.04 2032.97 1892.56 1752.12 1741.04 1735.81 1829.39 1932.56 2172.66 
2129.65 1881.35 1967.26 1894.76 1807.05 1802.31 2003.19 1792.05 1839.96 
1554.98 1454.7 907.986 663.446 1535.13 2285.88 2207.78 2225.35 2110.05 
2136.24 1944.61 1901.1 1714.88 1529.43 1454.5 1418.08 1477.73 1250.46 
1518.43 1573.83 1550.99 1386.39 1386.39 1124.34 906.256 1971.43 1938.77 
1832.07 1512.33 1497.01 1126.6 1145.41 1021.2 1096.71 1303.2 1303.2 
1505.51 1701.05 1773.62 1605.72 1537.05 1441.12 1475.24 1531.71 1554.28 
1543.08 1548.8 1589.54 1505.55 1507.24 1431.09 1471.56 1334.22 1270.28 
1229.07 1423.4 1423.4 1340.1 1326.6 1326.6 1215.8 1018.98 1018.98 
746.336 736.496 561.046 516.386 516.386 578.356 640.086 588.466 695.986 
1912.35 1875.94 1779.57 1818.13 1868.94 1783.68 1701.15 1650.13 1633.02 
1588.08 1448.45 1369.13 1347.22 1335.61 1335.61 1314.83 1253.65 1266.64 
1150.13 1092.55 1082.66 1101.05 1150.33 1150.33 1283.73 1270.19 1388.23 
1456.39 1387.91 1294.35 1213.89 1144.03 1062.36 1267.43 1267.43 1404.3 
1425.28 1226.78 1306.87 1306.87 1301.39 1190.12 1190.12 1109.44 1025.98 
1066.54 981.866 954.046 954.046 1236.26 1256.22 1215.41 1187.28 1033.15 
946.726 866.726 838.216 853.516 900.596 959.956 473.246 473.246 376.276 
1020.45 894.856 1053.84 1098.57 1030.56 956.596 927.226 871.376 871.376 
865.426 885.746 859.286 875.956 814.966 917.956 717.486 
bkstGFP 1 268 double
880.691 1149.4 1183.59 1371.98 510.111 666.761 1185.98 831.971 1621.66 
697.281 1037.23 1769.51 1628.53 2090.6 1197.35 1851.24 1524.56 1920.9 
1494.64 1254.8 1194.16 1346.48 1553.72 1755.4 1784.01 1742.25 1643.85 
1705.71 1555.71 1372.74 1239.34 1187.9 1735.58 1631.76 1433.61 1390.38 
1495.18 1558.93 1565.6 1533.48 1442.8 1452.91 1413.55 1356.92 1337.78 
1272.72 1272.95 1434.13 1555.87 1209.46 1212.96 1242.48 1275.39 1193.96 
1266.16 1369.88 1397.18 1279.76 1504.24 1435.08 1435.08 1504.67 1372.13 
1493.74 1533.04 1533.04 1440.98 1581.9 1450.58 1632.65 1637.76 1561.54 
1662.6 1662.6 1636.45 1596.64 1503.97 1503.81 1439.39 1439.39 1355.01 
1334.55 1334.55 1365.97 1353.92 1401.71 1339.45 1356.44 1706.76 1547.77 
1603.25 1607.98 1399.85 1282.77 1301.88 1336.6 1364.93 1412.06 1502.23 
2085.67 2072.85 1951.01 1625.07 1679.83 1481.32 1400.64 1571.43 1612.35 
1779.56 1824.35 1797.64 1709.75 1818.22 1770.46 1570.43 1598.08 1400.25 
1307.81 1336.2 927.161 719.251 1639.74 1948.44 1955.91 1864.38 1847.81 
1659.58 1746.19 1757.69 1577.96 1501.37 1389.37 1338.44 1457.41 1596.38 
1253.75 1282.7 1252.37 1175.35 1175.35 1194.82 1077.6 1922.56 1914.35 
1853.51 1531.45 1401.25 1171.35 1309.17 1300.64 1389.7 1450.27 1450.27 
1543.12 2056.08 1939.35 2061.4 1991.65 1874.13 1882.23 1760.28 1682.12 
1863.87 1709.83 1729.95 1818.58 1581.97 1660.06 1531.04 1412.09 1475.61 
1451.16 1421.62 1421.62 1475.27 1358.41 1358.41 1215.02 1141.85 1141.85 
1093.33 1126.34 984.831 941.651 941.651 974.551 975.331 959.761 1099.77 
1784.61 1769.65 1724.45 1716.3 1527.29 1550.74 1620.72 1481.97 1435.91 
1526.99 1405.61 1453.76 1343.71 1179.58 1179.58 1241.86 1245.67 1198.35 
1237.19 1223.27 1183.91 1257.95 1327.25 1327.25 1409.29 1448.58 1471.64 
1455.4 1472.91 1410.28 1371.98 1249.61 1275.76 1207.9 1207.9 1619.69 
1683.97 1682.17 1643.33 1643.33 1634.29 1528.28 1528.28 1321.64 1226.95 
1317.22 1281.35 1267.54 1267.54 1293.12 1234.4 1027.01 1080.9 966.641 
1030.46 995.431 1161.67 1109.71 1092.33 1081.58 733.491 733.491 703.321 
1208.13 1238.29 1328.23 1321.44 1282.17 1260.04 1280.93 1206.19 1206.19 
1159.85 1067.51 1088.41 1091.64 1157.88 1070.62 885.411 
tubeWidth 1 268 double
0.0846574 0.0854159 0.194312 0.220587 0.00234127 0.186932 0.268696 0.144515 0.190718 
0.0705827 0.223351 0.178772 0.221446 0.199378 0.326996 0.245791 0.235021 0.10644 
0.104456 0.252965 0.250021 0.111897 0.2765 0.288997 0.260936 0.288005 0.263077 
0.244391 0.184267 0.175558 0.156653 0.167291 0.215518 0.150874 0.206652 0.164219 
0.206285 0.233405 0.208138 0.206709 0.186874 0.150773 0.153306 0.166687 0.199666 
0.21925 0.188326 0.169201 0.203059 0.227504 0.211579 0.204528 0.224053 0.267495 
0.229969 0.210721 0.221144 0.24791 0.274557 0.240603 0.216075 0.209428 0.141199 
0.156256 0.204865 0.21667 0.208736 0.210508 0.22572 0.19321 0.224467 0.203875 
0.195522 0.208915 0.173473 0.189123 0.239102 0.224549 0.217431 0.242445 0.247427 
0.231479 0.257986 0.302695 0.319667 0.201927 0.0580889 0.100815 0.153503 0.27047 
0.249455 0.274476 0.203505 0.246638 0.209223 0.143215 0.150086 0.187072 0.131969 
0.238915 0.247488 0.258795 0.264503 0.221099 0.260668 0.213952 0.264195 0.223296 
0.227962 0.229771 0.263759 0.247474 0.244204 0.242355 0.256922 0.270765 0.298668 
0.321877 0.2692 0.176844 0.12951 0.174815 0.296922 0.268649 0.25274 0.24654 
0.279627 0.251223 0.189443 0.196946 0.192199 0.201809 0.198295 0.226403 0.24423 
0.299723 0.292523 0.286419 0.297733 0.314011 0.278623 0.251717 0.248299 0.227671 
0.209715 0.249454 0.221151 0.174568 0.205606 0.265652 0.240551 0.226943 0.225462 
0.215651 0.254144 0.181755 0.192816 0.0908171 0.136926 0.209316 0.131021 0.240183 
0.189267 0.182741 0.204087 0.244226 0.221462 0.227705 0.214824 0.220106 0.193896 
0.213204 0.227473 0.250753 0.289654 0.300051 0.259683 0.262509 0.281849 0.261157 
0.258444 0.217478 0.140476 0.127187 0.109133 0.0909958 0.089656 0.0826609 0.127072 
0.212407 0.260203 0.254562 0.249669 0.296809 0.265498 0.230952 0.207469 0.209666 
0.245178 0.24364 0.193893 0.168345 0.211022 0.226173 0.244504 0.233287 0.231779 
0.231755 0.182512 0.159727 0.183984 0.208884 0.211961 0.216553 0.236909 0.292798 
0.264298 0.203347 0.235869 0.246424 0.279051 0.267648 0.267581 0.273238 0.258895 
0.224783 0.255109 0.274151 0.247024 0.264966 0.249662 0.274852 0.200841 0.17189 
0.172356 0.166842 0.189199 0.197335 0.234152 0.252172 0.210504 0.20565 0.193431 
0.231879 0.224632 0.2017 0.204923 0.207346 0.209995 0.239244 0.19143 0.110202 
0.262138 0.200747 0.20209 0.220679 0.253745 0.241994 0.216676 0.209883 0.212856 
0.197574 0.195464 0.202359 0.242411 0.1911 0.181376 0.146625 
