# vtk DataFile Version 3.0
vtk output
ASCII
DATASET POLYDATA
POINTS 403 float
1.68092 -0.619433 1.1506 1.74992 0.690108 1.07803 1.26994 0.991885 1.02049 
2.27148 -0.368228 0.662469 0.0661405 0.973812 0.835831 0.619326 1.32685 0.590554 
0.570012 1.46567 0.501337 -0.808882 0.503085 0.15187 0.464518 1.73979 -0.0128501 
-0.790338 0.362798 -0.19598 4.76431 -0.48551 -0.72221 3.58889 -0.0214412 -1.06051 
-0.760417 0.222868 -1.07956 4.40718 -0.338288 -1.19177 3.46966 -0.260089 -1.15529 
-0.599922 0.211012 -1.27527 3.87401 0.152287 -1.30037 3.08123 0.95611 -1.5168 
3.38626 0.488211 -1.28793 5.03332 -0.436456 -1.712 -0.438226 0.543728 -1.97407 
2.78554 1.18564 -1.84861 2.26315 1.30688 -2.26034 2.16813 1.3085 -2.29384 
2.10371 1.29089 -2.30559 2.04814 1.27069 -2.29489 1.98662 1.26173 -2.28335 
1.93315 1.24314 -2.28731 1.87927 1.22747 -2.30589 1.81277 1.23186 -2.33051 
1.74597 1.23555 -2.34777 1.6921 1.21988 -2.36635 1.63947 1.20349 -2.3924 
1.5791 1.20102 -2.43233 1.5216 1.19425 -2.47255 1.45962 1.19187 -2.49764 
1.40086 1.18236 -2.50838 1.33798 1.17786 -2.51137 1.27892 1.16764 -2.51475 
1.21605 1.16314 -2.51773 1.15705 1.15283 -2.52112 1.09519 1.14682 -2.52421 
1.04166 1.12831 -2.52816 0.986888 1.11052 -2.52464 0.918832 1.11147 -2.51242 
0.849469 1.11322 -2.49272 0.787781 1.10463 -2.48115 0.718955 1.10789 -2.47619 
0.650184 1.11107 -2.47123 0.589517 1.10095 -2.45977 0.525325 1.0938 -2.43327 
0.464059 1.08226 -2.40707 0.394092 1.08261 -2.37264 0.324125 1.08296 -2.33821 
0.261962 1.06931 -2.28991 0.196934 1.05994 -2.24132 0.136079 1.04548 -2.20049 
0.0720088 1.03815 -2.17401 0.012168 1.02564 -2.1553 -0.0497569 1.0151 -2.12903 
-0.0967332 0.982156 -2.10431 -0.130024 0.927558 -2.07366 -0.170393 0.88472 -2.04962 
-0.216244 0.850094 -2.02502 -0.262444 0.818304 -2.01505 -0.307398 0.785799 -2.01255 
-0.346565 0.745325 -2.01554 -0.376742 0.689078 -2.01223 -0.410354 0.628983 -1.99703 
2.2778 1.39076 -2.14743 2.28945 1.46162 -2.021 2.29831 1.52593 -1.8953 
2.29735 1.58605 -1.8151 2.26757 1.63065 -1.78967 2.21488 1.66217 -1.79624 
2.16305 1.69375 -1.79531 2.09755 1.71477 -1.77361 2.03167 1.73502 -1.74455 
1.97656 1.76188 -1.70697 1.90915 1.78113 -1.67807 1.83496 1.7959 -1.64987 
1.76824 1.81663 -1.6357 1.71585 1.84732 -1.62743 1.65946 1.87588 -1.62698 
1.60707 1.90658 -1.61871 1.53996 1.92654 -1.59717 1.46356 1.93883 -1.55441 
1.38514 1.94877 -1.49706 1.30785 1.95894 -1.43219 1.23865 1.97395 -1.35909 
1.18327 1.99757 -1.27714 1.12299 2.01694 -1.18091 1.06671 2.03844 -1.07686 
0.995477 2.0484 -0.952196 0.916259 2.0499 -0.813766 0.840827 2.0413 -0.668701 
0.775668 2.02058 -0.546723 0.70992 2.00536 -0.454041 0.654299 1.97729 -0.377073 
0.605144 1.93901 -0.298338 0.561229 1.88826 -0.205688 0.521262 1.81669 -0.109919 
2.36337 1.27412 -2.22963 2.44675 1.24926 -2.18395 2.52213 1.22817 -2.13078 
2.59524 1.20931 -2.07749 2.66275 1.19878 -2.02363 2.72091 1.1988 -1.94679 
-0.377846 0.497569 -2.13493 -0.343016 0.45289 -2.27186 -0.331931 0.398559 -2.36103 
-0.320296 0.342057 -2.39081 -0.317834 0.274564 -2.34506 -0.315709 0.207413 -2.2397 
-0.342409 0.1472 -2.09762 -0.407424 0.126458 -1.95329 -0.485469 0.125634 -1.8076 
-0.554541 0.134866 -1.65311 -0.592296 0.163501 -1.47315 2.85367 1.15349 -1.68732 
2.9171 1.1164 -1.57063 2.98121 1.05439 -1.51962 2.82001 1.14922 -1.94753 
2.85479 1.11098 -2.01681 2.89574 1.07287 -2.02849 2.94879 1.03687 -1.95681 
3.00228 0.992332 -1.77793 -0.510677 0.48073 -1.81425 -0.551018 0.398164 -1.64507 
-0.576572 0.305659 -1.46384 3.13161 0.837539 -1.56412 3.16842 0.764185 -1.56445 
3.19781 0.709476 -1.51489 3.22657 0.65667 -1.43464 3.26397 0.61047 -1.36307 
3.31488 0.574716 -1.31231 3.35438 0.533468 -1.29232 4.99392 -0.392084 -1.77637 
4.94153 -0.356797 -1.83469 4.89132 -0.321097 -1.87798 4.82601 -0.296895 -1.90065 
4.75146 -0.280451 -1.9021 4.67528 -0.269437 -1.87434 4.60357 -0.272959 -1.79815 
4.54328 -0.302831 -1.657 4.48136 -0.333968 -1.44653 3.19634 0.908709 -1.28655 
3.24868 0.849718 -1.06889 3.25891 0.788634 -0.86432 3.24009 0.733504 -0.66706 
3.22002 0.685928 -0.471359 3.16783 0.655814 -0.275286 3.10926 0.61828 -0.0876328 
3.04775 0.5842 0.0853419 2.97402 0.571711 0.237552 2.89987 0.562149 0.375127 
2.83369 0.542949 0.497199 2.76068 0.536308 0.60531 2.68856 0.531788 0.69132 
2.62443 0.517621 0.761837 2.55213 0.516834 0.825848 2.47439 0.524402 0.89045 
2.39686 0.533774 0.962674 2.32736 0.548074 1.04316 2.27168 0.570989 1.13246 
2.21266 0.593096 1.19922 2.16044 0.620066 1.22948 2.10174 0.63437 1.20612 
2.04363 0.631964 1.16629 1.97532 0.640423 1.13454 1.90048 0.655004 1.12545 
1.82493 0.671803 1.10911 3.8292 0.124629 -1.33215 3.77909 0.091058 -1.31259 
3.70613 0.0440353 -1.2158 -0.68002 0.217293 -1.1811 3.48498 -0.19038 -1.07599 
3.51852 -0.112248 -1.04478 3.68781 -0.0871403 -1.13232 3.76329 -0.125423 -1.17017 
3.81816 -0.158347 -1.17359 3.88265 -0.180806 -1.15326 3.94996 -0.188918 -1.13641 
4.00916 -0.183735 -1.12606 4.06885 -0.195857 -1.1248 4.12148 -0.224596 -1.12542 
4.1878 -0.246386 -1.12731 4.26243 -0.263854 -1.13589 4.33688 -0.290014 -1.15772 
4.50424 -0.368963 -0.99465 4.58311 -0.398407 -0.845332 4.64752 -0.428266 -0.761179 
4.69992 -0.461717 -0.729989 -0.766499 0.270635 -0.871658 -0.790921 0.304238 -0.658407 
-0.808206 0.332277 -0.432993 -0.809045 0.181048 -0.981291 -0.850512 0.128297 -0.861426 
-0.86917 0.0571912 -0.727507 -0.866423 -0.013022 -0.607523 -0.864386 -0.084483 -0.510039 
-0.848181 -0.146719 -0.411094 -0.825906 -0.206477 -0.289314 -0.809708 -0.271777 -0.145973 
-0.795887 -0.338137 -0.01028 -0.747591 -0.380202 0.106804 -0.687951 -0.412096 0.188085 
-0.637891 -0.446609 0.246385 -0.579992 -0.462974 0.291845 -0.52249 -0.461974 0.346406 
-0.455372 -0.473271 0.407627 -0.382686 -0.492711 0.468293 -0.309701 -0.511444 0.521588 
-0.241593 -0.520559 0.560719 -0.181945 -0.517002 0.600722 -0.114674 -0.523707 0.6326 
-0.0487734 -0.529517 0.671958 0.00349824 -0.513751 0.705374 0.0499277 -0.49039 0.746742 
0.101185 -0.473106 0.780272 0.161493 -0.470537 0.820208 0.218936 -0.463676 0.860439 
0.278646 -0.462521 0.915105 0.328707 -0.448067 0.978106 0.374178 -0.426736 1.04158 
0.424837 -0.410866 1.08984 0.485708 -0.407025 1.11502 0.543879 -0.400097 1.1255 
0.60345 -0.412036 1.12677 0.655007 -0.439173 1.12626 0.714634 -0.451196 1.12752 
0.774234 -0.445253 1.13051 0.843385 -0.451508 1.14017 0.916558 -0.4659 1.1641 
0.984306 -0.47563 1.2106 1.04341 -0.473571 1.26533 1.11143 -0.482745 1.30445 
1.18496 -0.497678 1.306 1.2527 -0.516071 1.26975 1.3085 -0.541457 1.21744 
1.37658 -0.559239 1.17381 1.45208 -0.573653 1.15315 1.5285 -0.588481 1.14738 
1.60471 -0.603957 1.14899 3.42936 -0.00409162 -0.874171 3.31969 0.00294258 -0.714106 
3.2346 0.00758663 -0.592985 3.15486 0.0111427 -0.486652 3.08143 0.00743476 -0.393167 
3.01747 -0.0104551 -0.300669 2.95238 -0.0243497 -0.222714 2.89801 -0.0531378 -0.153214 
2.85406 -0.0963902 -0.0921189 2.81398 -0.145438 -0.0314332 2.75747 -0.16871 0.0236195 
2.70417 -0.19565 0.0710007 2.65665 -0.230089 0.110456 2.61401 -0.274145 0.164077 
2.57363 -0.3239 0.232133 2.51464 -0.34854 0.319228 2.45071 -0.368078 0.414061 
2.37004 -0.372698 0.529495 -0.690193 0.373526 -0.29019 -0.623254 0.401227 -0.366735 
-0.572759 0.435187 -0.416039 -0.526972 0.469263 -0.435733 -0.487855 0.509355 -0.430296 
-0.458037 0.559914 -0.401892 -0.420715 0.595762 -0.352254 -0.378514 0.621992 -0.288442 
-0.336612 0.647514 -0.21726 -0.300186 0.68124 -0.145512 -0.27192 0.728345 -0.0802618 
-0.235971 0.765097 -0.0231436 -0.199724 0.802557 0.0266047 -0.171213 0.850452 0.0844909 
-0.135564 0.886497 0.148979 -0.100513 0.921126 0.228208 -0.0736806 0.964604 0.330283 
-0.0388164 0.990271 0.468224 0.00663594 0.9943 0.641749 0.387017 1.73888 -0.0483574 
0.336567 1.71096 -0.0754261 0.280777 1.69616 -0.0890446 0.229499 1.6746 -0.0956794 
0.182466 1.64521 -0.0929599 0.135784 1.61299 -0.0756082 0.0883261 1.57846 -0.0361686 
0.0415774 1.54171 0.0105468 0.000665847 1.49738 0.0493107 -0.0312448 1.44187 0.0724769 
-0.0716197 1.39904 0.0965167 -0.119138 1.3646 0.135963 -0.173148 1.33989 0.176088 
-0.233998 1.32773 0.202242 -0.279722 1.29754 0.197487 -0.311518 1.24647 0.191294 
-0.350989 1.20576 0.193234 -0.396242 1.17255 0.203098 -0.441606 1.14297 0.190967 
-0.485835 1.11631 0.149382 -0.529466 1.09107 0.0930468 -0.573695 1.06441 0.0514616 
-0.619419 1.03422 0.0467068 -0.666578 1.0004 0.0787762 -0.713265 0.963556 0.125485 
-0.753046 0.917527 0.164132 -0.776829 0.851194 0.179139 -0.791893 0.777376 0.178892 
-0.797283 0.708147 0.172027 -0.79001 0.64715 0.166467 -0.795339 0.577829 0.159596 
-0.80736 0.436653 -0.0158047 0.489435 1.6437 0.207328 0.514331 1.57156 0.372706 
0.541216 1.51543 0.462737 -0.749513 0.471793 0.255538 -0.707591 0.43927 0.38073 
-0.662338 0.425673 0.530214 -0.601158 0.4073 0.672436 -0.538638 0.39365 0.792826 
-0.488522 0.404555 0.877829 -0.44376 0.428104 0.934038 -0.399171 0.455378 0.968256 
-0.354704 0.482834 1.00249 -0.311844 0.510388 1.05155 -0.27482 0.545528 1.10857 
-0.245956 0.594048 1.15908 -0.208811 0.633629 1.18673 -0.171068 0.674624 1.19965 
-0.140409 0.727387 1.20596 -0.100992 0.768187 1.20402 -0.0552021 0.802904 1.17942 
-0.00767903 0.841956 1.11063 0.0354474 0.895682 0.990928 0.577064 1.3917 0.542933 
0.557376 1.27384 0.661152 0.491526 1.24923 0.734317 0.435921 1.22046 0.803769 
0.386272 1.18508 0.869108 0.337795 1.14861 0.93067 0.289678 1.11276 0.984856 
0.242458 1.07903 1.01693 0.196734 1.04883 1.01218 0.152505 1.02218 0.970592 
0.109173 0.99764 0.906897 0.625305 1.43027 0.608175 0.644842 1.38337 0.637976 
0.715027 1.29098 0.736217 0.786493 1.25669 0.843818 0.837315 1.21864 0.90926 
0.891532 1.18476 0.964059 0.941447 1.14835 1.01473 1.00455 1.12167 1.05196 
1.06905 1.09804 1.05728 1.12355 1.06779 1.03921 1.19173 1.03697 1.02412 
2.24463 -0.457945 0.553461 2.21951 -0.524045 0.471625 2.18208 -0.564085 0.433987 
2.13628 -0.598539 0.456128 2.08686 -0.633587 0.517788 2.03088 -0.662278 0.602123 
1.96603 -0.675374 0.672715 1.90365 -0.689668 0.728391 1.83371 -0.688012 0.777842 
1.76689 -0.674254 0.858372 1.71977 -0.648364 0.985556 1.23431 0.906469 0.968643 
1.19978 0.846387 0.939133 1.17777 0.78035 0.919483 1.16361 0.708324 0.899577 
1.16052 0.641629 0.878158 1.17919 0.587648 0.881184 1.20818 0.538443 0.914868 
1.24803 0.495516 0.964505 1.30976 0.469735 1.00922 1.37677 0.460916 1.03343 
1.43753 0.467241 1.04395 1.50599 0.463365 1.04636 1.57334 0.461175 1.04889 
1.62567 0.481471 1.05296 1.66585 0.519961 1.05828 1.6955 0.574235 1.0647 
1.72694 0.625836 1.07093 2.18518 -0.339356 0.823097 2.10177 -0.327908 0.969762 
2.02181 -0.323704 1.0836 1.95074 -0.32587 1.14505 1.89698 -0.345178 1.14846 
1.85132 -0.370849 1.11435 1.8068 -0.398214 1.08012 1.7622 -0.430102 1.07525 
1.72302 -0.474717 1.09917 1.69855 -0.542526 1.12891 1.36287 0.969694 1.0544 
1.44449 0.950737 1.07824 1.51963 0.933061 1.08952 1.5857 0.910673 1.09254 
1.63611 0.878157 1.09146 1.68087 0.841918 1.0898 1.69886 0.787992 1.08536 
1.72104 0.736838 1.08134 
LINES 31 473
48 22 23 24 25 26 27 28 29 30 31 32 33 34 35 36 37 38 39 40 41 42 43 44 45 46 47 48 49 50 51 52 53 54 55 56 57 58 59 60 61 62 63 64 65 66 67 68 20 
35 22 69 70 71 72 73 74 75 76 77 78 79 80 81 82 83 84 85 86 87 88 89 90 91 92 93 94 95 96 97 98 99 100 101 8 
8 22 102 103 104 105 106 107 21 
13 20 108 109 110 111 112 113 114 115 116 117 118 15 
5 21 119 120 121 17 
7 21 122 123 124 125 126 17 
5 20 127 128 129 15 
9 17 130 131 132 133 134 135 136 18 
11 19 137 138 139 140 141 142 143 144 145 13 
28 17 146 147 148 149 150 151 152 153 154 155 156 157 158 159 160 161 162 163 164 165 166 167 168 169 170 171 1 
5 16 172 173 174 11 
3 15 175 12 
4 14 176 177 11 
13 11 178 179 180 181 182 183 184 185 186 187 188 13 
6 13 189 190 191 192 10 
5 12 193 194 195 9 
50 12 196 197 198 199 200 201 202 203 204 205 206 207 208 209 210 211 212 213 214 215 216 217 218 219 220 221 222 223 224 225 226 227 228 229 230 231 232 233 234 235 236 237 238 239 240 241 242 243 0 
20 11 244 245 246 247 248 249 250 251 252 253 254 255 256 257 258 259 260 261 3 
21 9 262 263 264 265 266 267 268 269 270 271 272 273 274 275 276 277 278 279 280 4 
33 8 281 282 283 284 285 286 287 288 289 290 291 292 293 294 295 296 297 298 299 300 301 302 303 304 305 306 307 308 309 310 311 7 
3 9 312 7 
5 8 313 314 315 6 
21 7 316 317 318 319 320 321 322 323 324 325 326 327 328 329 330 331 332 333 334 4 
3 5 335 6 
12 5 336 337 338 339 340 341 342 343 344 345 4 
4 6 346 347 5 
11 5 348 349 350 351 352 353 354 355 356 2 
13 3 357 358 359 360 361 362 363 364 365 366 367 0 
19 2 368 369 370 371 372 373 374 375 376 377 378 379 380 381 382 383 384 1 
12 3 385 386 387 388 389 390 391 392 393 394 0 
10 2 395 396 397 398 399 400 401 402 1 

POINT_DATA 403
SCALARS DY_raw double
LOOKUP_TABLE default
360.715 401.325 484.499 219.861 352.303 335.516 346.178 299.874 263.703 
290.623 662.391 380.618 238.403 289.137 299.116 344.848 434.451 250.97 
249.81 347.826 314.945 266.763 449.339 418.119 407.764 416.185 406.393 
370.153 370.153 360.857 390.153 390.153 393.422 441.386 421.519 509.47 
472.601 527.134 514.672 514.672 505.117 531.22 547.275 537.79 483.037 
483.037 477.386 539.982 597.147 564.216 655.479 597.18 568.704 568.704 
391.864 360.924 350.339 326.878 290.149 319.039 327.663 354.572 329.564 
335.176 399.268 362.89 293.771 296.181 285.501 434.234 355.54 357.896 
428.686 441.464 441.464 463.034 448.236 469.787 447.333 408.063 430.518 
388.112 372.631 340.744 310.996 301.134 298.928 308.413 346.858 359.714 
313.516 326.128 342.533 330.141 331.241 370.289 366.698 315.492 352.682 
338.319 303.168 267.853 462.48 398.379 328.551 240.06 226.568 246.875 
266.91 245.197 258.89 234.032 259.449 272.632 325.758 280.69 305.621 
280.025 347.656 284.068 276.393 266.724 301.949 273.611 287.958 278.659 
284.967 339.133 345.347 394.408 251.458 253.758 250.066 226.471 230.806 
210.93 219.45 328.432 311.292 356.004 346.661 339.57 337.335 320.851 
350.887 354.855 257.127 268.716 295.426 365.023 328.773 295.887 257.982 
261.498 280.537 273.551 297.373 350.268 342.043 320.129 312.653 284.437 
304.222 338.414 388.219 462.163 561.896 660.829 565.059 548.541 542.271 
514.363 417.56 359.442 357.099 396.962 307.444 364.49 366.004 325.729 
337.084 332.086 369.11 371.871 392.014 363.779 319.078 280.825 249.427 
365.025 516.841 580.125 662.391 321.898 361.779 285.846 290.534 295.544 
254.793 250.065 267.152 294.176 272.99 229.174 233.514 233.657 235.685 
283.435 294.738 293.947 303.139 313.94 321.89 317.211 343.226 358.287 
371.411 380.123 389.498 389.185 389.185 367.57 387.422 411.407 424.403 
433.111 433.111 534.579 545.712 499.785 433.45 415.443 399.792 394.552 
406.407 458.806 450.489 475.735 496.814 464.136 368.615 331.733 322.806 
360.715 407.491 342.254 397.862 323.616 279.733 294.845 280.912 305.308 
322.399 304.913 358.665 313.417 263.739 284.209 277.416 261.266 236.005 
223.046 322.206 347.865 368.043 382.829 426.482 447.411 479.522 462.54 
383.764 399.972 423.508 428.221 451.369 459.409 480.953 415.003 394.448 
431.926 382.129 240.891 229.456 261.548 303.701 358.05 408.119 385.168 
324.281 360.852 352 263.571 274.575 249.424 286.526 286.526 361.321 
393.218 393.218 340.236 306.919 255.427 223.331 223.331 251.161 306.951 
341.905 380.842 369.255 326.57 290.082 259.336 325.672 371.952 423.926 
422.326 316.709 387.096 371.926 352.306 349.507 365.053 383.762 518.444 
473.878 527.312 604.483 666.961 666.961 695.139 695.139 630.221 456.686 
417.616 408.273 349.1 329.385 367.577 348.281 325.818 336.351 379.149 
395.012 395.012 404.12 363.527 459.945 429.123 337.764 347.762 377.192 
378.925 495.562 554.776 560.798 519.869 525.692 226.767 260.491 252.265 
312.745 354.237 309.319 332.256 327.903 279.704 259.848 351.985 441.526 
425.998 427.322 409.302 401.873 409.154 433.162 475.001 564.916 600.41 
597.204 558.161 593.703 485.85 485.85 485.818 420.577 245.229 277.137 
324.837 359.501 376.008 351.105 401.62 377.374 377.374 375.899 433.303 
450.875 439.154 513.88 546.317 546.317 464.185 436.829 
FIELD FieldData 7
DY_minmax 1 403 double
0.309339 0.393209 0.564981 0.0184437 0.291966 0.257297 0.279317 0.183689 0.108988 
0.164584 0.932368 0.350445 0.0567377 0.161515 0.182125 0.276571 0.46162 0.0826908 
0.0802969 0.282721 0.214815 0.115307 0.492368 0.427891 0.406505 0.423897 0.403674 
0.32883 0.32883 0.309633 0.370136 0.370136 0.376887 0.475943 0.434913 0.616552 
0.540409 0.653032 0.627294 0.627294 0.607563 0.66147 0.694628 0.67504 0.561961 
0.561961 0.550292 0.679567 0.797623 0.729615 0.918093 0.797692 0.738884 0.738884 
0.373669 0.309771 0.287911 0.239459 0.163605 0.223268 0.241079 0.296653 0.245005 
0.256596 0.38896 0.313832 0.171086 0.176062 0.154006 0.461173 0.298651 0.303517 
0.449715 0.476104 0.476104 0.520651 0.49009 0.534598 0.488226 0.407124 0.453499 
0.36592 0.33395 0.268096 0.206658 0.186293 0.181735 0.201324 0.280723 0.307273 
0.211864 0.237909 0.27179 0.246198 0.248469 0.329113 0.321697 0.215945 0.292751 
0.263087 0.190493 0.117559 0.519507 0.387125 0.242914 0.0601595 0.0322956 0.0742347 
0.115611 0.0707688 0.0990482 0.0477103 0.100203 0.127428 0.237146 0.144071 0.195557 
0.142696 0.28237 0.151047 0.135195 0.115228 0.187974 0.129451 0.159079 0.139877 
0.152903 0.264769 0.277601 0.378923 0.0836996 0.0884499 0.0808248 0.0320961 0.0410483 
0 0.0175962 0.242667 0.207269 0.299611 0.280316 0.265671 0.261054 0.227012 
0.289043 0.297237 0.0954081 0.119342 0.174504 0.318237 0.243372 0.175455 0.097173 
0.104435 0.143755 0.129327 0.178525 0.287764 0.270777 0.22552 0.210081 0.151809 
0.19267 0.263283 0.366142 0.518853 0.724823 0.929142 0.731356 0.697243 0.684293 
0.626656 0.426737 0.30671 0.301872 0.384197 0.199323 0.317137 0.320263 0.237086 
0.260536 0.250215 0.326678 0.332379 0.37398 0.315667 0.22335 0.144348 0.0795041 
0.31824 0.631775 0.762469 0.932368 0.229173 0.311536 0.154718 0.1644 0.174746 
0.0905879 0.0808237 0.11611 0.171922 0.128168 0.0376788 0.0466409 0.0469361 0.0511244 
0.14974 0.173082 0.171449 0.190433 0.212738 0.229157 0.219494 0.27322 0.304325 
0.33143 0.349421 0.368783 0.368137 0.368137 0.323496 0.364495 0.414029 0.440869 
0.458854 0.458854 0.668408 0.6914 0.596551 0.459554 0.422365 0.390043 0.379221 
0.403704 0.511919 0.494742 0.546882 0.590414 0.522926 0.325654 0.249486 0.23105 
0.309339 0.405942 0.271215 0.386057 0.232723 0.142095 0.173304 0.144529 0.194912 
0.230209 0.194096 0.305107 0.21166 0.109063 0.151338 0.137309 0.103954 0.0517856 
0.0250224 0.22981 0.282802 0.324474 0.35501 0.445164 0.488387 0.554703 0.519631 
0.356941 0.390415 0.439021 0.448755 0.496561 0.513165 0.557657 0.421456 0.379007 
0.456407 0.353563 0.0618773 0.0382603 0.104538 0.191593 0.303836 0.407239 0.359841 
0.234095 0.309622 0.291341 0.108716 0.131441 0.0794993 0.156123 0.156123 0.310591 
0.376465 0.376465 0.267046 0.198239 0.0918972 0.025611 0.025611 0.0830853 0.198305 
0.270492 0.350906 0.326977 0.238823 0.163467 0.0999691 0.236967 0.332546 0.439884 
0.43658 0.218458 0.363821 0.332492 0.291974 0.286193 0.318298 0.356936 0.635085 
0.543047 0.653399 0.812775 0.941806 0.941806 1 1 0.865929 0.507541 
0.426853 0.407558 0.285352 0.244637 0.323511 0.283661 0.237269 0.259023 0.34741 
0.38017 0.38017 0.39898 0.315147 0.514272 0.450616 0.261941 0.282588 0.343368 
0.346946 0.587828 0.710118 0.722555 0.638028 0.650054 0.0327067 0.102355 0.085366 
0.210272 0.29596 0.203196 0.250565 0.241575 0.142033 0.101026 0.291311 0.476231 
0.444164 0.446897 0.409682 0.394339 0.409378 0.458959 0.545366 0.731059 0.804363 
0.797742 0.71711 0.790511 0.567771 0.567771 0.567706 0.432968 0.0708344 0.136732 
0.235243 0.306832 0.340924 0.289494 0.393817 0.343745 0.343745 0.340698 0.459251 
0.49554 0.471333 0.625659 0.692649 0.692649 0.523029 0.466533 
WidthEq 1 403 double
2.12924 1.72179 1.39969 4.0134 1.91701 1.94053 1.9667 3.00119 2.6821 
2.99532 1.1038 2.53098 3.68821 3.39119 1.18308 2.82715 1.25577 3.82349 
2.56182 2.0453 2.53549 2.94921 1.67837 1.81546 1.85426 1.72738 1.66696 
1.59399 1.59399 1.50289 1.45927 1.45927 1.47648 1.28105 1.38333 1.08165 
1.22513 1.12732 1.18951 1.18951 1.21637 1.12033 1.13725 1.03743 1.21858 
1.21858 1.28946 1.09922 1.06284 1.17432 1.00892 1.21786 1.45626 1.45626 
1.97676 2.04968 2.08084 2.17897 2.34034 2.216 1.88743 1.79379 1.6635 
1.6676 1.52995 1.76505 2.4308 2.59298 2.70265 1.52372 1.52014 1.64115 
1.69068 1.69019 1.69019 1.4852 1.45802 1.44259 1.5281 1.71934 1.6672 
2.01326 2.04349 2.28273 2.51579 2.42224 2.38967 2.63089 2.40925 2.29974 
2.51623 2.60484 2.33729 2.35269 2.56303 2.57782 2.72022 3.09957 2.79282 
2.62084 2.6889 2.84062 1.53911 1.74941 2.0615 2.64825 2.68568 2.71724 
2.47675 2.05435 1.84441 1.88119 1.98998 2.29584 2.14315 2.64009 2.8766 
3.29181 2.78036 3.12393 3.15098 3.22359 2.73549 2.66019 2.38545 2.6766 
2.99235 2.44688 2.56009 2.48656 3.77649 3.51204 3.27569 2.9632 3.14298 
2.88778 2.62984 2.16699 2.20076 1.97438 1.88907 2.02367 2.31393 2.58811 
2.57376 2.65083 3.88974 3.56941 3.3653 3.03649 3.50911 3.65186 3.79515 
3.53841 3.53343 3.07737 2.79033 2.51145 2.46533 2.59736 2.65067 2.72186 
2.37556 1.87034 1.46401 1.26739 1.06199 1 1.24624 1.38638 1.39985 
1.6124 1.47459 1.86773 2.19023 2.43056 1.8338 2.24571 2.21688 2.248 
2.1875 2.33894 2.30448 2.27775 2.03722 2.1286 2.42859 2.74313 3.39935 
3.03078 2.01555 1.55692 1.1038 3.06644 2.2987 2.83737 3.32068 3.08381 
2.97072 2.82362 2.53492 2.50224 2.32543 2.41536 2.7287 2.84935 2.76882 
2.51567 2.36451 2.16209 1.93221 1.88529 1.81751 1.80734 1.80123 1.68412 
1.58309 1.54723 1.47672 1.60191 1.60191 1.5215 1.49811 1.48826 1.35117 
1.30747 1.30747 1.10432 1.05094 1.14063 1.23458 1.23969 1.18541 1.29324 
1.39097 1.35438 1.34088 1.30007 1.29106 1.32825 1.56697 1.8063 1.89466 
2.12924 2.44957 2.7535 2.72134 3.08433 3.32598 3.33616 3.27219 3.11717 
3.04867 3.1222 2.88034 3.13514 3.21836 3.22685 3.17137 3.13945 3.56073 
4.06028 2.78595 2.53661 2.29283 2.08273 1.64553 1.4456 1.42164 1.33227 
1.55395 1.55238 1.47973 1.62909 1.65554 1.58675 1.5876 1.76883 1.61473 
1.59226 1.8935 2.78108 2.6181 2.24631 1.93921 1.65465 1.6169 1.65164 
1.92176 1.87536 1.88148 2.12804 2.15103 1.95983 1.75649 1.75649 1.44367 
1.42112 1.42112 1.74117 1.82455 1.96204 1.94809 1.94809 1.9214 1.716 
1.6766 1.56766 1.64452 1.89812 2.09837 2.58329 2.67539 1.91557 1.70185 
1.7585 3.02451 2.46172 2.14255 2.10408 1.9946 1.95517 1.92851 1.49642 
1.57441 1.50112 1.33959 1.07257 1.07257 1.02702 1.02702 1.13544 1.52814 
1.61059 1.69313 1.87894 1.88357 1.67608 1.70804 1.91223 1.94154 1.86813 
1.85587 1.85587 1.80513 1.89378 1.69944 1.80489 1.93949 1.92847 1.62567 
1.51009 1.1678 1.08977 1.13395 1.27965 1.32355 3.75346 2.95737 2.7412 
2.2989 2.17383 2.38549 2.18894 2.36326 2.5621 2.67402 2.21909 1.46225 
1.41308 1.35635 1.43459 1.52874 1.5162 1.52319 1.49871 1.4138 1.3894 
1.36387 1.41083 1.30313 1.4651 1.4651 1.5057 1.77779 3.41632 2.899 
2.44809 2.303 2.0812 2.17194 1.94853 2.06407 2.06407 2.25797 1.47077 
1.40906 1.41308 1.26345 1.22469 1.22469 1.45155 1.63986 
rRFP 1 403 double
2776.84 2675.49 2595.37 3245.51 2724.05 2729.9 2736.41 2993.73 2914.36 
2992.27 2521.77 2876.77 3164.62 3090.74 2541.49 2950.44 2559.57 3198.27 
2884.44 2755.96 2877.89 2980.8 2664.69 2698.79 2708.44 2676.88 2661.85 
2643.7 2643.7 2621.04 2610.19 2610.19 2614.47 2565.86 2591.3 2516.26 
2551.95 2527.62 2543.09 2543.09 2549.77 2525.88 2530.09 2505.26 2550.32 
2550.32 2567.95 2520.63 2511.58 2539.31 2498.17 2550.14 2609.44 2609.44 
2738.91 2757.05 2764.8 2789.21 2829.35 2798.42 2716.69 2693.4 2660.99 
2662.01 2627.77 2686.25 2851.85 2892.19 2919.47 2626.22 2625.33 2655.43 
2667.75 2667.63 2667.63 2616.64 2609.88 2606.04 2627.31 2674.88 2661.91 
2747.99 2755.51 2815.02 2872.99 2849.72 2841.62 2901.62 2846.49 2819.25 
2873.1 2895.14 2828.59 2832.42 2884.74 2888.42 2923.84 3018.2 2941.9 
2899.12 2916.05 2953.79 2630.05 2682.36 2759.99 2905.94 2915.25 2923.1 
2863.28 2758.21 2705.99 2715.14 2742.2 2818.28 2780.3 2903.91 2962.74 
3066.02 2938.8 3024.26 3030.99 3049.05 2927.64 2908.91 2840.57 2912.99 
2991.53 2855.85 2884.01 2865.72 3186.58 3120.8 3062.01 2984.28 3029 
2965.52 2901.36 2786.23 2794.63 2738.32 2717.1 2750.58 2822.78 2890.98 
2887.41 2906.58 3214.75 3135.07 3084.3 3002.51 3120.07 3155.58 3191.22 
3127.36 3126.12 3012.68 2941.28 2871.91 2860.44 2893.28 2906.54 2924.25 
2838.11 2712.44 2611.37 2562.46 2511.37 2495.95 2557.2 2592.06 2595.41 
2648.28 2614 2711.79 2792.01 2851.79 2703.35 2805.81 2798.64 2806.38 
2791.33 2829 2820.43 2813.78 2753.95 2776.68 2851.3 2929.54 3092.77 
3001.09 2748.56 2634.48 2521.77 3009.96 2818.99 2952.98 3073.2 3014.28 
2986.15 2949.56 2877.75 2869.62 2825.64 2848.01 2925.95 2955.96 2935.93 
2872.96 2835.36 2785.01 2727.83 2716.16 2699.3 2696.77 2695.25 2666.12 
2640.99 2632.07 2614.53 2645.67 2645.67 2625.67 2619.85 2617.4 2583.3 
2572.43 2572.43 2521.9 2508.62 2530.93 2554.3 2555.57 2542.07 2568.89 
2593.2 2584.1 2580.74 2570.59 2568.35 2577.6 2636.98 2696.51 2718.49 
2776.84 2856.52 2932.12 2924.12 3014.41 3074.52 3077.05 3061.14 3022.58 
3005.54 3023.83 2963.67 3027.05 3047.75 3049.86 3036.06 3028.12 3132.91 
3257.17 2940.19 2878.17 2817.53 2765.27 2656.52 2606.79 2600.83 2578.6 
2633.74 2633.35 2615.28 2652.43 2659.01 2641.9 2642.11 2687.19 2648.86 
2643.27 2718.2 2938.98 2898.44 2805.96 2729.57 2658.79 2649.4 2658.04 
2725.23 2713.69 2715.21 2776.54 2782.26 2734.7 2684.12 2684.12 2606.31 
2600.7 2600.7 2680.31 2701.05 2735.25 2731.78 2731.78 2725.14 2674.05 
2664.25 2637.15 2656.27 2719.35 2769.16 2889.78 2912.69 2723.69 2670.53 
2684.62 2999.53 2859.54 2780.15 2770.58 2743.35 2733.54 2726.91 2619.43 
2638.83 2620.6 2580.42 2514 2514 2502.67 2502.67 2529.64 2627.32 
2647.83 2668.36 2714.58 2715.73 2664.12 2672.07 2722.86 2730.15 2711.89 
2708.84 2708.84 2696.22 2718.27 2669.93 2696.16 2729.64 2726.9 2651.58 
2622.83 2537.69 2518.28 2529.27 2565.51 2576.43 3180.85 2982.83 2929.06 
2819.04 2787.93 2840.58 2791.69 2835.05 2884.51 2912.35 2799.19 2610.93 
2598.7 2584.59 2604.05 2627.47 2624.35 2626.09 2620 2598.88 2592.81 
2586.46 2598.14 2571.35 2611.64 2611.64 2621.74 2689.42 3096.99 2968.31 
2856.15 2820.06 2764.89 2787.46 2731.89 2760.63 2760.63 2808.86 2613.05 
2597.7 2598.7 2561.48 2551.84 2551.84 2608.27 2655.11 
rGFP 1 403 double
3070.91 2993.86 2981.01 3185.25 2978.23 2953.94 2983.69 3202.84 3010.14 
3173.37 3034.01 3266.2 3182.14 3283.38 2656.74 3277.8 2848.43 3262.44 
2942.83 3014.27 3101.4 3089.6 3057.02 3061.94 3058.96 3021.77 2980.3 
2892.88 2892.88 2845.19 2872.2 2872.2 2883.74 2868.3 2885.96 2853.93 
2881.86 2897.11 2915.07 2915.07 2917.27 2898 2925.25 2860.78 2891.48 
2891.48 2918.43 2896.42 2937.53 2965.43 2964.19 3030.14 3131.04 3131.04 
3077.48 3042.64 3031.86 3015.12 2981.91 3009.85 2921.3 2938.89 2851.09 
2861.8 2913.72 2943.38 3016.96 3070.85 3074.47 2964.51 2843.33 2890.22 
3027.63 3049.02 3049.02 2990.56 2956.4 2980.57 2986.43 3004.46 3020.62 
3084.23 3064.33 3080.69 3085.26 3032.28 3017.2 3114.26 3138.53 3130.11 
3091.74 3152.37 3103.46 3079.58 3151.84 3257.4 3300.36 3280.75 3287.84 
3189.54 3118.05 3063.73 3014.67 2999.79 2980.17 2938.6 2911.35 2973.68 
2963.93 2806.58 2780.36 2743.12 2819.16 2928.78 3001.01 3043.91 3182.01 
3224.65 3269.47 3190.27 3173.77 3162.67 3128.84 3030.72 2989.77 3048.72 
3155.58 3132.68 3186.98 3283.58 3252.49 3194.07 3122 2973.94 3028.28 
2911.98 2879.98 3014.57 2987.94 3005.75 2957.73 2990.04 3083.43 3133.26 
3205.96 3243.52 3303.02 3262.02 3297.06 3411.25 3456.56 3383.4 3281.94 
3228.15 3294.12 3144.68 3132.63 3182.54 3146.11 3134.35 3131.6 3077.06 
3025.56 2935.81 2871.22 2888.6 2899.59 2963.69 3007.06 3063.35 3061.96 
3132.22 2918.59 2974.2 3084.99 3267.7 2866.65 3121.4 3114.25 3035.1 
3040.23 3079.59 3153.47 3149.89 3101.48 3077.2 3077.77 3073.2 3150.75 
3409.17 3344.58 3206.07 3034.01 3289.94 3134.48 3113.91 3267.63 3214.26 
3059.78 3008.95 2980.07 3038.96 2937.68 2856.4 2940.05 2968.63 2955.43 
3015.89 2999.77 2938.4 2888.59 2894.73 2887.9 2876.17 2921.09 2906.26 
2890.84 2891 2878.04 2926.3 2926.3 2862.12 2883.26 2915.14 2876.3 
2869.14 2869.14 2893.21 2876.37 2872.93 2837.99 2817.88 2776.78 2813.11 
2868.16 2924.26 2906.91 2921.35 2944.28 2919.35 2880.47 2902.07 2914.47 
3070.91 3301.04 3245.26 3385.58 3301 3233.25 3286.51 3222.06 3254.56 
3285.75 3254.86 3335.94 3285.47 3151.67 3219.96 3182.65 3123.09 3143.21 
3208.49 3200.51 3185.26 3146.72 3100.19 3004.65 2949.64 2984.57 2919.09 
2899.21 2923.77 2929.54 3000.47 3050.12 3031.83 3066.42 3036.93 2939.79 
2990.6 3026.42 2972.8 2903.6 2890.38 2891.8 2895.31 2962.75 2939.02 
2926.05 2979.59 2965.14 2863.75 2893.48 2791.69 2806.14 2806.14 2824.49 
2861.67 2861.67 2895.27 2862.85 2804.02 2737.93 2737.93 2785.44 2829.59 
2876.1 2899.89 2910.11 2922.73 2911.56 2972.8 3174.16 3015.36 3024.32 
3045.52 3260.75 3255.78 3099.73 3044.14 2999.99 3016.6 3042.95 3078.67 
3048.94 3094.42 3112.62 3018.22 3018.22 3016.78 3016.78 3018.44 3000.74 
2975.47 2994.12 2958.8 2923.28 2918.95 2897.74 2925.9 2955.9 3011.16 
3035.95 3035.95 3032.35 2991.3 3084.51 3077.38 2957.95 2973.51 2916.05 
2875.07 2881.58 2907.44 2938.78 2968.11 2998.64 3154.02 3073.23 2994.37 
3021.83 3072.91 3040.74 3030.15 3077.78 3019.49 2997.7 3083.95 2948.48 
2904.83 2882.46 2890.04 2917.22 2923.22 2962.65 3014.75 3101.54 3137.07 
3117.37 3090.33 3076.53 3014.68 3014.68 3034.36 3050.56 3140.64 3106.28 
3098.09 3130.79 3085.41 3065.44 3085.43 3081.79 3081.79 3151.63 2940.15 
2938.17 2923.42 2952.12 2971.93 2971.93 2976.65 3019.2 
bkstRFP 1 403 double
529.632 428.282 348.162 998.302 476.842 482.692 489.202 746.522 667.152 
745.062 274.562 629.562 917.412 843.532 294.282 703.232 312.362 951.062 
637.232 508.752 630.682 733.592 417.482 451.582 461.232 429.672 414.642 
396.492 396.492 373.832 362.982 362.982 367.262 318.652 344.092 269.052 
304.742 280.412 295.882 295.882 302.562 278.672 282.882 258.052 303.112 
303.112 320.742 273.422 264.372 292.102 250.962 302.932 362.232 362.232 
491.702 509.842 517.592 542.002 582.142 551.212 469.482 446.192 413.782 
414.802 380.562 439.042 604.642 644.982 672.262 379.012 378.122 408.222 
420.542 420.422 420.422 369.432 362.672 358.832 380.102 427.672 414.702 