# vtk DataFile Version 3.0
vtk output
ASCII
DATASET POLYDATA
POINTS 466 float
1.33579 -0.443811 1.46175 1.00309 -0.119945 1.2544 1.3665 -0.345759 1.25793 
1.95617 1.21271 1.00978 0.560758 -1.00854 0.448225 -0.36631 0.997202 0.333488 
2.03319 -0.679546 0.305603 -0.346622 -0.909023 -0.00344648 -0.829044 0.0130804 -0.274036 
4.56685 0.104076 -0.207104 1.43845 -1.17178 -0.368271 -0.146087 -1.09876 -0.518583 
5.05591 0.0622437 -0.547965 3.5392 0.513974 -0.479745 2.79653 0.430589 -0.513036 
-1.02243 -0.246035 -0.671919 4.88112 -0.346855 -0.636715 4.38434 0.639229 -0.777532 
1.81592 1.67055 -0.824514 -0.838184 -0.234525 -0.903805 -0.78053 0.371411 -0.890879 
-0.867773 0.499757 -0.901648 4.64091 0.38034 -0.885422 4.46615 0.266882 -0.821761 
4.10453 1.00637 -0.876697 0.869908 -1.29078 -0.925681 0.242884 -1.12437 -1.16604 
5.34142 0.341157 -1.316 5.17267 0.62074 -1.20472 2.49008 0.624269 -1.34009 
5.14947 0.159008 -1.6508 4.87224 0.309949 -1.53859 1.37261 1.37872 -1.83487 
2.09095 0.396027 -1.95038 1.20016 1.29144 -2.03973 -0.0838873 0.229041 -2.0517 
4.58273 -0.0828216 -2.00152 0.024505 0.0514048 -2.23792 0.119497 0.193241 -2.44067 
0.128368 0.138303 -2.37066 0.0879185 0.0926845 -2.30361 0.178315 0.240725 -2.37323 
0.22751 0.288545 -2.34342 0.253915 0.339189 -2.35203 0.280694 0.389466 -2.36803 
0.332122 0.435085 -2.38255 0.395145 0.478514 -2.39639 0.460434 0.521218 -2.4175 
0.525437 0.56416 -2.4312 0.589706 0.605575 -2.43744 0.651364 0.635658 -2.43583 
0.707936 0.639164 -2.43315 0.76227 0.630972 -2.43001 0.816262 0.620994 -2.42679 
0.870554 0.612585 -2.42364 0.926381 0.612195 -2.4208 0.983197 0.616977 -2.41818 
1.03467 0.593808 -2.41443 1.08898 0.585518 -2.41128 1.14767 0.600095 -2.40905 
1.20386 0.601609 -2.40629 1.25854 0.595202 -2.40322 1.31475 0.596815 -2.40047 
1.37378 0.613197 -2.39831 1.4296 0.615068 -2.38816 1.4828 0.607868 -2.36284 
1.53493 0.599724 -2.32268 1.58736 0.593149 -2.28259 1.64207 0.59386 -2.25758 
1.69812 0.599268 -2.24018 1.74811 0.575305 -2.21419 1.7983 0.557042 -2.17362 
1.84966 0.544883 -2.1333 1.89987 0.522079 -2.10736 1.94575 0.474352 -2.08783 
1.99127 0.426993 -2.0609 2.04038 0.405397 -2.0128 0.0649218 0.24563 -2.31236 
-0.00113169 0.25875 -2.18267 0.0407299 -0.00759082 -2.23417 0.0270269 -0.0609313 -2.23221 
0.0194938 -0.115142 -2.22247 -0.0223015 -0.162285 -2.19997 -0.0853915 -0.204218 -2.14908 
-0.153561 -0.244006 -2.06886 -0.223406 -0.28218 -1.9591 -0.293633 -0.317726 -1.83463 
-0.361622 -0.341573 -1.71063 -0.424152 -0.33921 -1.59509 -0.4837 -0.325882 -1.49478 
-0.542884 -0.310661 -1.39456 -0.602082 -0.295384 -1.29583 -0.664066 -0.278869 -1.17947 
-0.73839 -0.259429 -1.04903 -0.0275384 0.132098 -2.14059 4.64355 -0.035716 -1.93396 
4.70296 0.0113604 -1.87389 4.75283 0.0599414 -1.82181 4.78624 0.111507 -1.77566 
4.82294 0.164355 -1.71455 4.84724 0.228351 -1.63482 -0.166116 0.261938 -1.95352 
-0.232711 0.282889 -1.8688 -0.29162 0.299834 -1.79093 -0.347855 0.32391 -1.71327 
-0.403801 0.353742 -1.62104 -0.465438 0.353836 -1.52761 -0.526478 0.359362 -1.427 
-0.586005 0.372798 -1.3267 -0.64669 0.387117 -1.20423 -0.710692 0.391046 -1.05913 
1.25376 1.30026 -1.97063 1.31209 1.33374 -1.90252 5.25907 0.227698 -1.48531 
5.21071 0.0492887 -1.70662 5.20469 -0.0210809 -1.74056 5.18672 -0.0755917 -1.73629 
5.17047 -0.126686 -1.68754 5.14462 -0.174766 -1.61219 5.10289 -0.218956 -1.51557 
5.07592 -0.265936 -1.41806 5.05659 -0.314064 -1.31268 5.0289 -0.360159 -1.20288 
4.98292 -0.39673 -1.05734 4.93916 -0.403797 -0.866109 4.95216 0.264444 -1.57687 
5.03572 0.223395 -1.61517 4.80219 0.368946 -1.35198 4.72548 0.378678 -1.13356 
5.09607 0.128406 -1.27944 5.06549 0.0952775 -0.911756 2.46005 0.685872 -1.34467 
2.44272 0.745374 -1.34107 2.40968 0.808438 -1.32359 2.36571 0.874453 -1.28453 
2.31959 0.941174 -1.23817 2.27374 1.00755 -1.19923 2.229 1.07282 -1.18245 
2.185 1.13736 -1.18044 2.14138 1.20153 -1.18583 2.09776 1.26571 -1.19121 
2.05414 1.32988 -1.1966 2.01014 1.39442 -1.19459 1.96503 1.46006 -1.17042 
1.91768 1.5279 -1.10192 1.86773 1.59831 -0.981683 5.22622 0.608436 -1.20141 
5.27764 0.584173 -1.20257 5.32203 0.530504 -1.21746 5.34895 0.450991 -1.25672 
5.40652 0.295534 -1.07531 5.42652 0.24822 -0.878867 5.42621 0.198982 -0.730395 
5.38246 0.15767 -0.621637 5.31963 0.129361 -0.533053 5.25523 0.11545 -0.486105 
5.17342 0.0893117 -0.49264 0.184841 -1.12631 -1.13917 0.123179 -1.14022 -1.08961 
0.0627245 -1.13759 -1.00862 0.00115957 -1.12348 -0.883706 -0.0667762 -1.10864 -0.717071 
0.920527 -1.29756 -0.855957 0.973723 -1.30476 -0.830643 1.03103 -1.30436 -0.85005 
1.09195 -1.28971 -0.88484 1.14925 -1.28704 -0.896942 1.20507 -1.2828 -0.879481 
1.26169 -1.26154 -0.820751 1.31595 -1.24211 -0.717498 1.37381 -1.20781 -0.560336 
4.15586 0.982477 -0.872923 4.20433 0.943605 -0.868551 4.25331 0.908022 -0.864316 
4.2972 0.856059 -0.857048 4.32939 0.795021 -0.842491 4.34805 0.72717 -0.815906 
4.45284 0.555832 -0.804595 4.50786 0.484905 -0.830482 4.5651 0.425579 -0.856832 
4.49971 0.212613 -0.616875 4.53328 0.158345 -0.411989 4.69116 0.291835 -0.846315 
4.73872 0.230644 -0.818605 4.78773 0.194079 -0.804415 4.83582 0.155662 -0.788946 
4.88845 0.133137 -0.750519 4.95636 0.109711 -0.667959 -0.823779 0.435217 -0.903655 
-0.795808 0.322222 -0.792667 -0.813135 0.273716 -0.687173 -0.838477 0.226725 -0.582158 
-0.868027 0.179936 -0.492213 -0.865228 0.126442 -0.415151 -0.855513 0.0713441 -0.345099 
-0.939359 -0.226892 -0.79195 -0.867703 -0.124593 -0.690941 -0.865497 -0.0464484 -0.480847 
-0.850781 -0.319246 -0.687854 -0.832593 -0.385355 -0.499486 -0.798092 -0.444602 -0.362627 
-0.76029 -0.504763 -0.281996 -0.730223 -0.564892 -0.240363 -0.714654 -0.622578 -0.207011 
-0.684938 -0.682233 -0.158001 -0.645433 -0.741478 -0.101079 -0.601178 -0.790194 -0.0593074 
-0.550214 -0.815993 -0.055458 -0.497397 -0.841365 -0.0812408 -0.447433 -0.879335 -0.0991128 
-0.396838 -0.900128 -0.0732555 1.87197 1.70139 -0.726679 1.92105 1.69812 -0.620085 
1.96509 1.66624 -0.519741 2.01121 1.63594 -0.449086 2.05786 1.59685 -0.41509 
2.10692 1.56341 -0.403529 2.15504 1.52274 -0.399085 2.20411 1.48704 -0.394839 
2.24999 1.43467 -0.389927 2.29387 1.37241 -0.384625 2.33562 1.30871 -0.379358 
2.36755 1.24674 -0.374673 2.38461 1.18759 -0.370877 2.41654 1.12563 -0.366191 
2.45827 1.06181 -0.36092 2.50215 0.997291 -0.362934 2.54689 0.932018 -0.379714 
2.59264 0.865665 -0.418666 2.63698 0.799282 -0.465125 2.67103 0.735138 -0.504776 
2.68731 0.675243 -0.523257 2.70792 0.615122 -0.526662 2.72309 0.556326 -0.522979 
2.75491 0.494383 -0.5183 1.76593 1.72458 -0.75546 1.71238 1.76232 -0.678339 
1.65755 1.79568 -0.593656 1.5989 1.80675 -0.515468 1.54368 1.83574 -0.438007 
1.48418 1.84701 -0.345034 1.41692 1.82696 -0.221184 1.34859 1.80597 -0.082494 
1.28608 1.80843 0.0330492 1.22763 1.82055 0.111185 1.17069 1.83131 0.159761 
1.11189 1.83237 0.208725 1.05023 1.81846 0.258297 0.991419 1.81714 0.29995 
0.932994 1.8132 0.326905 0.869827 1.78449 0.354851 0.803697 1.7449 0.398034 
0.736831 1.7038 0.448694 0.670317 1.66221 0.491957 0.604921 1.61953 0.513056 
0.540004 1.57646 0.526779 0.476501 1.53342 0.547991 0.42168 1.48963 0.591953 
0.381357 1.44339 0.644206 0.326536 1.3996 0.688168 0.263033 1.35656 0.70938 
0.198489 1.31312 0.715712 0.134582 1.26897 0.707254 0.0714194 1.22408 0.684023 
0.00900233 1.17847 0.64601 -0.0533948 1.13296 0.608001 -0.115802 1.08971 0.577299 
-0.175631 1.05762 0.536889 -0.231228 1.04921 0.471378 -0.294138 1.03967 0.388862 
4.3109 0.591573 -0.588272 4.27187 0.544547 -0.431956 4.24185 0.497649 -0.329658 
4.19999 0.451973 -0.272568 4.16314 0.406155 -0.242447 4.11141 0.373307 -0.213719 
4.05187 0.357933 -0.171405 3.98696 0.328772 -0.113821 3.92027 0.289778 -0.0558384 
3.85779 0.247545 -0.0123295 3.81979 0.199684 0.0104066 3.83527 0.141422 0.0289262 
3.87378 0.079216 0.0562411 3.9157 0.01881 0.0984747 3.95972 -0.0317217 0.140335 
4.00769 -0.0662248 0.166741 4.0558 -0.104622 0.1785 4.10749 -0.126623 0.182197 
4.16145 -0.139078 0.178107 4.2165 -0.150481 0.159172 4.27269 -0.162876 0.118068 
4.32922 -0.175746 0.0695665 4.38505 -0.190036 0.0285384 4.43825 -0.213396 0.0026752 
4.4886 -0.251625 -0.022593 4.54255 -0.275728 -0.0632288 4.59912 -0.290751 -0.11904 
4.65697 -0.304818 -0.192167 4.71772 -0.319855 -0.294794 4.78942 -0.33494 -0.446371 
4.91595 -0.265632 -0.502842 4.95541 -0.203315 -0.39256 4.9847 -0.148598 -0.323254 
5.01291 -0.0952008 -0.317064 5.02212 -0.0276905 -0.397916 -0.228537 -1.04697 -0.35699 
-0.291896 -0.98135 -0.185216 2.85086 0.422396 -0.509891 2.90705 0.4239 -0.507133 
2.96609 0.440283 -0.504971 3.02228 0.441787 -0.502214 3.07698 0.433228 -0.50646 
3.13206 0.424302 -0.518088 3.18939 0.424814 -0.5375 3.24918 0.442822 -0.542809 
3.3076 0.458295 -0.533204 3.36812 0.489371 -0.509422 3.42867 0.518284 -0.492958 
3.48485 0.522058 -0.482886 2.74121 0.388965 -0.417217 2.70414 0.342709 -0.349962 
2.67547 0.293382 -0.319255 2.67941 0.237004 -0.308828 2.67661 0.181898 -0.298805 
2.65515 0.130913 -0.27508 2.61424 0.0844919 -0.230287 2.57792 0.0375007 -0.177795 
2.53679 -0.00887973 -0.133014 2.51203 -0.0595365 -0.11689 2.48847 -0.111313 -0.122935 
2.4526 -0.161354 -0.144535 2.43095 -0.213489 -0.150466 2.41825 -0.266722 -0.141035 
2.40443 -0.318855 -0.10944 2.38044 -0.36877 -0.0710481 2.33895 -0.414785 -0.0188754 
2.30073 -0.461417 0.0335025 2.24753 -0.505221 0.0849761 2.19462 -0.549373 0.129052 
2.15439 -0.595627 0.1813 2.09882 -0.638686 0.240046 -0.0956975 -1.12563 -0.286982 
-0.0478875 -1.13695 -0.105796 0.000640546 -1.14285 0.0132831 0.0506445 -1.14921 0.0953364 
0.101637 -1.15636 0.157669 0.153716 -1.16246 0.205148 0.208436 -1.15938 0.237457 
0.266345 -1.13964 0.269099 0.322559 -1.12413 0.315714 0.379734 -1.10128 0.369451 
0.436331 -1.08377 0.415985 0.497234 -1.05069 0.439687 1.35667 -1.17478 -0.169268 
1.28753 -1.16626 -0.00238009 1.22397 -1.16261 0.122956 1.16066 -1.1749 0.204535 
1.10186 -1.17383 0.253498 1.04643 -1.16443 0.272514 0.992089 -1.15398 0.276684 
0.938138 -1.14379 0.273459 0.883815 -1.13322 0.277626 0.828747 -1.12193 0.296565 
0.772562 -1.10953 0.337669 0.716025 -1.09666 0.38617 0.660224 -1.08227 0.427194 
0.607758 -1.05737 0.445589 1.52421 -1.13461 -0.303911 1.58548 -1.13479 -0.233977 
1.63534 -1.15201 -0.161307 1.69138 -1.13007 -0.0902583 1.75156 -1.08689 -0.0225323 
1.81271 -1.04036 0.0376478 1.87276 -0.994 0.0829237 1.92222 -0.946528 0.105336 
1.94587 -0.89477 0.111386 1.95794 -0.840824 0.116745 1.96889 -0.785776 0.144268 
1.98946 -0.731066 0.209416 -0.789093 -0.0101397 -0.0777985 -0.738956 0.0152524 0.101692 
-0.682892 0.0623585 0.250699 -0.624611 0.111805 0.369998 -0.564908 0.160012 0.459726 
-0.506353 0.207841 0.534558 -0.45912 0.257514 0.601309 -0.437704 0.311473 0.651689 
-0.426491 0.366173 0.671815 -0.414938 0.419031 0.647497 -0.402374 0.470808 0.600999 
-0.389811 0.522585 0.55451 -0.378473 0.575484 0.53018 -0.369665 0.629453 0.520517 
-0.370656 0.685274 0.510267 -0.385872 0.74319 0.484349 -0.386791 0.797552 0.435189 
-0.386686 0.853202 0.376742 -0.394764 0.920973 0.330274 -0.290929 -0.85691 0.167569 
-0.23446 -0.807684 0.316492 -0.17877 -0.769472 0.443636 -0.125153 -0.749023 0.549293 
-0.0705846 -0.723609 0.65474 -0.0169569 -0.705422 0.753081 0.037984 -0.680375 0.851137 
0.093091 -0.661394 0.927237 0.152484 -0.626957 0.980501 0.21488 -0.586077 1.00389 
0.275389 -0.55737 1.02037 0.328616 -0.566723 1.03837 0.374862 -0.612555 1.05783 
0.421871 -0.663653 1.04788 0.473468 -0.704065 0.993078 0.522168 -0.760929 0.901824 
0.558045 -0.826122 0.795481 0.567017 -0.888083 0.687612 0.564647 -0.948308 0.571676 
1.98099 -0.607045 0.470168 1.92953 -0.537538 0.612645 1.87733 -0.481197 0.726033 
1.82153 -0.4529 0.810928 1.76424 -0.437035 0.881508 1.70696 -0.423432 0.944783 
1.65005 -0.410195 1.00067 1.59423 -0.395905 1.04169 1.54101 -0.372643 1.06756 
1.4899 -0.336049 1.1003 1.43223 -0.324458 1.16365 1.91438 1.25641 0.908966 
1.86637 1.27679 0.838708 1.81353 1.28589 0.813308 1.75634 1.2832 0.825416 
1.69434 1.25496 0.868244 1.63954 1.21354 0.919528 1.5996 1.16704 0.964374 
1.54553 1.12252 0.993563 1.48165 1.07984 1.02217 1.41525 1.03824 1.06544 
1.34873 0.996658 1.10871 1.28334 0.953974 1.12981 1.22017 0.90909 1.10658 
1.15824 0.863085 1.06118 1.09771 0.81711 1.02329 1.04523 0.771096 1.02293 
1.00765 0.72375 1.06051 0.966156 0.677736 1.11269 0.941793 0.628188 1.15847 
0.928454 0.575668 1.18268 0.917645 0.522077 1.19223 0.907316 0.468098 1.19439 
0.896987 0.41412 1.19654 0.886658 0.360141 1.1987 0.876437 0.306143 1.20087 
0.868002 0.251807 1.20314 0.869474 0.195599 1.20601 0.8877 0.136225 1.20987 
0.902522 0.0775914 1.21724 0.932896 0.0152829 1.22929 0.968255 -0.0518461 1.24554 
1.05801 -0.166471 1.25576 1.11349 -0.198642 1.24901 1.16342 -0.23705 1.24601 
1.21534 -0.259303 1.24602 1.26854 -0.273393 1.2494 1.31987 -0.297298 1.25317 
1.35133 -0.394968 1.35615 
LINES 41 552
4 38 39 40 37 
38 38 41 42 43 44 45 46 47 48 49 50 51 52 53 54 55 56 57 58 59 60 61 62 63 64 65 66 67 68 69 70 71 72 73 74 75 76 33 
4 38 77 78 35 
17 37 79 80 81 82 83 84 85 86 87 88 89 90 91 92 93 19 
3 37 94 35 
8 36 95 96 97 98 99 100 31 
12 35 101 102 103 104 105 106 107 108 109 110 20 
4 34 111 112 32 
3 30 113 27 
13 30 114 115 116 117 118 119 120 121 122 123 124 16 
4 31 125 126 30 
4 31 127 128 22 
4 30 129 130 12 
17 29 131 132 133 134 135 136 137 138 139 140 141 142 143 144 145 18 
6 28 146 147 148 149 27 
9 27 150 151 152 153 154 155 156 12 
7 26 157 158 159 160 161 11 
11 25 162 163 164 165 166 167 168 169 170 10 
8 24 171 172 173 174 175 176 17 
5 17 177 178 179 22 
4 23 180 181 9 
8 22 182 183 184 185 186 187 12 
3 21 188 20 
8 20 189 190 191 192 193 194 8 
3 19 195 15 
4 19 196 197 8 
15 19 198 199 200 201 202 203 204 205 206 207 208 209 210 7 
26 18 211 212 213 214 215 216 217 218 219 220 221 222 223 224 225 226 227 228 229 230 231 232 233 234 14 
32 17 270 271 272 273 274 275 276 277 278 279 280 281 282 283 284 285 286 287 288 289 290 291 292 293 294 295 296 297 298 299 16 
7 16 300 301 302 303 304 12 
4 11 305 306 7 
14 14 307 308 309 310 311 312 313 314 315 316 317 318 13 
24 14 319 320 321 322 323 324 325 326 327 328 329 330 331 332 333 334 335 336 337 338 339 340 6 
14 11 341 342 343 344 345 346 347 348 349 350 351 352 4 
16 10 353 354 355 356 357 358 359 360 361 362 363 364 365 366 4 
14 10 367 368 369 370 371 372 373 374 375 376 377 378 6 
21 7 398 399 400 401 402 403 404 405 406 407 408 409 410 411 412 413 414 415 416 4 
13 6 417 418 419 420 421 422 423 424 425 426 427 2 
3 2 465 0 
57 18 235 236 237 238 239 240 241 242 243 244 245 246 247 248 249 250 251 252 253 254 255 256 257 258 259 260 261 262 263 264 265 266 267 268 269 5 397 396 395 394 393 392 391 390 389 388 387 386 385 384 383 382 381 380 379 8 
40 3 428 429 430 431 432 433 434 435 436 437 438 439 440 441 442 443 444 445 446 447 448 449 450 451 452 453 454 455 456 457 458 1 459 460 461 462 463 464 2 

POINT_DATA 466
SCALARS DY_raw double
LOOKUP_TABLE default
962.585 386.906 684.825 901.86 438.512 429.921 483.935 404.313 498.923 
732.044 465.606 431.489 486.822 649.888 400.51 495.666 525.857 447.321 
377.656 432.428 407.231 332.86 490.918 451.873 493.945 383.159 425.626 
438.779 387.666 601.337 427.952 400.664 392.163 653.822 292.835 414.011 
495.633 313.96 221.927 285.713 297.865 300.775 413.406 417.534 446.856 
454.203 402.195 393.572 356.734 359.17 392.662 395.516 395.516 401.958 
418.181 418.181 438.491 449.681 449.681 443.473 443.473 378.137 348.712 
348.712 341.06 391.054 348.9 410.302 440.255 440.255 368.531 380.452 
437.992 413.784 449.114 498.251 547.544 262.001 306.068 373.522 395.207 
448.263 380.261 358.47 419.494 340.377 326.741 369.918 334.515 304.883 
393.389 371.655 373.919 389.016 349.172 514.008 456.57 509.344 474.498 
445.656 433.188 408.375 410.891 395.887 400.304 496.602 476.367 406.117 
435.095 505.304 464.561 355.178 342.522 459.517 394.392 370.267 372.625 
371.203 387.172 396.338 398.164 390.706 403.179 439.975 545.857 418.527 
445.792 461.502 464.443 553.05 563.822 552.39 552.677 510.387 558.429 
541.386 573.921 550.662 520.063 482.354 464.129 401.161 401.161 329.391 
323.132 375.795 362.562 362.562 348.815 351.06 552.624 647.298 672.986 
629.94 598.31 539.85 494.214 385.061 368.324 337.546 385.931 433.166 
378.452 392.089 429.799 405.548 370.935 362.705 381.853 399.683 488.876 
493.945 461.139 425.45 389.915 369.526 386.343 486.92 515.761 497.366 
424.025 536.338 528.803 520.493 507.371 499.163 498.552 492.199 407.231 
424.741 370.334 401.647 392.048 439.191 472.34 438.154 484.347 470.567 
598.052 607.938 536.023 486.067 449.284 450.727 431.716 402.606 435.52 
351.81 398.356 366.858 358.732 357.572 340.034 343.355 381.569 381.569 
444.528 437.256 448.79 480.263 499.574 487.905 526.525 539.133 565.125 
636.98 637.022 651.868 654.404 588.301 497.995 462.03 462.03 409.257 
400.51 356.171 329.012 364.984 373.924 369.623 363.746 415.218 399.201 
426.93 570.435 458.228 483.008 377.535 381.556 381.556 380.273 314.774 
370.105 355.42 386.067 386.067 371.451 402.44 386.934 388.738 414.643 
414.643 500.791 601.944 561.803 569.008 500.515 542.943 509.88 471.814 
475.965 534.54 541.005 554.309 504.018 447.709 469.208 472.791 505.108 
504.858 499.725 535.56 539.2 571.204 567.393 566.308 566.308 545.16 
550.462 526.498 555.16 588.084 540.203 600.948 600.948 598.537 585.447 
509.151 521.34 565.808 619.277 662.943 655.27 601.984 558.072 372.243 
348.383 407.752 413.382 413.382 489.685 544.29 504.976 490.189 490.189 
485.23 597.827 529.018 579.918 538.835 541.632 591.268 652.758 652.758 
594.107 597.783 573.986 653.27 603.743 603.743 599.261 599.261 579.816 
568.43 644.28 717.185 576.939 443.89 463.843 413.732 378.073 493.19 
484.388 473.927 455.82 459.779 466.667 529.396 529.396 487.318 497.702 
466.987 408.027 488.664 559.593 554.425 568.511 577.423 537.952 662.166 
548.659 499.735 499.735 487.18 456.909 496.252 438.512 448.417 485.062 
515.304 520.694 522.632 581.028 629.133 530.784 465.559 522.71 409.136 
431.959 587.541 534.75 456.744 582.569 534.108 574.039 593.822 642.148 
649.286 649.286 642.161 600.865 566.063 491.332 491.332 455.976 418.136 
418.007 422.104 434.945 452.688 444.441 404.418 445.62 418.476 515.25 
511.192 514 535.827 448.482 448.482 563.173 478.297 466.985 477.129 
537.388 518.195 381.577 481.12 434.646 436.858 413.147 386.643 491.562 
490.56 530.158 530.158 527.875 601.251 564 493.911 389.901 389.901 
437.055 470.17 502.534 542.467 571.536 614.717 699.275 660.369 623.266 
563.384 498.832 382.395 341.206 383.84 493.668 543.902 584.39 570.325 
570.325 482.434 465.649 465.649 400.146 400.146 366.404 381.505 357.394 
411.077 437.711 483.693 588.495 631.569 631.569 760.639 
FIELD FieldData 7
DY_minmax 1 466 double
1 0.222748 0.624982 0.918013 0.292423 0.280824 0.353751 0.246249 0.373987 
0.688735 0.329004 0.282941 0.357649 0.577813 0.241115 0.369589 0.410352 0.304316 
0.210258 0.284209 0.250189 0.149777 0.363178 0.310462 0.367265 0.217688 0.275025 
0.292783 0.223773 0.512261 0.278166 0.241323 0.229845 0.583124 0.0957375 0.259342 
0.369545 0.124259 0 0.0861216 0.102529 0.106458 0.258526 0.264099 0.303689 
0.313609 0.24339 0.231747 0.182011 0.1853 0.230518 0.234372 0.234372 0.243069 
0.264973 0.264973 0.292395 0.307503 0.307503 0.299121 0.299121 0.210908 0.171179 
0.171179 0.160848 0.228348 0.171433 0.254335 0.294776 0.294776 0.197938 0.214033 
0.291721 0.259037 0.306737 0.37308 0.439633 0.0541065 0.113604 0.204677 0.233955 
0.305588 0.213775 0.184355 0.266745 0.159927 0.141515 0.199811 0.152011 0.112004 
0.2315 0.202156 0.205213 0.225595 0.171801 0.394354 0.316804 0.388057 0.341009 
0.302069 0.285235 0.251733 0.255131 0.234872 0.240836 0.370853 0.343533 0.248685 
0.287809 0.382602 0.327593 0.17991 0.162822 0.320783 0.232854 0.200282 0.203465 
0.201546 0.223106 0.235482 0.237947 0.227877 0.244718 0.294398 0.437355 0.26544 
0.302252 0.323463 0.327434 0.447067 0.46161 0.446176 0.446563 0.389464 0.454329 
0.431319 0.475245 0.443842 0.402529 0.351616 0.327009 0.241993 0.241993 0.145093 
0.136643 0.207746 0.18988 0.18988 0.171319 0.174349 0.446491 0.574315 0.608998 
0.550879 0.508174 0.429244 0.367629 0.220255 0.197659 0.156104 0.221431 0.285206 
0.211333 0.229744 0.28066 0.247916 0.201184 0.190072 0.215924 0.239999 0.360422 
0.367265 0.322972 0.274787 0.22681 0.199282 0.221987 0.357781 0.396721 0.371885 
0.272864 0.424502 0.414329 0.40311 0.385393 0.37431 0.373486 0.364908 0.250189 
0.273831 0.200373 0.24265 0.22969 0.29334 0.338096 0.29194 0.354307 0.335702 
0.507827 0.521173 0.424078 0.35663 0.306966 0.308915 0.283247 0.243944 0.288384 
0.175363 0.238206 0.195679 0.184708 0.183142 0.159463 0.163946 0.215542 0.215542 
0.300546 0.290727 0.3063 0.348793 0.374865 0.359111 0.411253 0.428276 0.46337 
0.560385 0.560442 0.580486 0.58391 0.49466 0.372734 0.324176 0.324176 0.252924 
0.241115 0.18125 0.144582 0.193149 0.20522 0.199412 0.191477 0.260972 0.239347 
0.276785 0.470538 0.319042 0.3525 0.210095 0.215524 0.215524 0.213791 0.125358 
0.200063 0.180237 0.221614 0.221614 0.20188 0.24372 0.222785 0.225221 0.260197 
0.260197 0.376509 0.51308 0.458884 0.468612 0.376137 0.43342 0.388781 0.337385 
0.342991 0.422075 0.430804 0.448766 0.380866 0.30484 0.333867 0.338704 0.382337 
0.382 0.375069 0.423453 0.428367 0.471577 0.466432 0.464966 0.464966 0.436413 
0.443572 0.411217 0.449915 0.494368 0.429722 0.511736 0.511736 0.508481 0.490807 
0.387797 0.404253 0.464292 0.536483 0.595438 0.585079 0.513134 0.453847 0.20295 
0.170736 0.250892 0.258494 0.258494 0.361514 0.435239 0.38216 0.362194 0.362194 
0.3555 0.507522 0.414619 0.483342 0.427874 0.43165 0.498667 0.581687 0.581687 
0.502499 0.507462 0.475333 0.582378 0.515509 0.515509 0.509459 0.509459 0.483205 
0.467832 0.570241 0.668674 0.47932 0.299684 0.326623 0.258966 0.210821 0.366246 
0.354363 0.340239 0.315791 0.321136 0.330436 0.41513 0.41513 0.358318 0.372338 
0.330869 0.251264 0.360136 0.4559 0.448922 0.467941 0.479973 0.426682 0.59439 
0.441138 0.375083 0.375083 0.358133 0.317262 0.37038 0.292423 0.305797 0.355273 
0.396103 0.403382 0.405998 0.484841 0.549789 0.417004 0.32894 0.406103 0.252761 
0.283575 0.493635 0.422359 0.317039 0.486922 0.421492 0.475405 0.502115 0.567362 
0.577 0.577 0.56738 0.511625 0.464635 0.363738 0.363738 0.316002 0.264912 
0.264739 0.270269 0.287607 0.311563 0.300429 0.246391 0.30202 0.265371 0.396031 
0.390552 0.394344 0.423813 0.305884 0.305884 0.460735 0.346139 0.330865 0.344562 
0.425921 0.400007 0.215552 0.34995 0.287203 0.29019 0.258176 0.222391 0.364049 
0.362695 0.416159 0.416159 0.413077 0.512145 0.461851 0.36722 0.226791 0.226791 
0.290456 0.335166 0.378862 0.432778 0.472025 0.530326 0.644492 0.591963 0.541869 
0.46102 0.373864 0.216657 0.161046 0.218608 0.366892 0.434716 0.48938 0.470391 
0.470391 0.351725 0.329062 0.329062 0.240623 0.240623 0.195067 0.215456 0.182901 
0.255381 0.291341 0.353424 0.494922 0.553079 0.553079 0.727343 
WidthEq 1 466 double
1.13532 2.29168 1.75523 1.18142 3.55827 2.39045 4.06502 3.92381 3.20544 
3.11086 3.81311 4.71879 7.00272 1.40967 3.0513 3.00728 6.71106 5.24985 
5.16831 4.26641 4.56011 4.46826 5.43019 4.51286 3.81265 4.14255 1 
6.99814 4.81594 3.53588 7.48968 7.10876 5.23411 2.99108 5.01383 4.4678 
3.69379 4.52805 5.02714 5.04942 5.22822 4.83476 4.3893 4.21735 3.65439 
3.52784 3.70322 3.8477 3.94589 4.01377 3.84093 3.76813 3.76813 3.84351 
3.64181 3.64181 3.40679 3.09516 3.09516 3.15168 3.15168 3.41341 3.86197 
3.86197 4.00996 4.04705 4.32728 4.17626 4.06625 4.06625 4.41793 4.42901 
4.09265 4.48119 3.99214 3.90965 3.34007 5.37852 5.1293 4.30846 3.98329 
3.27439 3.57982 3.38947 3.35315 4.00346 4.14474 3.98814 4.45483 4.83741 
4.14728 4.65853 4.7481 4.67019 4.62702 3.7739 4.69097 4.81921 5.18505 
5.51615 6.59828 4.39662 4.26718 4.57107 4.80417 4.29919 4.56261 5.334 
5.11425 4.6528 4.80709 5.4198 5.64993 7.24762 7.6768 7.56391 7.23158 
7.49546 7.74848 8.00709 8.03248 8.7769 8.66828 8.05122 6.60044 7.16182 
6.95754 6.59647 5.83959 7.3978 6.9046 3.90888 4.32174 4.62821 4.22966 
4.40208 4.13312 3.90226 4.06779 4.205 3.87306 4.2364 4.2364 4.67577 
4.86815 4.87158 5.92609 5.92609 6.72056 7.11565 5.92428 4.91302 4.67765 
5.45382 5.87083 6.49632 6.94777 2.323 2.97188 3.6208 3.70472 4.07129 
4.3945 4.32674 3.64304 3.6854 3.44838 3.28459 3.11205 3.30506 3.13021 
3.81265 4.55268 5.1607 5.66987 6.01924 5.85606 4.94834 4.80605 5.06077 
4.1247 4.33109 5.33658 5.55686 5.65043 6.40871 6.7099 6.61564 4.56011 
4.11085 3.63773 3.6041 3.46558 3.17323 3.25623 3.71099 3.61364 3.24238 
2.8107 2.19522 2.24562 2.08602 2.16755 2.2033 2.4639 2.85395 2.85687 
3.57305 3.48971 3.74531 3.99341 5.15192 5.26682 5.49999 4.80724 4.80724 
4.07006 3.51841 3.48998 3.13375 2.97273 3.01017 2.81716 2.76241 2.66245 
2.46687 2.39203 2.36067 2.13219 2.126 2.21915 2.34224 2.34224 2.82167 
3.0513 5.61115 5.78476 5.43319 5.49225 5.28898 4.93822 4.90667 4.23578 
3.76124 3.03748 3.05638 2.96365 3.17442 2.98138 2.98138 2.84695 2.87269 
2.54351 2.61835 2.26532 2.26532 2.32027 2.24589 2.23231 2.18133 2.27317 
2.27317 1.89779 1.70552 1.74361 1.75758 1.83742 1.8151 2.08548 2.2746 
4.78935 4.2753 3.88929 3.8382 3.90938 4.19888 4.16791 4.30219 4.16156 
4.0088 3.46312 3.68675 3.63369 3.30867 3.24122 3.42818 3.42818 3.93343 
4.08583 4.26518 4.30562 4.2207 4.50828 4.49543 4.49543 4.61744 4.7538 
5.60815 5.97938 6.1042 5.67972 5.09336 4.71632 5.09367 5.69026 5.09548 
4.50181 2.79554 2.61247 2.61247 2.23935 2.05893 2.37056 2.50588 2.50588 
2.71608 2.31011 2.51662 2.17394 2.75052 2.72882 2.51466 2.36871 2.36871 
2.48387 2.42104 2.55448 2.4078 2.50811 2.50811 2.48672 2.48672 2.51862 
2.65217 2.46641 2.29541 2.91174 3.47639 3.82519 4.49519 4.96758 4.07441 
3.48228 3.07327 2.90897 2.71728 2.5397 2.33647 2.33647 2.80908 2.84714 
3.26762 3.65227 3.46943 2.94356 3.07011 3.02113 2.95895 3.13791 2.58711 
2.84775 2.97273 2.97273 2.86842 3.11713 3.00224 3.55827 4.24028 4.15548 
3.97875 3.7597 3.25838 2.72597 2.67172 3.18816 3.56489 3.41498 4.43275 
4.29688 2.4614 2.35651 2.22292 1.70159 1.77709 1.66242 1.58789 1.50636 
1.46911 1.46911 1.39882 1.39062 1.46361 1.64542 1.64542 1.89702 2.05566 
2.08352 2.27213 3.70287 3.39513 3.06042 2.9012 2.60223 2.50238 2.26367 
2.20003 2.24135 2.37406 2.67049 2.67049 2.49711 2.91347 2.75441 2.72116 
2.48226 2.68134 3.29447 4.34313 4.22743 4.32139 3.62272 3.31729 3.07777 
2.56849 2.40388 2.40388 2.20326 2.125 1.93607 2.04554 2.83294 2.83294 
2.80931 2.6122 2.41227 2.08156 2.03869 1.95524 1.79109 1.99933 2.19445 
2.18637 2.48865 3.05934 3.21983 3.20455 2.77576 2.60873 2.49245 2.42727 
2.42727 2.56152 2.4624 2.4624 2.55756 2.55756 2.60146 2.55471 2.4429 
2.4247 2.24181 2.22585 1.98071 1.83634 1.83634 1.42025 
rRFP 1 466 double
2551.85 2852.38 2712.96 2563.83 3181.56 2878.05 3313.26 3276.56 3089.86 
3065.28 3247.79 3483.17 4076.75 2623.15 3049.8 3038.36 4000.95 3621.19 
3600 3365.6 3441.93 3418.06 3668.06 3429.65 3247.67 3333.41 2516.68 
4075.56 3508.42 3175.74 4203.31 4104.31 3617.1 3034.15 3559.85 3417.94 
3216.78 3433.6 3563.31 3569.1 3615.57 3513.31 3397.54 3352.85 3206.54 
3173.65 3219.23 3256.78 3282.3 3299.94 3255.02 3236.1 3236.1 3255.69 
3203.27 3203.27 3142.19 3061.2 3061.2 3075.89 3075.89 3143.91 3260.49 
3260.49 3298.95 3308.59 3381.42 3342.17 3313.58 3313.58 3404.98 3407.86 
3320.44 3421.42 3294.32 3272.88 3124.85 3654.63 3589.86 3376.53 3292.02 
3107.78 3187.16 3137.69 3128.25 3297.26 3333.98 3293.28 3414.57 3514 
3334.64 3467.51 3490.79 3470.54 3459.32 3237.6 3475.94 3509.27 3604.35 
3690.4 3971.64 3399.44 3365.8 3444.78 3505.36 3374.12 3442.58 3643.06 
3585.95 3466.02 3506.12 3665.36 3725.17 4140.4 4251.94 4222.6 4136.23 
4204.81 4270.57 4337.78 4344.38 4537.85 4509.62 4349.25 3972.2 4118.1 
4065.01 3971.17 3774.46 4179.43 4051.25 3272.68 3379.98 3459.63 3356.05 
3400.86 3330.96 3270.96 3313.98 3349.64 3263.37 3357.8 3357.8 3471.99 
3521.99 3522.88 3796.94 3796.94 4003.42 4106.1 3796.47 3533.65 3472.48 
3674.2 3782.58 3945.14 4062.47 2860.52 3029.16 3197.81 3219.62 3314.89 
3398.89 3381.28 3203.59 3214.6 3153 3110.43 3065.59 3115.75 3070.31 
3247.67 3440 3598.02 3730.35 3821.15 3778.74 3542.83 3505.85 3572.05 
3328.77 3382.41 3643.73 3700.98 3725.3 3922.37 4000.65 3976.15 3441.93 
3325.17 3202.21 3193.47 3157.47 3081.49 3103.06 3221.25 3195.95 3099.46 
2987.27 2827.31 2840.41 2798.93 2820.12 2829.41 2897.14 2998.51 2999.27 
3185.4 3163.74 3230.17 3294.65 3595.74 3625.6 3686.2 3506.16 3506.16 
3314.57 3171.2 3163.81 3071.23 3029.38 3039.11 2988.95 2974.72 2948.74 
2897.91 2878.46 2870.31 2810.93 2809.32 2833.53 2865.52 2865.52 2990.12 
3049.8 3715.09 3760.21 3668.84 3684.19 3631.36 3540.2 3532 3357.64 
3234.31 3046.21 3051.12 3027.02 3081.8 3031.63 3031.63 2996.69 3003.38 
2917.83 2937.28 2845.53 2845.53 2859.81 2840.48 2836.95 2823.7 2847.57 
2847.57 2750.01 2700.04 2709.94 2713.57 2734.32 2728.52 2798.79 2847.94 
3501.51 3367.91 3267.59 3254.31 3272.81 3348.05 3340 3374.9 3338.35 
3298.65 3156.83 3214.95 3201.16 3116.69 3099.16 3147.75 3147.75 3279.06 
3318.67 3365.28 3375.79 3353.72 3428.46 3425.12 3425.12 3456.83 3492.27 
3714.31 3810.79 3843.23 3732.91 3580.52 3482.53 3580.6 3735.65 3581.07 
3426.78 2983.33 2935.75 2935.75 2838.78 2791.89 2872.88 2908.05 2908.05 
2962.68 2857.17 2910.84 2821.78 2971.63 2965.99 2910.33 2872.4 2872.4 
2902.33 2886 2920.68 2882.56 2908.63 2908.63 2903.07 2903.07 2911.36 
2946.07 2897.79 2853.35 3013.53 3160.28 3250.93 3425.06 3547.83 3315.7 
3161.81 3055.51 3012.81 2962.99 2916.84 2864.02 2864.02 2986.85 2996.74 
3106.02 3205.99 3158.47 3021.8 3054.69 3041.96 3025.8 3072.31 2929.16 
2996.9 3029.38 3029.38 3002.27 3066.91 3037.05 3181.56 3358.81 3336.77 
3290.84 3233.91 3103.62 2965.25 2951.15 3085.37 3183.28 3144.32 3408.83 
3373.52 2896.49 2869.23 2834.51 2699.02 2718.64 2688.84 2669.47 2648.28 
2638.6 2638.6 2620.33 2618.2 2637.17 2684.42 2684.42 2749.81 2791.04 
2798.28 2847.3 3219.14 3139.16 3052.17 3010.79 2933.09 2907.14 2845.1 
2828.56 2839.3 2873.79 2950.83 2950.83 2905.77 3013.98 2972.64 2964 
2901.91 2953.65 3113 3385.54 3355.47 3379.89 3198.31 3118.93 3056.68 
2924.32 2881.54 2881.54 2829.4 2809.06 2759.96 2788.41 2993.05 2993.05 