# vtk DataFile Version 3.0
vtk output
ASCII
DATASET POLYDATA
POINTS 487 float
1.79085 -0.73233 1.70633 1.26715 -1.05514 1.60972 2.52045 -0.634607 1.35472 
2.35557 -0.638848 1.15551 0.482747 -0.87878 1.20711 1.88315 0.962237 1.69086 
1.90727 1.15068 1.72805 2.43189 0.621259 1.34558 0.0739525 -0.0645378 1.44911 
1.60777 -1.08978 0.606334 1.56416 -1.31042 0.498654 2.48977 -0.448421 0.311447 
2.79173 0.534777 0.387591 2.85179 0.258494 0.38313 -0.169252 0.556767 1.13604 
1.09561 -1.24645 -0.369698 2.71682 0.313475 -0.433339 -0.360208 0.659473 0.768844 
2.13326 -0.161455 -0.384975 1.76498 -0.51342 -0.497848 2.53471 1.57099 0.219412 
2.51892 1.06209 -0.209604 -0.622743 0.0981578 -0.198988 -0.558052 -0.166885 -0.430865 
0.343435 -0.931229 -0.667219 3.32894 0.414611 -0.776128 -0.302734 1.40073 0.306712 
2.61908 0.655483 -0.738697 2.85813 0.454444 -0.891787 2.32381 0.330343 -0.851828 
1.78164 0.264268 -1.25958 1.36498 -0.671902 -1.19096 1.1785 2.21667 0.138658 
2.14342 0.368554 -1.02561 0.864184 0.0137951 -1.26631 0.633775 -0.0566513 -1.4875 
1.95192 0.434951 -1.41183 0.171169 1.90726 -0.51424 0.485471 0.253408 -1.44783 
1.53915 1.90052 -1.01704 0.877424 2.12297 -0.998805 0.775517 0.9262 -1.83892 
0.843482 0.938129 -1.83753 0.907144 0.930799 -1.82845 0.977008 0.917599 -1.79819 
1.04576 0.896656 -1.76328 1.12004 0.891486 -1.72966 1.18968 0.895024 -1.71603 
1.24535 0.884599 -1.724 1.29437 0.867771 -1.74253 1.34172 0.847933 -1.76233 
1.38661 0.817887 -1.77851 1.43171 0.776793 -1.78357 1.49807 0.740293 -1.74017 
1.57503 0.662394 -1.63799 1.66896 0.506852 -1.46496 0.745991 0.97847 -1.80555 
0.710393 1.0197 -1.7768 0.680817 1.07188 -1.74347 0.650416 1.12256 -1.71077 
0.609424 1.15397 -1.68613 0.567654 1.18397 -1.66208 0.532735 1.22644 -1.63282 
0.496216 1.26599 -1.60477 0.465766 1.31658 -1.5721 0.430848 1.35904 -1.54284 
0.384327 1.37468 -1.51692 0.35405 1.40843 -1.46767 0.335805 1.44692 -1.39279 
0.315923 1.47671 -1.31367 0.287181 1.4961 -1.24679 0.256958 1.52995 -1.19749 
0.221948 1.56632 -1.16292 0.194938 1.61945 -1.12959 0.181238 1.67754 -1.09627 
0.182991 1.72861 -1.0612 0.17568 1.77744 -1.00853 0.172189 1.81606 -0.936497 
0.182901 1.84341 -0.856198 0.182805 1.86906 -0.757656 0.176511 1.89126 -0.642719 
0.76531 0.837442 -1.77319 0.73976 0.766219 -1.72919 0.685854 0.720422 -1.7087 
0.629306 0.681465 -1.70108 0.594431 0.6313 -1.69514 0.564879 0.570353 -1.67044 
0.524799 0.507605 -1.62761 0.493567 0.435637 -1.57438 0.47062 0.35467 -1.51053 
0.940746 2.11502 -0.989983 0.986675 2.07543 -0.994407 1.03161 2.04547 -1.01056 
1.07765 2.02895 -1.03684 1.12191 2.02064 -1.07545 1.1675 2.00902 -1.10755 
1.21436 1.994 -1.13321 1.26382 1.97226 -1.14592 1.31669 1.94531 -1.14505 
1.37878 1.91796 -1.12072 1.45566 1.90608 -1.07414 0.554965 0.0910953 -1.50174 
0.510052 0.18975 -1.4919 0.745557 -0.00808211 -1.37061 0.413785 0.22327 -1.44108 
0.345467 0.187828 -1.42079 0.285486 0.150398 -1.3777 0.233636 0.122033 -1.32291 
0.173655 0.0846039 -1.27982 0.105387 0.0492519 -1.25949 0.0358966 0.0173896 -1.24558 
-0.028299 -0.00483486 -1.22764 -0.0798057 -0.00969773 -1.19455 -0.13303 -0.00625268 -1.17374 
-0.195608 -0.00838249 -1.17102 -0.257024 -0.00268753 -1.1729 -0.316128 -0.00993758 -1.15657 
-0.356625 -0.011925 -1.09864 -0.379785 -0.00525556 -1.00555 -0.400209 -0.0133089 -0.891023 
-0.418923 -0.0269507 -0.758538 -0.463112 -0.0785105 -0.602747 1.84504 0.414259 -1.36148 
1.89715 0.459561 -1.41743 0.238575 1.94498 -0.533152 0.297238 1.98604 -0.548576 
0.343585 2.02598 -0.545166 0.397004 2.05739 -0.530645 0.449717 2.08032 -0.494954 
0.517192 2.09761 -0.465161 0.593189 2.10872 -0.431793 0.660666 2.126 -0.401991 
0.714651 2.14553 -0.359842 0.773162 2.16333 -0.319499 0.829597 2.17609 -0.264405 
0.900477 2.18041 -0.208107 0.969851 2.18531 -0.151209 1.01746 2.20145 -0.0925923 
1.06347 2.21821 -0.0333403 1.12495 2.2203 0.0406298 0.129496 1.88027 -0.43526 
0.0830276 1.83882 -0.354436 0.0438492 1.80493 -0.262587 0.00252808 1.77284 -0.177843 
-0.0514839 1.7234 -0.108258 -0.110492 1.6631 -0.0405776 -0.16798 1.59088 0.046035 
-0.228249 1.50212 0.16413 0.591572 -0.200484 -1.39914 0.570853 -0.312362 -1.31804 
0.551244 -0.407031 -1.23373 0.514099 -0.498251 -1.12715 0.478776 -0.597801 -1.00266 
0.453827 -0.698405 -0.889267 0.413411 -0.784346 -0.790594 0.369496 -0.857287 -0.71838 
0.891991 0.134014 -1.39259 0.92012 0.226242 -1.47703 0.973001 0.278849 -1.51639 
1.03591 0.300628 -1.53149 1.09241 0.291918 -1.53872 1.15073 0.274864 -1.53371 
1.21971 0.260069 -1.50412 1.28842 0.239035 -1.46924 1.36403 0.23056 -1.42912 
1.43852 0.226009 -1.39599 1.51196 0.210319 -1.36233 1.6178 0.219368 -1.31739 
2.02874 0.41951 -1.31613 2.08866 0.398873 -1.18582 1.89949 0.347051 -1.33887 
0.754926 -0.230188 -1.33652 0.851526 -0.314559 -1.19604 0.917733 -0.331651 -1.09628 
0.972612 -0.312751 -1.05464 0.987502 -0.24881 -1.06921 0.946344 -0.133335 -1.14473 
-0.548318 -0.00619484 -0.498149 -0.543565 0.0840304 -0.503515 -0.564046 0.11025 -0.395434 
1.79045 0.0200802 -1.07398 1.79829 -0.155119 -0.905922 1.79328 -0.283064 -0.765285 
1.77271 -0.394564 -0.632222 2.23298 0.351148 -0.941943 2.1243 0.281226 -0.838373 
2.10297 0.172634 -0.67041 2.09786 0.0548065 -0.53601 2.10628 -0.0555507 -0.442831 
1.25072 2.16202 0.214605 1.32643 2.12513 0.282232 1.39268 2.08249 0.331697 
1.45187 2.03843 0.364805 1.50764 1.9996 0.384334 1.5574 1.97269 0.377345 
1.59799 1.94627 0.346913 1.62468 1.90597 0.294919 1.65385 1.85878 0.255794 
1.69612 1.82397 0.237613 1.74171 1.78376 0.232931 1.7779 1.7379 0.210124 
1.81178 1.70498 0.169091 1.83421 1.66839 0.102883 1.85504 1.62319 0.0409531 
1.89001 1.58082 0.0117265 1.94829 1.55797 0.022195 2.00054 1.52417 0.0280759 
2.03766 1.47999 0.00597534 2.07246 1.44875 -0.0343468 2.10528 1.40818 -0.0706991 
2.14171 1.36846 -0.0988168 2.17133 1.31637 -0.132111 2.19669 1.27939 -0.1906 
2.23087 1.26989 -0.253351 2.27138 1.26423 -0.304391 2.32014 1.22849 -0.314617 
2.39207 1.15097 -0.279812 1.16346 2.14664 0.325701 1.14466 2.0869 0.493418 
1.11899 2.04898 0.622994 1.08933 2.03812 0.716611 1.05603 2.04351 0.785511 
1.00491 2.01076 0.846332 0.946435 1.95319 0.912523 0.888795 1.88571 0.990313 
0.828516 1.82486 1.05513 0.764513 1.77419 1.10054 0.697011 1.73651 1.11949 
0.635804 1.70225 1.12201 0.588183 1.66571 1.11214 0.536134 1.63086 1.10404 
0.490202 1.59368 1.0935 0.438152 1.55883 1.0854 0.390532 1.52229 1.07553 
0.326777 1.49483 1.06513 0.253008 1.47413 1.05177 0.177965 1.45683 1.03195 
0.114211 1.42938 1.02155 0.0679507 1.3894 1.01811 0.0200484 1.34713 1.02227 
-0.0183178 1.30996 1.00175 -0.0629601 1.28977 0.948916 -0.126457 1.29327 0.86412 
-0.185238 1.31474 0.728366 -0.242951 1.35326 0.53905 1.40004 -0.653871 -1.12038 
1.43128 -0.625635 -1.06916 1.45616 -0.580387 -1.05021 1.47722 -0.524928 -1.05064 
1.49955 -0.472877 -1.04461 1.52951 -0.441238 -0.999846 1.56721 -0.430047 -0.91639 
1.61424 -0.439918 -0.794871 1.67671 -0.467357 -0.651655 -0.625121 0.287465 -0.192244 
-0.632848 0.400564 -0.18734 -0.619053 0.456492 -0.163854 -0.591 0.485783 -0.110151 
-0.567741 0.511242 -0.0418137 -0.558928 0.54515 0.0253116 -0.540762 0.584223 0.0678177 
-0.516718 0.623957 0.101023 -0.497279 0.659627 0.149987 -0.483462 0.67996 0.24297 
-0.450349 0.675415 0.37004 -0.413417 0.660664 0.516475 -0.390775 0.657211 0.654689 
1.91558 0.0710051 -0.927318 2.02448 -0.0632676 -0.630125 2.34687 0.335059 -0.733192 
2.41772 0.325744 -0.634777 2.53663 0.313933 -0.538656 2.34491 0.388536 -1.01231 
2.37899 0.436033 -1.12999 2.43678 0.475187 -1.18025 2.51141 0.493531 -1.1683 
2.59328 0.496451 -1.12341 2.67902 0.489251 -1.05911 2.7673 0.475248 -0.981902 
-0.339706 1.30896 0.339293 -0.365166 1.23724 0.35752 -0.386584 1.17863 0.362017 
-0.405585 1.11746 0.373193 -0.417635 1.03815 0.418765 -0.419084 0.934381 0.508859 
-0.402552 0.806239 0.633556 2.92404 0.416891 -0.848074 2.99557 0.395281 -0.80557 
3.063 0.377655 -0.777164 3.13352 0.382789 -0.762866 3.20153 0.394808 -0.761441 
3.2622 0.399189 -0.771095 2.8128 0.379179 -0.670924 2.58436 0.749777 -0.758656 
2.55601 0.827058 -0.746336 2.53398 0.887237 -0.701773 2.51239 0.942514 -0.651379 
2.48805 0.985317 -0.596104 2.46412 1.00467 -0.520476 2.47079 1.02421 -0.387636 
2.68781 0.617008 -0.679033 2.72426 0.498843 -0.5802 2.60174 0.576572 -0.68337 
2.61469 0.467402 -0.575164 -0.529559 -0.397878 -0.239484 -0.473156 -0.573733 -0.0670486 
-0.392929 -0.686193 0.0873525 -0.296085 -0.756 0.239705 -0.19614 -0.805754 0.380763 
-0.101955 -0.839616 0.497345 -0.0229258 -0.852988 0.585202 0.0386973 -0.853869 0.666081 
0.104654 -0.856413 0.745239 0.164171 -0.8594 0.833914 0.220123 -0.858529 0.918257 
0.261314 -0.852179 1.01264 0.346848 -0.860299 1.10624 -0.620793 -0.142436 -0.288901 
-0.641806 -0.0627045 -0.216254 2.65149 0.87567 -0.0114079 2.7433 0.70806 0.191781 
2.60501 1.08607 -0.0585175 2.65019 1.1012 0.063189 2.65251 1.13217 0.154336 
2.6346 1.18604 0.20933 2.61026 1.25304 0.240938 2.5836 1.32967 0.252585 
2.56441 1.40636 0.254283 2.55602 1.48475 0.237753 1.82073 -0.668232 -0.36094 
1.86477 -0.815648 -0.226329 1.87961 -0.94314 -0.100954 1.86726 -1.04555 0.000508828 
1.82404 -1.11963 0.0804758 1.77308 -1.17316 0.155806 1.73178 -1.20529 0.240522 
1.69111 -1.23928 0.332615 1.63446 -1.28144 0.415071 2.22291 -0.258531 -0.224324 
2.32224 -0.334285 -0.0543449 2.41656 -0.396356 0.123832 2.70721 0.0961794 -0.236578 
2.68514 -0.0512963 -0.0447617 2.65655 -0.139037 0.111824 2.62249 -0.218045 0.219701 
2.59858 -0.293803 0.277984 2.57043 -0.358096 0.309145 2.5255 -0.404412 0.319092 
-0.280013 0.610121 0.95651 1.14474 -1.20888 -0.288755 1.19865 -1.1947 -0.206909 
1.27396 -1.20335 -0.121499 1.35385 -1.22663 -0.010692 1.41753 -1.25318 0.132755 
1.48296 -1.28421 0.307489 2.83513 0.412243 0.388109 2.85781 0.322101 0.387135 
-0.101209 0.427253 1.19886 -0.0392946 0.324615 1.26855 0.00796405 0.222136 1.32422 
0.0469052 0.116461 1.37134 0.0720878 0.0200942 1.40909 -0.0881255 0.556819 1.26457 
-0.0301052 0.554859 1.37959 0.0226991 0.558707 1.4647 0.0908055 0.567074 1.51517 
0.155407 0.588373 1.53915 0.205816 0.620933 1.55488 0.266695 0.6524 1.55946 
0.327487 0.683901 1.56407 0.376198 0.71711 1.58047 0.430464 0.742365 1.60857 
0.47524 0.762399 1.6613 0.52207 0.776914 1.71922 0.585195 0.778163 1.75842 
0.647995 0.773195 1.76892 0.716786 0.786839 1.77104 0.788872 0.811985 1.77008 
0.860959 0.837131 1.76912 0.929851 0.850746 1.77121 0.994431 0.845087 1.78099 
1.06969 0.841693 1.81536 1.14946 0.846514 1.85317 1.22624 0.863043 1.87224 
1.29543 0.900073 1.85262 1.36075 0.947223 1.81358 1.4252 0.992781 1.77389 
1.48812 1.01841 1.74949 1.54217 1.01647 1.72931 1.59663 1.00954 1.71492 
1.6575 1.01265 1.70668 1.71478 1.00121 1.69786 1.78349 0.98063 1.69259 
2.77796 0.494001 0.58697 2.77234 0.47858 0.758446 2.75988 0.48506 0.880475 
2.73402 0.500243 0.95874 2.70826 0.542217 1.01144 2.67909 0.589404 1.05056 
2.63855 0.615918 1.08103 2.59603 0.627402 1.12096 2.56092 0.63523 1.183 
2.53302 0.650426 1.25602 2.49165 0.646843 1.31328 2.45714 -0.550448 0.485096 
2.4329 -0.620081 0.64867 2.41218 -0.654636 0.787545 2.39469 -0.659195 0.90758 
2.37282 -0.658448 1.02279 1.54941 -1.23707 0.54022 1.5602 -1.18183 0.567204 
1.583 -1.13511 0.58733 2.41042 0.684248 1.38301 2.39754 0.743837 1.41696 
2.39706 0.796759 1.44494 2.37792 0.844954 1.47412 2.33784 0.874306 1.49749 
2.2916 0.89596 1.51802 2.24891 0.924281 1.54136 2.21302 0.964983 1.56989 
2.17023 0.993123 1.59316 2.12226 1.01063 1.61397 2.06711 1.01451 1.63539 
1.98959 0.993308 1.65863 2.39907 0.569533 1.35879 2.3521 0.529057 1.39772 
2.30869 0.506408 1.46234 2.26492 0.481093 1.53413 2.21056 0.436728 1.59796 
2.15497 0.395856 1.65538 2.10821 0.382466 1.70854 2.06292 0.388915 1.74637 
2.01519 0.402348 1.77136 1.96268 0.412599 1.78712 1.9104 0.419562 1.80109 
1.88757 0.457291 1.82548 1.89545 0.507995 1.84215 1.90419 0.567956 1.84653 
1.89663 0.645373 1.83145 1.89725 0.73058 1.79124 1.89677 0.833047 1.73696 
1.91176 1.06493 1.70959 0.541362 -0.9466 1.1499 0.611698 -0.95992 1.14176 
0.690773 -0.956492 1.17331 0.772845 -0.958178 1.22281 0.85192 -0.971782 1.27655 
0.925411 -1.00126 1.33151 1.00703 -1.02167 1.39817 1.09444 -1.03725 1.4747 
1.18141 -1.04795 1.54542 0.498675 -0.809915 1.33235 0.50554 -0.761234 1.4204 
0.524943 -0.72381 1.47312 0.552977 -0.690807 1.51757 0.585489 -0.66597 1.57524 
0.621062 -0.645224 1.63867 0.665742 -0.625154 1.69143 0.72948 -0.605446 1.71474 
0.79781 -0.594642 1.72397 0.861376 -0.601935 1.73309 0.930358 -0.616739 1.76268 
0.993722 -0.647488 1.79348 1.05581 -0.674839 1.81782 1.12098 -0.679429 1.82804 
1.18209 -0.679956 1.82422 1.24961 -0.663119 1.81978 1.32087 -0.63947 1.81819 
1.38839 -0.622633 1.81375 1.44819 -0.619848 1.80343 1.50861 -0.615911 1.79358 
1.55675 -0.634335 1.77438 1.59268 -0.674946 1.74589 1.63162 -0.712856 1.72248 
1.67374 -0.746172 1.70512 1.73304 -0.74324 1.70772 2.27915 -0.627492 1.18506 
2.21927 -0.629786 1.22116 2.16498 -0.654238 1.26997 2.11937 -0.671128 1.32957 
2.07305 -0.689419 1.38856 2.01574 -0.721986 1.43369 1.96423 -0.749738 1.48872 
1.93077 -0.747404 1.56029 1.89106 -0.751911 1.62524 1.8396 -0.755648 1.67167 
2.4341 -0.626074 1.25725 
LINES 53 605
16 41 42 43 44 45 46 47 48 49 50 51 52 53 54 55 30 
27 41 56 57 58 59 60 61 62 63 64 65 66 67 68 69 70 71 72 73 74 75 76 77 78 79 80 37 
11 41 81 82 83 84 85 86 87 88 89 38 
13 40 90 91 92 93 94 95 96 97 98 99 100 39 
4 35 101 102 38 
3 35 103 34 
20 38 104 105 106 107 108 109 110 111 112 113 114 115 116 117 118 119 120 121 23 
4 30 122 123 36 
18 37 124 125 126 127 128 129 130 131 132 133 134 135 136 137 138 139 32 
10 37 140 141 142 143 144 145 146 147 26 
10 35 148 149 150 151 152 153 154 155 24 
14 34 156 157 158 159 160 161 162 163 164 165 166 167 30 
4 36 168 169 33 
3 36 170 30 
8 35 171 172 173 174 175 176 34 
5 23 177 178 179 22 
6 30 180 181 182 183 19 
3 33 184 29 
6 33 185 186 187 188 18 
30 32 189 190 191 192 193 194 195 196 197 198 199 200 201 202 203 204 205 206 207 208 209 210 211 212 213 214 215 216 21 
30 32 217 218 219 220 221 222 223 224 225 226 227 228 229 230 231 232 233 234 235 236 237 238 239 240 241 242 243 244 26 
11 31 245 246 247 248 249 250 251 252 253 19 
15 22 254 255 256 257 258 259 260 261 262 263 264 265 266 17 
4 30 267 268 18 
5 29 269 270 271 16 
9 29 272 273 274 275 276 277 278 28 
9 26 279 280 281 282 283 284 285 17 
8 28 286 287 288 289 290 291 25 
3 28 292 16 
9 27 293 294 295 296 297 298 299 21 
4 27 300 301 16 
4 27 302 303 16 
15 23 304 305 306 307 308 309 310 311 312 313 314 315 316 4 
4 23 317 318 22 
4 21 319 320 12 
10 21 321 322 323 324 325 326 327 328 20 
11 19 329 330 331 332 333 334 335 336 337 10 
5 18 338 339 340 11 
9 16 341 342 343 344 345 346 347 11 
3 17 348 14 
8 15 349 350 351 352 353 354 10 
4 12 355 356 13 
7 14 357 358 359 360 361 8 
33 14 362 363 364 365 366 367 368 369 370 371 372 373 374 375 376 377 378 379 380 381 382 383 384 385 386 387 388 389 390 391 392 5 
13 12 393 394 395 396 397 398 399 400 401 402 403 7 
7 11 404 405 406 407 408 3 
5 10 409 410 411 9 
14 7 412 413 414 415 416 417 418 419 420 421 422 423 5 
19 7 424 425 426 427 428 429 430 431 432 433 434 435 436 437 438 439 440 5 
3 5 441 6 
11 4 442 443 444 445 446 447 448 449 450 1 
3 3 486 2 
38 4 451 452 453 454 455 456 457 458 459 460 461 462 463 464 465 466 467 468 469 470 471 472 473 474 475 0 485 484 483 482 481 480 479 478 477 476 3 

POINT_DATA 487
SCALARS DY_raw double
LOOKUP_TABLE default
5373.22 6138.81 6405.43 3923.91 4316.33 3497.47 4943.88 4634.82 5307.52 
6110.08 4432.37 4540.48 4832.61 5540.11 4576.49 2925.71 3799.63 4007.27 
4407.7 4439.76 5316.9 5122.99 4923.56 3604.22 2995.83 7797.92 3840.03 
4700.04 4782.03 4329.44 2949.18 3544.39 3756.56 4214.17 4439.39 3311 
3871.47 3578.94 4496.53 9328.46 3651.89 3749.06 3976.34 3899.54 4256.45 
4857.6 4430.28 5000.8 4484.33 3705.61 3705.61 3228.7 3156.55 3125.88 
3127.93 3316.13 3965.42 4448.31 4448.31 4981.51 4580.07 5160.79 4140.88 
4095.26 4095.26 4009.51 4009.51 4320.05 4297.26 5225.32 5547.03 4461.28 
4908.88 4648.55 4549.34 4255.87 4588.28 4446.88 3876.83 3454.7 3212.05 
3822.6 4299.69 3944.88 3780.09 4021.67 3714.23 4022.07 3876.31 3700.89 
4135.65 4740.98 4740.98 4943.34 5274.64 4933.64 5107.21 5092.68 5506.78 
5832.73 7502 3301.56 3413.93 4206.03 3986.37 3667.19 3796.56 3946.95 
3841.39 3579.37 3413.41 3404.97 3324.43 3348.61 3348.61 3441.72 3374.45 
3737.08 3430.36 3903.29 3923.27 4113.84 3821.4 3779.44 3444.02 3853.31 
4162.23 4162.23 3828.1 4278.17 3967.13 3671.93 3908.51 3633.48 3467.89 
3770.82 3779.64 3892.17 4036.12 3685.7 3794.99 3812.08 3851.77 4222.51 
4149.2 3701.05 3873.07 3692.29 3077.64 3309.44 3710.65 3357.42 3634.5 
3617.75 3590.26 2862.28 4213.96 4088.68 3921.41 3849.49 3849.49 3307.82 
3408.49 3012.65 2854.84 2759.63 2606.49 2579.3 4145.85 4211.25 3923.15 
3863.72 4052.8 4025.67 4124.29 4202.62 4383.97 3600.97 3896.02 4567.11 
2963.07 3636.35 4372.11 4654.2 3597.63 3933.04 4029.31 4162.4 4313.57 
3970.78 4184.59 4256.17 4292.04 4848.65 4848.65 5040.7 4767.61 4767.61 
4867.49 5127.06 5127.06 5246.48 4717.87 4717.87 4264.65 4264.65 4508.81 
4927.93 4736.26 4901.49 5144.53 5144.53 5059.1 4886.76 4603.51 4637.34 
4692.84 4040.96 3900.64 4023.43 4115.86 4349.34 4254.81 3957.95 4416.57 
4825.02 5229.22 4916.12 5003.45 4904.73 4798.84 4900.2 4871.4 5171.07 
4913.2 5546.49 5546.49 5349.97 5055.14 5055.14 4664.34 5017.54 5456.31 
5692.14 5177.93 3680.55 4088.44 4088.44 3966.62 3787.13 3998.49 3893.27 
3949.15 4019.3 4665.82 3979.77 4141.08 4105.09 4224.38 4604.01 5015.23 
4273.85 4817.54 4869.2 5196.79 4497.78 4388.25 3675.44 4465.66 3697.61 
3819.86 3807.07 4164.49 4458.15 4118.66 3811.36 4224.27 4306.92 4271.86 
3902.43 4033.7 4109.93 3544.51 4500.87 4243.9 4626.65 5083.71 5222.09 
5754.65 6162.89 6507.04 7326.84 4950.4 3992.49 4622.13 3783.84 3855.75 
4219.87 4501.16 4980.48 5264.74 4968.28 4397.71 4333.27 3845.09 4462.65 
4448.79 4107.82 4330.83 4605.39 4523 4639.87 3998.88 4384.53 3769.99 
3878.06 4166.84 4058.84 4310.46 5534.59 5114.52 5066.47 4910.74 4667.32 
4862.82 4862.82 5258.33 4687.96 4541.29 3850.45 4288.86 4169.71 4505.42 
3893.38 3801.04 3911.32 4206.97 4200.32 4347.2 4506.46 4154.91 4009.25 
4375.78 4586.67 4190.85 4458.6 4222.84 4436.13 4490.05 3432.98 3789.96 
4763.63 5506.64 5347.7 4180.85 5201.82 5614.92 4629.97 4966.61 5137.92 
5483.03 6061.14 4740.4 4916.9 5023.72 5132.08 4839 4501.76 4793.97 
4366.49 4178.72 4461.82 4513.42 5000.98 5588.36 5793.57 5548.28 5576.92 
5481.44 4940.32 4579.13 4365.1 4300.25 4425.36 4672.68 4346.11 4007.77 
4819.94 4837.55 5104.31 4150.07 3536.9 3436.94 5829.21 6102.31 7007.16 
7527.35 6348.96 6592.69 5802.8 5314.61 5314.61 5052.3 4325.84 4048 
3876.4 4327.85 4162.61 3977.66 4549.66 4838.5 5129.87 4222.24 4266.21 
4419.61 4857.11 4557.56 4890.67 4890.67 4726.84 4726.84 4432.08 4301.1 
3681.06 4024.2 4030.47 4368.63 4751.16 5594.68 5718.07 6215.01 5523.41 
5523.41 5362.86 5208.38 5302.83 5748.45 5229.49 5662.14 4017.87 3805.64 
4132.1 4209.97 4059.21 4324.71 4481.17 4562.65 4465.56 5032 5121.29 
5573.37 4326.92 4114.72 4049.19 4356.57 4287.31 4555.84 4561.11 5057.67 
4827.32 4554.36 4541.13 4858.26 4920.22 4920.22 5004.63 5434.09 5434.09 
5762.63 5957.53 5957.53 5937.89 5841.64 5245.81 5402.69 5777.96 3691.06 
3472.99 3523.6 3766.75 4182.69 4739.42 4772.4 4845.1 5026.7 5347.04 
5111.69 
FIELD FieldData 7
DY_minmax 1 487 double
0.413965 0.527401 0.566905 0.199227 0.257369 0.136042 0.350352 0.304559 0.404232 
0.523144 0.274563 0.290581 0.333865 0.438693 0.295917 0.0513272 0.180813 0.211578 
0.270907 0.275659 0.405621 0.376891 0.347341 0.151859 0.0617164 0.773226 0.186798 
0.314224 0.326371 0.259312 0.0548047 0.142994 0.17443 0.242233 0.275604 0.108413 
0.191457 0.148113 0.28407 1 0.158922 0.17332 0.206996 0.195615 0.248498 
0.337569 0.274253 0.358785 0.282262 0.166882 0.166882 0.0962197 0.0855294 0.0809853 
0.081289 0.109174 0.205377 0.276925 0.276925 0.355928 0.296447 0.382491 0.231374 
0.224615 0.224615 0.21191 0.21191 0.257921 0.254544 0.392052 0.439718 0.278847 
0.345166 0.306594 0.291895 0.248412 0.297664 0.276713 0.192251 0.129705 0.0937527 
0.184216 0.254904 0.202334 0.177918 0.213712 0.168158 0.21377 0.192173 0.166182 
0.230599 0.320289 0.320289 0.350272 0.39936 0.348835 0.374552 0.372399 0.433754 
0.48205 0.72938 0.107016 0.123664 0.241027 0.20848 0.161189 0.180357 0.20264 
0.187 0.148177 0.123587 0.122337 0.110404 0.113986 0.113986 0.127783 0.117816 
0.171544 0.126098 0.196172 0.199132 0.227368 0.184038 0.177822 0.128122 0.188767 
0.234537 0.234537 0.185031 0.251716 0.20563 0.161891 0.196945 0.156194 0.13166 
0.176543 0.177851 0.194524 0.215852 0.163931 0.180125 0.182656 0.188538 0.243469 
0.232608 0.166206 0.191694 0.164908 0.0738383 0.108183 0.167628 0.115292 0.156346 
0.153863 0.149791 0.0419289 0.242202 0.223639 0.198857 0.188199 0.188199 0.107943 
0.122859 0.0642078 0.0408257 0.0267199 0.00402858 0 0.23211 0.241801 0.199115 
0.190308 0.218324 0.214304 0.228916 0.240522 0.267392 0.151378 0.195094 0.294528 
0.0568628 0.156619 0.265634 0.307432 0.150882 0.200579 0.214843 0.234562 0.256961 
0.20617 0.23785 0.248456 0.253771 0.336241 0.336241 0.364698 0.324234 0.324234 
0.339034 0.377494 0.377494 0.395187 0.316866 0.316866 0.249712 0.249712 0.285889 
0.347989 0.31959 0.344071 0.380082 0.380082 0.367424 0.341889 0.29992 0.304933 
0.313156 0.21657 0.195778 0.213972 0.227668 0.26226 0.248255 0.20427 0.272223 
0.332741 0.392629 0.34624 0.359179 0.344551 0.328862 0.34388 0.339613 0.384014 
0.345806 0.439639 0.439639 0.41052 0.366837 0.366837 0.308933 0.361266 0.426277 
0.461219 0.38503 0.163169 0.223605 0.223605 0.205555 0.178961 0.210276 0.194686 
0.202966 0.213361 0.309153 0.207502 0.231404 0.226071 0.243746 0.299995 0.360924 
0.251075 0.331633 0.339287 0.387824 0.284254 0.268026 0.162411 0.279496 0.165696 
0.18381 0.181915 0.234873 0.278383 0.228083 0.18255 0.24373 0.255976 0.250781 
0.196044 0.215494 0.226789 0.143012 0.284712 0.246639 0.303349 0.371071 0.391574 
0.470481 0.530968 0.581961 0.703428 0.351318 0.209387 0.30268 0.178473 0.189128 
0.243078 0.284756 0.355775 0.397893 0.353967 0.269428 0.25988 0.187548 0.27905 
0.276996 0.226476 0.259518 0.300199 0.287991 0.305308 0.210335 0.267475 0.176421 
0.192433 0.235221 0.219218 0.2565 0.437876 0.375635 0.368516 0.345442 0.309375 
0.338342 0.338342 0.396942 0.312433 0.290702 0.188342 0.2533 0.235646 0.285387 
0.194703 0.181022 0.197361 0.241166 0.240181 0.261944 0.285542 0.233452 0.21187 
0.266178 0.297426 0.238779 0.27845 0.243518 0.27512 0.28311 0.126486 0.17938 
0.323645 0.433735 0.410184 0.237296 0.38857 0.449778 0.303842 0.353719 0.379102 
0.430236 0.515893 0.320203 0.346354 0.362182 0.378236 0.334813 0.284844 0.328141 
0.264803 0.236981 0.278927 0.286572 0.358813 0.445842 0.476248 0.439903 0.444148 
0.430001 0.349825 0.296308 0.264596 0.254987 0.273524 0.310169 0.261782 0.211652 
0.331988 0.334597 0.374123 0.232735 0.141884 0.127074 0.481528 0.521992 0.656061 
0.733135 0.558538 0.594651 0.477615 0.405282 0.405282 0.366417 0.258779 0.217613 
0.192188 0.259077 0.234594 0.207191 0.291941 0.334738 0.377909 0.243429 0.249945 
0.272672 0.337496 0.293113 0.342468 0.342468 0.318194 0.318194 0.274521 0.255114 
0.163245 0.214086 0.215015 0.265119 0.321797 0.446779 0.465061 0.538692 0.436219 
0.436219 0.41243 0.389542 0.403536 0.469562 0.39267 0.456774 0.213148 0.181703 
0.230073 0.241612 0.219273 0.258611 0.281794 0.293866 0.27948 0.363408 0.376638 
0.443622 0.258939 0.227498 0.217788 0.263332 0.25307 0.292857 0.293638 0.367211 
0.333081 0.292638 0.290678 0.337666 0.346847 0.346847 0.359353 0.422985 0.422985 
0.471664 0.500541 0.500541 0.497631 0.48337 0.395088 0.418332 0.473935 0.164726 
0.132416 0.139913 0.175941 0.237568 0.320058 0.324944 0.335716 0.362623 0.410087 
0.375215 
WidthEq 1 487 double
1.69922 1.51817 1.29193 2.41786 2.39731 2.20596 1.35869 2.21656 1.46015 
1.05577 2.43544 2.91704 2.72281 2.01425 2.73259 2.69256 3.68956 3.7734 
4.46012 4.00599 1.97447 2.84204 2.88108 3.6589 4.55004 1.0186 3.28655 
2.67163 2.61547 3.80667 5.40701 2.77023 3.18562 4.03077 3.70928 4.67287 
3.44098 2.82127 3.57019 1 2.25206 2.69613 2.59778 2.57594 2.5247 
2.26508 2.4878 2.20766 2.44923 2.85048 2.85048 3.02622 3.19598 3.32881 
3.63354 4.07588 2.5372 2.00417 2.00417 1.74878 1.85603 1.85949 2.29629 
2.52396 2.52396 2.71421 2.71421 2.63929 2.54429 2.34505 2.24851 2.46525 
2.45198 2.60893 2.64525 2.70404 2.613 2.5919 2.82111 2.89078 3.14334 
2.67487 2.59267 2.71627 2.635 2.66025 3.1365 3.10446 3.27032 3.91451 
2.36431 2.00348 2.00348 1.8293 1.56886 1.5935 1.59856 1.8143 1.79422 
1.82029 1.40047 4.45693 4.32861 4.16539 3.29623 3.07518 2.90644 2.43154 
2.51921 2.61006 2.81286 2.92803 3.05985 3.00413 3.00413 2.7485 2.69468 
2.5902 2.76594 2.77649 2.92553 3.06584 4.21902 3.817 3.12367 2.93756 
2.76726 2.76726 2.87092 2.61709 2.80542 2.97946 2.79479 3.08004 3.33625 
3.19996 3.12872 2.97864 2.99562 3.15139 2.70756 2.37665 2.35522 2.27665 
2.33063 2.5955 2.65605 3.02408 4.64136 4.36375 3.88926 3.75909 3.7161 
3.87099 4.15306 4.64037 3.72148 3.36678 3.24861 3.25845 3.25845 3.4292 
3.48458 3.84989 3.99261 4.55957 4.94422 5.46775 3.7811 3.74871 3.88747 
3.76085 3.67577 3.69324 3.67274 3.62832 3.62873 3.5798 3.28101 2.87874 
5.92988 5.60102 4.7112 4.17385 4.32273 4.37765 4.38864 4.5102 4.65342 
3.01993 2.71902 2.52992 2.44764 2.12865 2.12865 2.09422 2.21041 2.21041 
2.20708 2.14354 2.14354 2.02461 2.00653 2.00653 2.18167 2.18167 2.21035 
2.12315 2.14782 2.14277 2.09406 2.09406 2.18475 2.29272 2.40835 2.52206 
2.69599 2.82951 2.32571 2.33569 2.28189 2.19033 2.22502 2.23925 2.09958 
2.02738 1.84298 1.696 1.70971 1.68369 1.70196 1.72949 1.71894 1.74512 
1.83208 1.73922 1.73922 1.81285 1.92878 1.92878 2.07859 2.16667 2.15936 
2.3164 2.74514 3.18603 3.38345 3.38345 3.44678 3.59321 3.54068 3.97506 
4.32844 4.12531 3.48656 4.13591 4.05132 3.91937 3.86915 3.38315 3.00169 
3.41469 2.83254 2.93501 2.77883 3.35227 3.52219 5.64742 4.64864 4.10624 
3.88382 3.71382 3.65225 3.00105 2.77613 2.89531 2.53214 2.88688 2.96715 
3.44845 3.48359 3.41494 3.47681 2.97388 3.17768 3.20306 2.63566 2.5155 
2.0131 1.85922 1.50825 1.18976 2.85457 2.81267 2.5494 2.78177 2.83536 
2.77877 2.78105 2.77553 2.41956 2.62712 2.76627 3.03707 3.78599 3.1074 
2.79025 2.77998 2.78627 2.53374 2.13725 2.02194 2.11038 2.00568 2.38442 
2.56215 2.52267 3.29293 2.99976 2.73047 2.56338 2.78921 2.82396 2.85833 
2.70459 2.70459 2.60896 2.84174 2.74056 3.8364 3.40455 3.2282 2.88314 
3.0879 2.93229 2.81339 2.64256 2.66748 4.22954 3.66186 3.48837 3.33381 
2.84221 2.65143 3.03531 2.90682 3.09795 3.0307 3.27051 3.08218 3.26554 
2.98784 2.3939 2.11576 2.41558 2.57907 2.20291 2.42244 1.84524 1.53795 
1.44655 1.29218 2.5305 2.1906 2.02532 1.82002 1.89499 1.88208 1.66391 
1.84117 1.89208 1.87279 1.75312 1.67284 1.50251 1.45355 1.4705 1.42671 
1.43932 1.44679 1.55034 1.71853 1.95472 1.97908 1.87279 2.01029 2.13958 
1.65713 1.55114 1.49034 1.69782 1.92241 2.08598 2.33398 2.11719 1.79353 
1.64251 1.68504 1.76348 1.87331 1.96815 1.96815 2.0492 2.29176 2.83586 
2.68921 2.27022 2.22568 2.39519 2.36624 2.17153 1.86661 2.33884 2.28431 
2.10911 1.86384 1.85546 1.75762 1.75762 1.77073 1.77073 1.90787 1.95021 
2.16189 2.27582 2.0434 1.70771 1.6338 1.49397 1.54457 1.47449 1.63295 
1.63295 1.75227 1.82348 1.92233 1.83837 1.92156 1.70246 2.05966 2.14186 
1.7718 2.042 1.90309 1.66108 1.54759 1.50724 1.58781 1.63809 1.73295 
1.63306 2.21142 2.29307 2.22288 1.95458 1.89106 1.83919 1.7973 1.60378 
1.60018 1.60905 1.72229 1.61084 1.73251 1.73251 1.66383 1.48388 1.48388 
1.33784 1.27525 1.27525 1.35182 1.41905 1.53276 1.57737 1.57567 2.44525 
2.51154 2.36107 2.08425 1.86922 1.61413 1.59504 1.68062 1.70982 1.68128 
1.83062 
rRFP 1 487 double
2847.65 2781.75 2699.4 3109.23 3101.75 3032.1 2723.7 3035.96 2760.63 
2613.44 3115.63 3290.93 3220.23 2962.32 3223.79 3209.22 3572.12 3602.64 
3852.6 3687.3 2947.84 3263.63 3277.84 3560.96 3885.33 2599.91 3425.43 
3201.6 3181.16 3614.75 4197.26 3237.49 3388.69 3696.32 3579.3 3930.04 
3481.64 3256.07 3528.67 2593.14 3048.88 3210.52 3174.72 3166.77 3148.12 
3053.62 3134.69 3032.72 3120.65 3266.7 3266.7 3330.67 3392.46 3440.81 
3551.73 3712.74 3152.67 2958.65 2958.65 2865.69 2904.73 2905.99 3064.98 
3147.85 3147.85 3217.1 3217.1 3189.83 3155.25 3082.73 3047.59 3126.48 
3121.65 3178.78 3192 3213.4 3180.26 3172.58 3256.01 3281.37 3373.3 
3202.78 3172.86 3217.85 3188.27 3197.46 3370.81 3359.15 3419.52 3654 
3089.74 2958.4 2958.4 2895 2800.2 2809.17 2811.01 2889.54 2882.23 
2891.72 2738.91 3851.44 3804.73 3745.32 3428.95 3348.49 3287.07 3114.21 
3146.12 3179.19 3253.01 3294.93 3342.91 3322.63 3322.63 3229.58 3209.99 
3171.96 3235.93 3239.77 3294.02 3345.09 3764.84 3618.51 3366.14 3298.4 
3236.41 3236.41 3274.14 3181.75 3250.3 3313.65 3246.43 3350.26 3443.52 
3393.91 3367.98 3313.35 3319.53 3376.23 3214.68 3094.23 3086.43 3057.83 
3077.48 3173.89 3195.93 3329.89 3918.57 3817.52 3644.81 3597.43 3581.78 
3638.16 3740.83 3918.21 3583.74 3454.63 3411.62 3415.2 3415.2 3477.35 
3497.51 3630.48 3682.43 3888.8 4028.81 4219.37 3605.44 3593.65 3644.16 
3598.07 3567.1 3573.46 3566 3549.83 3549.98 3532.17 3423.41 3276.99 
4387.58 4267.88 3943.99 3748.4 3802.59 3822.58 3826.58 3870.83 3922.96 
3328.38 3218.85 3150.02 3120.07 3003.96 3003.96 2991.43 3033.72 3033.72 
3032.51 3009.38 3009.38 2966.09 2959.51 2959.51 3023.26 3023.26 3033.7 
3001.96 3010.94 3009.1 2991.37 2991.37 3024.38 3063.68 3105.77 3147.16 
3210.47 3259.07 3075.69 3079.32 3059.74 3026.41 3039.04 3044.22 2993.38 
2967.1 2899.98 2846.48 2851.47 2842 2848.65 2858.67 2854.83 2864.36 
2896.01 2862.21 2862.21 2889.01 2931.21 2931.21 2985.74 3017.8 3015.14 
3072.3 3228.36 3388.84 3460.7 3460.7 3483.75 3537.05 3517.93 3676.04 
3804.67 3730.73 3498.23 3734.59 3703.8 3655.77 3637.49 3460.59 3321.74 
3472.07 3260.17 3297.47 3240.62 3449.35 3511.2 4284.77 3921.22 3723.79 
3642.83 3580.95 3558.54 3321.51 3239.64 3283.02 3150.83 3279.95 3309.17 
3484.36 3497.15 3472.16 3494.68 3311.62 3385.8 3395.04 3188.51 3144.77 
2961.9 2905.89 2778.14 2662.21 3268.19 3252.94 3157.11 3241.69 3261.2 