# vtk DataFile Version 3.0
vtk output
ASCII
DATASET POLYDATA
POINTS 464 float
2.00809 -0.511094 1.23875 0.94399 -0.285106 0.980658 5.5957 0.0851449 0.61466 
5.38352 -0.279509 0.649672 2.01335 1.15746 0.150299 2.84013 0.731117 0.259439 
3.06366 -0.381439 0.567138 2.68541 -0.75375 0.675472 5.85198 -0.117192 0.460418 
4.85848 -0.529252 0.119913 2.18006 -1.2232 0.397109 4.74235 -0.833195 0.119556 
5.90571 0.117508 -0.332458 -0.366264 -0.189119 -0.2765 3.50396 -0.539158 -0.224674 
6.25086 -0.099182 -0.449143 6.1879 -1.01536 -0.262041 4.89892 -0.265308 -0.732876 
6.06359 0.159592 -0.865189 4.89755 -1.59666 -0.36148 -0.16936 -0.843025 -0.719372 
4.551 -0.130127 -1.32019 5.38375 -0.0193105 -1.01489 5.06516 -0.185874 -1.24152 
3.25174 -0.964992 -0.725849 0.501892 -1.38151 -0.784757 5.79387 0.407345 -1.3464 
0.562793 0.41398 -1.49398 5.28127 0.0255296 -1.50685 5.93699 -1.17163 -1.21912 
4.36932 -0.127274 -1.59571 0.138939 -0.252551 -1.71833 5.84639 -1.61342 -1.40628 
2.48501 -0.837122 -1.79069 2.3418 -1.06281 -1.72604 5.0687 -0.936047 -1.79368 
1.53341 -0.454183 -2.09389 2.19661 -1.05695 -1.9336 1.92917 -0.755459 -2.22218 
1.86036 -0.707026 -2.16566 1.80065 -0.657084 -2.11736 1.75495 -0.605721 -2.085 
1.69661 -0.565044 -2.07259 1.63811 -0.528347 -2.07444 1.59199 -0.48889 -2.0849 
2.22663 -1.00631 -2.0173 2.25856 -0.947102 -2.05726 2.29924 -0.893692 -2.04188 
2.35669 -0.869873 -1.97999 2.41759 -0.847787 -1.89458 2.13104 -1.04139 -1.93716 
2.07411 -1.04672 -1.93501 2.01789 -1.05158 -1.92529 1.95624 -1.03891 -1.90502 
1.89608 -1.02325 -1.86254 1.82971 -0.990394 -1.81708 1.76019 -0.952111 -1.78079 
1.69344 -0.927118 -1.7639 1.6322 -0.919546 -1.7576 1.56695 -0.899741 -1.76235 
1.50738 -0.867411 -1.77066 1.46308 -0.825414 -1.77416 1.41593 -0.780478 -1.76307 
1.38478 -0.723566 -1.73244 1.36133 -0.66372 -1.7027 1.33004 -0.612738 -1.69348 
1.28426 -0.579024 -1.72542 1.2523 -0.545916 -1.78042 1.22953 -0.509308 -1.8365 
1.20701 -0.466729 -1.87118 1.17548 -0.42367 -1.89052 1.13003 -0.381995 -1.89391 
1.09876 -0.332965 -1.89184 1.07684 -0.278408 -1.88373 1.05635 -0.227225 -1.89007 
1.0341 -0.180629 -1.9105 1.00248 -0.139557 -1.93696 0.957043 -0.0978828 -1.94035 
0.925917 -0.0429219 -1.91687 0.902446 0.0188761 -1.87998 0.869688 0.077132 -1.84201 
0.813607 0.124539 -1.80844 0.757508 0.173899 -1.76771 0.723042 0.233462 -1.72239 
0.688642 0.296968 -1.66278 0.631071 0.355557 -1.58615 2.26916 -1.06087 -1.83338 
5.09103 -0.984458 -1.78044 5.12366 -1.02706 -1.76894 5.17778 -1.04903 -1.75576 
5.23681 -1.04751 -1.73381 5.29912 -1.04231 -1.68986 5.35605 -1.01943 -1.63539 
5.41307 -0.99455 -1.57379 5.4757 -0.983253 -1.50846 5.53629 -0.969218 -1.45157 
5.59875 -0.961904 -1.40051 5.65555 -0.943098 -1.36029 5.71312 -0.923941 -1.31248 
5.77993 -0.927431 -1.25846 5.84915 -0.945336 -1.21198 5.90674 -0.981006 -1.19503 
5.93333 -1.05272 -1.20226 2.37841 -0.988576 -1.67796 2.41944 -0.938215 -1.66942 
2.45422 -0.888113 -1.71457 2.37548 -1.09918 -1.68553 2.4235 -1.12617 -1.63243 
2.46851 -1.15234 -1.57182 2.5292 -1.1745 -1.52021 2.59733 -1.19969 -1.49092 
2.65774 -1.22967 -1.46789 2.7036 -1.26136 -1.43652 2.76006 -1.27275 -1.38787 
2.82034 -1.26298 -1.32979 2.88728 -1.26239 -1.26152 2.9536 -1.26003 -1.19375 
3.01058 -1.23507 -1.13217 3.06318 -1.19951 -1.0735 3.11511 -1.16014 -1.00819 
3.16645 -1.11496 -0.929111 3.21367 -1.05322 -0.831533 2.5361 -0.817652 -1.79672 
2.58722 -0.798281 -1.80273 2.63914 -0.778648 -1.80113 2.69561 -0.765623 -1.78236 
2.76169 -0.76924 -1.73599 2.82865 -0.770605 -1.67488 2.8908 -0.758144 -1.60987 
2.95841 -0.761383 -1.54824 3.02787 -0.778198 -1.49823 3.08845 -0.804198 -1.46094 
3.13329 -0.834351 -1.4146 3.18146 -0.855404 -1.34008 3.21409 -0.872593 -1.228 
3.2359 -0.888029 -1.09321 3.24674 -0.907649 -0.957128 3.24314 -0.936689 -0.833626 
5.82688 -1.5462 -1.35558 5.80911 -1.48038 -1.31221 5.80304 -1.41485 -1.28043 
5.82695 -1.34969 -1.26044 5.87531 -1.28086 -1.23791 0.068579 -0.196877 -1.63304 
-0.00211854 -0.149167 -1.57631 -0.0732383 -0.111407 -1.55523 -0.144571 -0.0797137 -1.55554 
-0.215188 -0.0497502 -1.55537 -0.281221 -0.0264857 -1.538 -0.336969 -0.0215103 -1.49259 
-0.388132 -0.0232309 -1.42998 -0.438411 -0.0226994 -1.35262 -0.488396 -0.0162988 -1.25384 
-0.538043 -0.00193479 -1.12651 -0.587481 0.01631 -0.984895 -0.636457 0.0268553 -0.864204 
-0.681422 0.0148193 -0.783412 -0.71507 -0.0327323 -0.738986 -0.733484 -0.0927123 -0.714343 
-0.726116 -0.146826 -0.699335 -0.707636 -0.196818 -0.685609 -0.687364 -0.246127 -0.672094 
-0.666989 -0.295398 -0.658591 -0.646615 -0.344668 -0.645089 -0.62624 -0.393938 -0.631586 
-0.605866 -0.443209 -0.618083 -0.585389 -0.49244 -0.604593 -0.56312 -0.540988 -0.591314 
-0.529864 -0.587307 -0.58648 -0.471711 -0.63001 -0.60602 -0.402925 -0.676493 -0.655395 
-0.334207 -0.726916 -0.719046 -0.274412 -0.774867 -0.760211 -0.228283 -0.81628 -0.756898 
4.97263 -0.118898 -1.42573 4.89792 -0.102139 -1.54488 4.83934 -0.116334 -1.5915 
4.78287 -0.123834 -1.5913 4.71971 -0.11034 -1.55331 4.64848 -0.108809 -1.4606 
5.22261 -0.0096755 -1.56427 5.17175 -0.0469035 -1.54431 5.12553 -0.100024 -1.42897 
5.33158 0.0253055 -1.38048 5.36233 0.00944368 -1.21107 4.48045 -0.0898582 -1.4639 
4.42196 -0.0997257 -1.55275 6.00925 -1.16506 -0.961603 6.06171 -1.14577 -0.715094 
6.12281 -1.09929 -0.482686 5.21451 -0.125716 -1.12676 5.3075 -0.0731655 -1.05023 
4.59062 -0.213793 -1.22299 4.65138 -0.249722 -1.13677 4.72333 -0.259117 -1.03759 
4.8039 -0.260598 -0.902257 5.82756 0.370981 -1.3059 5.87557 0.343991 -1.2528 
5.92048 0.31778 -1.19217 5.97938 0.294939 -1.14036 6.03631 0.267435 -1.1026 
6.06808 0.232298 -1.05472 6.07824 0.196756 -0.975712 0.466871 -1.37894 -0.946568 
0.419893 -1.36918 -1.06409 0.386139 -1.33676 -1.11888 0.352891 -1.2924 -1.13086 
0.307517 -1.24482 -1.11283 0.274506 -1.19254 -1.09626 0.239701 -1.14093 -1.07948 
0.181285 -1.10225 -1.0742 0.111909 -1.0697 -1.07477 0.0424306 -1.03718 -1.07532 
-0.0175773 -0.995301 -1.05553 -0.0622831 -0.93784 -0.994129 -0.116099 -0.882403 -0.87821 
0.447159 -1.33291 -0.590019 0.383032 -1.26378 -0.408587 0.314374 -1.18999 -0.251471 
0.246186 -1.12577 -0.137831 0.186746 -1.07181 -0.0752767 0.142663 -1.02375 -0.0573996 
0.0952342 -0.982832 -0.0605584 0.0617073 -0.940533 -0.0796542 0.0262273 -0.904852 -0.11995 
-0.0330152 -0.888017 -0.193155 -0.101764 -0.884597 -0.300971 -0.159694 -0.882925 -0.431487 
-0.181692 -0.869518 -0.573406 0.574786 -1.37748 -0.655999 0.647408 -1.37747 -0.541503 
0.718002 -1.38606 -0.455345 0.778855 -1.40804 -0.403794 0.82453 -1.44371 -0.386693 
0.880332 -1.47103 -0.395108 0.939844 -1.47915 -0.40124 1.00623 -1.4926 -0.382899 
1.07306 -1.49804 -0.336022 1.13509 -1.48748 -0.278176 1.20209 -1.48894 -0.217035 
1.26901 -1.4924 -0.16303 1.33086 -1.48582 -0.119458 1.39778 -1.48927 -0.0654538 
1.46466 -1.49263 -0.0114645 1.52588 -1.48233 0.0387688 1.58829 -1.47709 0.0827096 
1.64514 -1.4562 0.130041 1.70195 -1.43521 0.177357 1.76369 -1.42615 0.227932 
1.81974 -1.40553 0.267655 1.87284 -1.37558 0.312507 1.92897 -1.35296 0.359374 
1.99059 -1.34581 0.402789 2.04631 -1.33094 0.421054 2.09743 -1.30939 0.422129 
2.14342 -1.2776 0.412717 3.31732 -0.958633 -0.651497 3.36929 -0.91717 -0.579071 
3.40702 -0.836893 -0.501939 3.43971 -0.742214 -0.42106 3.47181 -0.641732 -0.326427 
4.97614 -0.238927 -0.974432 5.46704 -0.0220135 -0.938214 5.53091 0.00270236 -0.861258 
5.58914 0.035169 -0.771032 5.65167 0.0569869 -0.674033 5.71184 0.0926887 -0.569345 
5.78809 0.121362 -0.459035 4.45608 -0.110818 -1.02708 4.39079 -0.0841511 -0.803028 
4.33882 -0.0684687 -0.663229 4.28863 -0.0649197 -0.5739 4.23894 -0.0701972 -0.510313 
4.1927 -0.0903939 -0.465676 4.15168 -0.134212 -0.452967 4.10539 -0.174059 -0.472067 
4.05902 -0.215897 -0.498304 4.01776 -0.265685 -0.506997 3.971 -0.297824 -0.505172 
3.92068 -0.319122 -0.498635 3.87035 -0.340419 -0.492098 3.82372 -0.370666 -0.483109 
3.78347 -0.414133 -0.462814 3.74151 -0.449088 -0.429497 3.7024 -0.484335 -0.373062 
3.66074 -0.511237 -0.311221 3.62015 -0.542919 -0.255764 3.56864 -0.554779 -0.228776 
4.87741 -1.53947 -0.346432 4.85575 -1.47894 -0.31692 4.82498 -1.41797 -0.272037 
4.78012 -1.36041 -0.218343 4.74773 -1.2981 -0.166123 4.71714 -1.2351 -0.114124 
4.68515 -1.17263 -0.0619505 4.69083 -1.09512 -0.011856 4.70794 -1.01258 0.0366914 
4.71655 -0.929862 0.0827352 4.86403 -0.321701 -0.609066 4.84283 -0.368113 -0.503579 
4.83807 -0.404838 -0.40291 4.82317 -0.441385 -0.277179 4.81989 -0.478646 -0.0994747 
6.01851 0.173778 -0.680192 5.9717 0.157327 -0.502004 6.13495 0.129753 -0.85771 
6.2046 0.101221 -0.842883 6.26324 0.0724104 -0.81247 6.29524 0.0405807 -0.752701 
6.30497 0.0054766 -0.668676 6.28577 -0.0401711 -0.563426 6.24534 -1.00146 -0.469129 
6.28466 -0.973389 -0.63123 6.31582 -0.92737 -0.731596 6.34454 -0.865961 -0.774711 
6.36424 -0.797497 -0.778655 6.36842 -0.727122 -0.752196 6.37576 -0.651625 -0.711816 
6.36732 -0.580184 -0.662425 6.34968 -0.510291 -0.60481 6.33213 -0.438404 -0.540048 
6.32384 -0.361035 -0.469253 6.32937 -0.28289 -0.416768 6.31941 -0.217146 -0.391414 
6.29312 -0.160547 -0.406891 6.11054 -0.892969 -0.0286548 6.05925 -0.787161 0.173156 
6.00144 -0.706367 0.325625 5.9442 -0.638441 0.435536 5.89892 -0.577128 0.503565 
5.83921 -0.527187 0.551867 5.77005 -0.484763 0.586992 5.69928 -0.440993 0.629453 
5.62832 -0.397875 0.669544 5.55613 -0.357811 0.695105 5.47695 -0.321369 0.685876 
4.75979 -0.631287 -0.117711 4.7148 -0.723959 -0.248341 4.70879 -0.78087 -0.22983 
4.71102 -0.8127 -0.0883211 6.15183 -0.0333497 -0.336876 6.07017 0.0190491 -0.273612 
5.99213 0.0630508 -0.278557 3.44665 -0.476554 -0.133793 3.40343 -0.410537 -0.0517137 
3.35711 -0.345698 0.0307309 3.32675 -0.272825 0.118429 3.30576 -0.196377 0.205018 
3.28622 -0.125251 0.270016 3.26643 -0.0620505 0.306453 3.24623 -0.008801 0.307215 
3.22577 0.0384782 0.286575 3.20523 0.0837698 0.258808 3.18494 0.135031 0.252442 
3.16498 0.19425 0.274606 3.14501 0.255424 0.303928 3.12318 0.311972 0.319175 
3.09174 0.357022 0.306981 3.04621 0.396706 0.29645 3.01475 0.443709 0.291405 
2.99094 0.497543 0.299739 2.95768 0.543859 0.294907 2.90111 0.577375 0.278534 
2.84623 0.60958 0.254813 2.82594 0.660841 0.248447 -0.348521 -0.125321 -0.294507 
-0.344859 -0.066889 -0.310849 -0.336292 -0.00658779 -0.327772 -0.33263 0.0518438 -0.344114 
-0.314887 0.115642 -0.362121 -0.297246 0.179402 -0.380115 -0.295376 0.23715 -0.396246 
-0.297765 0.29512 -0.404695 -0.318165 0.348253 -0.396205 -0.304788 0.409773 -0.367385 
-0.267098 0.464737 -0.337013 -0.231196 0.526957 -0.331724 -0.195566 0.577213 -0.369235 
-0.154543 0.607843 -0.424415 -0.114751 0.641451 -0.480401 -0.0683774 0.665728 -0.510791 
-0.0181344 0.685034 -0.524465 0.0321932 0.706332 -0.531002 0.078857 0.736489 -0.539966 
0.119875 0.780298 -0.552673 0.165908 0.814176 -0.554974 0.212151 0.851933 -0.542984 
0.254266 0.904064 -0.519568 0.305093 0.935122 -0.490387 0.362042 0.946993 -0.471292 
0.412061 0.973425 -0.463881 0.46964 0.981576 -0.45145 0.52467 0.995888 -0.440717 
0.577147 1.01199 -0.44583 0.632517 1.0167 -0.463177 0.693585 1.00983 -0.469677 
0.749927 1.01878 -0.465146 0.807113 1.03008 -0.445904 0.872934 1.02049 -0.420939 
0.938799 1.01299 -0.388864 0.995563 1.03189 -0.348668 1.04875 1.06163 -0.303752 
1.10551 1.08053 -0.263555 1.17138 1.07303 -0.23148 1.23724 1.06554 -0.199406 
1.29409 1.08642 -0.152072 1.34753 1.12214 -0.0857547 1.40476 1.1509 -0.00985773 
1.47163 1.14753 0.0441219 1.54238 1.12165 0.0581978 1.61279 1.0878 0.0437257 
1.67894 1.06644 0.0335254 1.73617 1.07764 0.0527944 1.79293 1.09653 0.0930009 
1.85459 1.1036 0.136441 1.91034 1.11836 0.154733 1.96223 1.13809 0.156308 
5.79231 0.218682 -0.109391 5.72117 0.272031 0.0880602 5.67345 0.280804 0.232311 
5.63845 0.247575 0.330432 5.60943 0.195847 0.406731 5.59153 0.142099 0.498839 
4.80798 -0.75647 0.18517 4.85709 -0.696813 0.221791 4.87632 -0.625097 0.197073 
4.99228 -0.459432 0.354573 5.06566 -0.375403 0.524447 5.11791 -0.320958 0.608624 
5.16955 -0.295763 0.623411 5.22642 -0.289661 0.610788 5.29795 -0.293416 0.618682 
5.79411 -0.0645516 0.51564 5.74768 -0.00883967 0.562175 5.68181 0.0396147 0.595578 
2.73574 -0.732452 0.668935 2.78237 -0.702205 0.659946 2.82271 -0.656747 0.646788 
2.86496 -0.615921 0.634899 2.90525 -0.570365 0.621714 2.95112 -0.538291 0.612224 
2.99632 -0.504577 0.602285 3.03216 -0.448253 0.586149 5.4226 -0.187737 0.656937 
5.46062 -0.117876 0.660069 5.50286 -0.0687815 0.656132 5.5449 -0.00260868 0.63974 
1.00024 -0.278142 0.978049 1.0622 -0.282767 0.9863 1.12232 -0.280773 1.00041 
1.18521 -0.281059 1.03051 1.24554 -0.275182 1.05892 1.30851 -0.273477 1.09615 
1.36884 -0.267599 1.12456 1.43176 -0.267984 1.15469 1.49264 -0.267817 1.1693 
1.55973 -0.28485 1.18095 1.63043 -0.312823 1.18791 1.70113 -0.340796 1.19488 
1.76826 -0.357927 1.20656 1.82976 -0.359537 1.22165 1.89515 -0.373402 1.24782 
1.95301 -0.404425 1.26348 1.98615 -0.452633 1.26116 
LINES 41 549
8 38 39 40 41 42 43 44 36 
7 37 45 46 47 48 49 33 
38 37 50 51 52 53 54 55 56 57 58 59 60 61 62 63 64 65 66 67 68 69 70 71 72 73 74 75 76 77 78 79 80 81 82 83 84 85 27 
3 37 86 34 
18 35 87 88 89 90 91 92 93 94 95 96 97 98 99 100 101 102 29 
5 34 103 104 105 33 
18 34 106 107 108 109 110 111 112 113 114 115 116 117 118 119 120 121 24 
18 33 122 123 124 125 126 127 128 129 130 131 132 133 134 135 136 137 24 
7 32 138 139 140 141 142 29 
33 31 143 144 145 146 147 148 149 150 151 152 153 154 155 156 157 158 159 160 161 162 163 164 165 166 167 168 169 170 171 172 173 20 
8 23 174 175 176 177 178 179 21 
4 21 185 186 30 
5 29 187 188 189 16 
4 23 190 191 22 
6 21 192 193 194 195 17 
9 26 196 197 198 199 200 201 202 18 
15 25 203 204 205 206 207 208 209 210 211 212 213 214 215 20 
15 25 216 217 218 219 220 221 222 223 224 225 226 227 228 20 
29 25 229 230 231 232 233 234 235 236 237 238 239 240 241 242 243 244 245 246 247 248 249 250 251 252 253 254 255 10 
7 24 256 257 258 259 260 14 
3 23 261 17 
8 22 262 263 264 265 266 267 12 
22 21 268 269 270 271 272 273 274 275 276 277 278 279 280 281 282 283 284 285 286 287 14 
12 19 288 289 290 291 292 293 294 295 296 297 11 
7 17 298 299 300 301 302 9 
4 18 303 304 12 
8 18 305 306 307 308 309 310 15 
16 16 311 312 313 314 315 316 317 318 319 320 321 322 323 324 15 
13 16 325 326 327 328 329 330 331 332 333 334 335 3 
6 9 336 337 338 339 11 
5 15 340 341 342 12 
24 14 343 344 345 346 347 348 349 350 351 352 353 354 355 356 357 358 359 360 361 362 363 364 5 
54 13 365 366 367 368 369 370 371 372 373 374 375 376 377 378 379 380 381 382 383 384 385 386 387 388 389 390 391 392 393 394 395 396 397 398 399 400 401 402 403 404 405 406 407 408 409 410 411 412 413 414 415 416 4 
8 12 417 418 419 420 421 422 2 
5 11 423 424 425 9 
8 9 426 427 428 429 430 431 3 
5 8 432 433 434 2 
10 7 435 436 437 438 439 440 441 442 6 
6 3 443 444 445 446 2 
19 1 447 448 449 450 451 452 453 454 455 456 457 458 459 460 461 462 463 0 
8 23 182 181 180 28 183 184 22 

POINT_DATA 464
SCALARS DY_raw double
LOOKUP_TABLE default
762.411 737.863 1032.88 753.149 1568.09 1213.3 1110.23 789.218 926.359 
775.328 1168.29 740.164 834.254 829.508 779.668 758.678 980.429 916.043 
860.571 609.014 1155.73 714.746 693.398 583.399 833.145 720.923 1372.16 
1033.23 667.46 860.124 545.167 679.964 421.744 840.321 718.243 793.99 
1335.84 772.03 1130.49 1217.91 1124.63 1159.32 1170.75 1368.83 1335.84 
662.206 721.22 876.941 923.651 802.977 772.03 814.892 895.175 873.887 
832.476 1003.64 950.744 798.835 831.059 770.097 750.214 727.74 795.49 
906.566 881.15 937.684 959.455 1010.23 863.408 877.676 903.128 903.128 
992.361 992.361 914.055 971.116 971.116 997.665 1023.76 924.599 923.189 
786.016 826.059 904.123 904.597 876.419 696.438 793.99 711.376 631.867 
600.306 670.127 748.315 677.6 714.438 682.075 756.686 760.422 826.919 
816.313 858.511 872.11 830.707 912.226 975.53 899.922 778.059 739.855 
781.092 837.292 697.001 737.893 654.566 646.379 628.536 739.652 671.905 
740.243 743.837 718.058 761.935 744.193 772.08 760.816 760.816 806.9 
799.678 870.324 836.603 796.011 777.242 743.799 723.888 776.537 793.558 
914.915 960.083 796.074 449.008 517.412 601.33 731.352 835.825 847.463 
771.538 708.208 800.363 750.196 651.725 657.498 712.475 645.133 667.582 
756.817 786.716 748.03 782.445 721.808 662.728 672.931 672.931 698.059 
781.151 781.151 834.952 840.866 840.866 835.807 795.637 872.937 730.437 
816.998 844.141 907.007 746.568 694.257 641.338 702.544 674.072 733.45 
681.107 651.587 644.507 740.583 652.372 681.148 570.231 919.433 882.035 
893.718 578.856 637.521 709.266 773.423 807.457 856.419 949.353 888.843 
957.393 755.362 908.867 768.415 670.837 731.683 671.914 608.989 613.686 
674.139 658.822 838.856 761.07 742.307 842.777 795.172 816.929 949.908 
927.759 933.239 918.716 815.726 744.124 677.139 726.582 833.639 833.639 
890.924 1126.54 891.152 977.256 877.095 762.297 802.082 873.877 888.173 
845.464 828.117 828.117 857.937 895.104 967.174 854.032 812.863 736.647 
774.245 717.347 746.235 819.776 820.854 899.1 867.446 811.109 880.837 
921.427 977.521 977.521 1072.44 777.903 749.539 760.146 746.364 685.381 
840.463 654.478 703.54 733.801 778.41 734.53 857.803 874.791 899.065 
902.822 800.478 842.954 829.858 806.266 694.482 644.36 644.36 675.328 
781.504 759.022 808.525 810.341 782.394 841.278 808.191 852.023 757.029 
622.643 621.166 759.737 826.82 858.727 775.344 817.661 763.836 735.132 
716.818 883.524 871.098 842.307 902.913 845.323 839.171 828.903 738.969 
632.898 781.532 730.014 748.446 727.885 1153.48 1055.93 813.952 730.696 
772.848 898.455 933.289 970.799 1035.92 1146.27 1099.43 866.911 855.111 
824.663 896.855 818.125 978.789 1020.34 1019.75 1105.04 965.482 980.211 
800.21 793.246 781.678 758.872 696.509 666.038 717.719 849.649 1116.08 
1054.63 797.998 825.349 941.736 987.517 982.262 999.085 1037.12 996.624 
996.624 959.839 964.207 1074.56 1051.98 1139.58 1100 1025.94 1025.94 
975.179 969.481 969.481 973.952 1054.33 812.628 776.483 833.883 843.961 
871.026 868.94 908.44 889.792 834.248 879.631 974.426 1011.02 1042.74 
1046.16 1002.62 1002.62 926.088 859.84 843.79 843.79 958.801 817.829 
837.34 837.34 915.076 952.943 952.943 1109.83 1022.24 918.197 981.437 
851.956 935.285 982.493 888.56 875.275 862.997 941.282 1105.58 1202.89 
1304.2 1396.74 1579.53 1385.79 1233.31 1233.31 957.027 912.86 910.405 
909.296 1124.45 1124.45 1299.33 1276.2 1303.55 1166.54 1065.5 995.248 
741.703 730.314 714.768 984.144 1101.13 1095.02 1022.72 928.21 844.005 
1030.39 1006.96 998.233 800.409 787.228 767.295 839.258 756.885 858.397 
810.858 958.272 849.856 881.859 981.932 996.796 687.708 720.238 703.45 
723.337 760.394 760.394 849.377 849.377 900.858 866.465 866.465 777.045 
738.545 675.212 784.949 847.374 847.374 
FIELD FieldData 7
DY_minmax 1 464 double
0.294239 0.273037 0.527843 0.28624 0.990115 0.683682 0.594652 0.317393 0.435843 
0.305395 0.644799 0.275024 0.356291 0.352191 0.309144 0.291015 0.482545 0.426933 
0.379021 0.161748 0.633957 0.25307 0.234632 0.139624 0.355333 0.258405 0.820889 
0.528152 0.212228 0.378635 0.106602 0.223028 0 0.361531 0.25609 0.321515 
0.789514 0.302547 0.612155 0.687658 0.607094 0.637053 0.646927 0.81801 0.789514 
0.20769 0.258662 0.393161 0.433505 0.329276 0.302547 0.339567 0.40891 0.390523 
0.354755 0.502594 0.456905 0.325699 0.353531 0.300877 0.283704 0.264293 0.322809 
0.418748 0.396795 0.445625 0.464429 0.508288 0.381472 0.393795 0.415778 0.415778 
0.49285 0.49285 0.425216 0.474501 0.474501 0.497431 0.519966 0.434323 0.433105 
0.314627 0.349213 0.416638 0.417047 0.392709 0.237257 0.321515 0.250159 0.181486 
0.154227 0.214532 0.282064 0.220986 0.252804 0.224852 0.289294 0.292521 0.349956 
0.340795 0.377242 0.388988 0.353227 0.423637 0.478313 0.413009 0.307755 0.274757 
0.310374 0.358915 0.237743 0.273062 0.201092 0.19402 0.178609 0.274582 0.216068 
0.275092 0.278197 0.255931 0.293828 0.278504 0.30259 0.292861 0.292861 0.332665 
0.326427 0.387445 0.358319 0.32326 0.307049 0.278164 0.260966 0.30644 0.321141 
0.425959 0.464971 0.323314 0.0235485 0.0826294 0.155111 0.267413 0.357648 0.3677 
0.302122 0.247423 0.327018 0.283688 0.198638 0.203624 0.251108 0.192944 0.212334 
0.289407 0.315231 0.281818 0.311542 0.25917 0.208141 0.216954 0.216954 0.238657 
0.310425 0.310425 0.356893 0.362002 0.362002 0.357632 0.322937 0.389702 0.266623 
0.341386 0.36483 0.419128 0.280555 0.235373 0.189667 0.242531 0.217939 0.269225 
0.224016 0.198518 0.192404 0.275386 0.199196 0.224051 0.12825 0.429861 0.39756 
0.407651 0.1357 0.18637 0.248336 0.30375 0.333146 0.375435 0.455704 0.40344 
0.462648 0.28815 0.420735 0.299425 0.215145 0.267699 0.216075 0.161726 0.165783 
0.217997 0.204768 0.360266 0.29308 0.276875 0.363653 0.322535 0.341327 0.456183 
0.437053 0.441786 0.429242 0.340288 0.278444 0.220589 0.263293 0.35576 0.35576 
0.405238 0.608745 0.405435 0.479803 0.393293 0.29414 0.328503 0.390514 0.402862 
0.365973 0.35099 0.35099 0.376746 0.408848 0.471096 0.373373 0.337815 0.271986 
0.30446 0.255317 0.280268 0.343786 0.344717 0.412299 0.38496 0.3363 0.396525 
0.431584 0.480033 0.480033 0.562012 0.30762 0.283122 0.292283 0.280379 0.227707 
0.361653 0.201016 0.243391 0.269528 0.308058 0.270157 0.376631 0.391303 0.412269 
0.415514 0.327118 0.363805 0.352494 0.332117 0.235567 0.192276 0.192276 0.219024 
0.31073 0.291312 0.334068 0.335637 0.311499 0.362358 0.33378 0.371638 0.289591 
0.173519 0.172244 0.291929 0.34987 0.377428 0.305409 0.341959 0.29547 0.270677 
0.254859 0.398846 0.388114 0.363246 0.415592 0.365851 0.360538 0.351669 0.273992 
0.182377 0.310754 0.266257 0.282177 0.264419 0.632008 0.547752 0.338756 0.266846 
0.303253 0.411742 0.441829 0.474227 0.530472 0.625782 0.58533 0.384497 0.374306 
0.348007 0.41036 0.34236 0.481128 0.517019 0.516511 0.590169 0.469634 0.482356 
0.326886 0.320872 0.31088 0.291182 0.237319 0.211001 0.255638 0.369588 0.599706 
0.546629 0.324976 0.348599 0.449124 0.488666 0.484127 0.498658 0.531512 0.496532 
0.496532 0.464761 0.468533 0.563845 0.544341 0.620006 0.585821 0.521851 0.521851 
0.47801 0.473089 0.473089 0.47695 0.54637 0.337612 0.306393 0.35597 0.364675 
0.388051 0.38625 0.420366 0.40426 0.356285 0.395483 0.477359 0.508969 0.536365 
0.539318 0.501707 0.501707 0.43561 0.37839 0.364527 0.364527 0.463864 0.342104 
0.358956 0.358956 0.426098 0.458804 0.458804 0.594308 0.518655 0.428794 0.483415 
0.37158 0.443553 0.484327 0.403195 0.391721 0.381116 0.448732 0.590643 0.674689 
0.762191 0.842116 1 0.832661 0.700958 0.700958 0.462332 0.424184 0.422064 
0.421105 0.606934 0.606934 0.757985 0.738003 0.761628 0.643289 0.556023 0.495343 
0.276353 0.266516 0.253089 0.485753 0.586795 0.581522 0.519069 0.437442 0.364713 
0.525697 0.505461 0.497922 0.327058 0.315674 0.298458 0.360612 0.289466 0.377144 
0.336083 0.463407 0.369767 0.397408 0.483842 0.49668 0.229716 0.257814 0.243314 
0.260491 0.292497 0.292497 0.369353 0.369353 0.413818 0.384112 0.384112 0.306879 
0.273625 0.218924 0.313705 0.367623 0.367623 
WidthEq 1 464 double
2.25422 3.55443 3.5187 3.95786 2.38179 2.6861 3.32938 3.16748 4.37421 
5.62925 2.44596 4.82989 7.14033 3.35031 4.18111 5.22 6.10406 7.23721 
4.89811 4.10613 4.33162 7.34448 6.66277 6.79258 5.80661 4.41317 1 
4.19743 6.92728 5.0219 5.18298 4.64685 3.17693 4.82088 4.93383 4.80175 
4.18655 4.97846 3.48917 3.3856 4.13988 4.49954 4.88118 3.99379 4.18655 
5.2751 5.12085 4.54519 4.43886 5.14186 4.97846 4.43978 4.46589 4.38886 
4.59481 4.37584 4.4098 4.83186 5.1528 5.66334 5.81626 5.81592 5.56045 
5.41429 5.51749 5.25596 5.32377 5.11555 5.19196 4.95773 4.80705 4.80705 
4.38353 4.38353 4.4597 4.23856 4.23856 4.13672 4.03699 4.30321 4.48621 
5.26031 5.14481 5.31195 5.43747 5.51711 4.89794 4.80175 5.78455 6.26871 
5.77347 5.03604 4.70083 4.60667 4.42982 4.42714 4.27251 4.30011 4.18975 
4.41007 4.46017 4.49383 4.66072 4.13019 3.97183 4.53139 4.70746 4.61187 
4.80515 4.91133 5.52595 5.81555 6.23989 6.13985 5.87884 5.73785 5.60229 
5.48173 5.45199 5.73849 5.66694 6.13244 5.0753 5.10192 5.10192 4.91334 
4.97092 4.76058 4.75355 4.93322 5.01861 4.83608 4.53829 4.55701 4.2044 
4.08886 4.25902 5.80882 3.42513 4.58577 5.32823 5.49886 5.28326 4.66004 
5.32364 5.52884 5.29944 5.33292 5.27333 5.26592 5.29288 5.02874 5.00763 
4.96793 5.28316 6.20246 6.17925 7.29278 8.01807 8.09734 8.09734 7.94088 
7.32347 7.32347 7.14458 7.31994 7.31994 7.38197 7.5868 7.1023 7.55539 
6.90842 6.22361 5.43856 6.22952 6.09825 6.24557 5.8923 6.43955 6.70389 
6.66375 6.71202 6.61249 6.76691 6.60746 6.19057 5.91722 5.24118 5.66592 
6.46555 6.84516 6.84611 7.27667 6.81905 7.01671 7.33462 2.27985 3.11309 
3.06534 4.48261 3.89855 4.59886 5.3372 4.94002 5.03502 5.01249 5.37588 
5.35467 5.52388 4.49593 5.00674 4.91031 3.97357 4.66463 4.73859 4.74488 
4.42833 4.73506 5.19675 5.71524 6.77925 7.1507 7.02147 6.1319 6.1319 
5.70569 4.71521 5.37615 5.20358 4.4702 5.96338 6.90498 6.86664 7.00743 
7.00651 6.85495 6.85495 6.44217 5.62347 4.95637 5.37561 5.32418 5.71164 
5.67259 5.65613 5.28965 5.01946 4.65243 4.465 4.53553 4.64505 4.40603 
4.27204 3.93213 3.93213 3.13247 6.29519 5.81001 5.49369 5.45562 4.9771 
6.72602 6.54771 6.26691 6.02184 6.29336 7.06351 6.70723 5.26575 4.70331 
4.21721 3.72992 3.51527 2.94464 2.75402 2.94365 2.92669 2.92669 2.81472 
2.49667 2.48624 2.54045 2.57468 2.65697 2.99637 3.52615 3.47472 4.54604 
5.42163 5.60457 5.22364 5.10583 4.78988 5.10341 5.04522 5.11252 5.11602 
5.06949 7.64006 7.6108 7.46977 6.64043 6.42446 5.99958 6.83612 5.48061 
5.52813 4.71572 4.50892 4.31616 4.7958 4.72411 4.615 5.40909 5.77707 
5.45776 4.4322 4.46741 3.67061 3.00181 3.08974 3.13165 3.97391 4.38397 
4.81677 6.06722 5.73992 4.46456 3.68767 3.39685 3.01523 2.96911 2.98016 
3.34307 3.56041 3.81024 5.82653 5.28394 4.58308 4.59277 5.35929 5.26568 
5.93034 4.50851 3.99603 4.03414 3.95497 3.93383 3.99831 3.82068 3.73012 
3.73012 3.57322 3.47169 3.30664 3.41496 3.2687 3.42689 3.62887 3.62887 
3.80487 3.80569 3.80569 3.35541 2.94018 4.70073 4.21769 4.80939 4.50426 
3.82285 4.2511 3.67234 4.06435 4.55015 4.32714 3.85647 3.43937 3.31789 
2.84484 2.62747 2.62747 2.55347 2.90483 3.13257 3.13257 3.29083 4.17917 
4.41337 4.41337 4.39189 4.21979 4.21979 3.70664 3.78397 4.06558 3.81741 
4.08522 4.027 4.13856 4.4668 4.73023 4.85018 4.67469 3.65722 3.26894 
3.1186 2.34943 2.03039 2.12788 2.90116 2.90116 4.08094 4.59947 4.52826 
4.68655 3.81136 3.81136 4.55939 4.28869 3.6584 3.82061 3.80796 3.81422 
4.81154 5.05759 5.40787 3.88995 3.31687 3.14688 3.07825 3.29824 3.53427 
4.2668 4.1927 3.9341 3.3205 3.65178 3.68118 3.73138 3.95694 3.85854 
4.04739 3.7738 3.61983 3.33964 3.2274 3.37013 5.18564 5.11698 5.27979 
5.1613 4.5046 4.5046 3.81476 3.81476 3.59746 4.02102 4.02102 4.55868 
4.87438 5.18078 4.49026 3.77503 3.77503 
rRFP 1 464 double
2887.26 3269.78 3259.27 3388.47 2924.79 3014.32 3203.57 3155.94 3510.96 
3880.19 2943.67 3645.02 4324.75 3209.73 3454.15 3759.79 4019.88 4353.25 
3665.09 3432.09 3498.43 4384.81 4184.25 4222.44 3932.37 3522.42 2518.27 
3458.95 4262.07 3701.51 3748.9 3591.17 3158.72 3642.37 3675.6 3636.74 
3455.75 3688.73 3250.58 3220.11 3442.02 3547.83 3660.11 3399.04 3455.75 
3776 3730.62 3561.26 3529.98 3736.8 3688.73 3530.25 3537.93 3515.27 
3575.86 3511.44 3521.43 3645.6 3740.02 3890.22 3935.21 3935.11 3859.95 
3816.95 3847.31 3770.37 3790.32 3729.06 3751.54 3682.63 3638.3 3638.3 
3513.7 3513.7 3536.11 3471.05 3471.05 3441.09 3411.75 3490.07 3543.91 
3771.65 3737.67 3786.84 3823.77 3847.2 3665.04 3636.74 3925.88 4068.32 
3922.62 3705.67 3607.05 3579.35 3527.32 3526.53 3481.04 3489.16 3456.69 
3521.51 3536.25 3546.15 3595.25 3439.17 3392.58 3557.2 3609 3580.88 
3637.74 3668.98 3849.8 3935 4059.84 4030.41 3953.62 3912.14 3872.26 
3836.79 3828.04 3912.33 3891.28 4028.23 3717.22 3725.05 3725.05 3669.57 
3686.51 3624.63 3622.56 3675.42 3700.54 3646.84 3559.23 3564.74 3461 
3427.01 3477.07 3933.02 3231.74 3573.2 3791.63 3841.83 3778.4 3595.05 
3790.28 3850.65 3783.16 3793.01 3775.48 3773.3 3781.23 3703.52 3697.31 
3685.63 3778.37 4048.83 4042 4369.6 4582.98 4606.3 4606.3 4560.27 
4378.63 4378.63 4326 4377.59 4377.59 4395.84 4456.1 4313.56 4446.86 
4256.52 4055.05 3824.09 4056.79 4018.17 4061.51 3957.58 4118.58 4196.35 
4184.54 4198.74 4169.46 4214.89 4167.98 4045.33 3964.91 3766.02 3890.98 
4126.23 4237.91 4238.19 4364.86 4230.23 4288.38 4381.91 2894.8 3139.94 
3125.89 3542.85 3371.02 3577.05 3794.27 3677.42 3705.37 3698.74 3805.65 
3799.41 3849.19 3546.77 3697.05 3668.68 3393.09 3596.4 3618.16 3620.01 
3526.88 3617.12 3752.95 3905.49 4218.52 4327.8 4289.78 4028.07 4028.07 
3902.68 3611.28 3805.73 3754.96 3539.2 3978.49 4255.51 4244.23 4285.65 
4285.38 4240.79 4240.79 4119.35 3878.49 3682.23 3805.57 3790.44 3904.43 
3892.94 3888.1 3780.28 3700.79 3592.81 3537.67 3558.42 3590.64 3520.32 
3480.9 3380.9 3380.9 3145.64 4076.11 3933.37 3840.31 3829.11 3688.33 
4202.86 4150.4 4067.79 3995.69 4075.57 4302.15 4197.33 3773.25 3607.78 
3464.77 3321.41 3258.26 3090.38 3034.3 3090.09 3085.1 3085.1 3052.16 
2958.59 2955.52 2971.47 2981.54 3005.75 3105.6 3261.46 3246.33 3561.51 
3819.11 3872.93 3760.86 3726.2 3633.25 3725.49 3708.37 3728.17 3729.2 
3715.51 4471.77 4463.16 4421.67 4177.68 4114.14 3989.14 4235.25 3836.46 
3850.44 3611.43 3550.59 3493.88 3634.99 3613.9 3581.8 3815.42 3923.68 
3829.74 3528.02 3538.38 3303.96 3107.2 3133.07 3145.4 3393.19 3513.83 
3641.16 4009.04 3912.75 3537.54 3308.98 3223.42 3111.15 3097.58 3100.83 
3207.6 3271.54 3345.04 3938.23 3778.6 3572.41 3575.26 3800.77 3773.23 
3968.77 3550.47 3399.7 3410.91 3387.62 3381.4 3400.37 3348.11 3321.47 
3321.47 3275.31 3245.44 3196.88 3228.75 3185.72 3232.26 3291.68 3291.68 
3343.46 3343.7 3343.7 3211.23 3089.07 3607.02 3464.91 3638.99 3549.22 
3348.75 3474.74 3304.47 3419.8 3562.72 3497.11 3358.64 3235.93 3200.19 
3061.02 2997.07 2997.07 2975.3 3078.67 3145.67 3145.67 3192.23 3453.58 
3522.48 3522.48 3516.16 3465.53 3465.53 3314.56 3337.31 3420.16 3347.15 
3425.94 3408.81 3441.63 3538.2 3615.7 3650.99 3599.36 3300.02 3185.79 
3141.56 2915.27 2821.41 2850.09 3077.59 3077.59 3424.68 3577.23 3556.28 
3602.85 3345.37 3345.37 3565.44 3485.8 3300.37 3348.09 3344.37 3346.21 