# vtk DataFile Version 3.0
vtk output
ASCII
DATASET POLYDATA
POINTS 467 float
1.3253 0.711021 0.72813 1.43303 0.732434 0.734219 1.79861 0.580955 0.760694 
-0.32982 0.0976548 0.0406066 2.94121 -0.503631 0.257941 2.06715 -1.69366 0.0344356 
-0.393276 0.288869 -0.502786 -0.476255 -0.0290248 -0.566482 1.35087 -2.09066 -0.801239 
5.66235 -0.393094 -0.579329 6.12674 0.0914747 -0.563249 3.31928 0.0437284 -1.06924 
1.19305 1.67323 -1.30944 3.19319 0.382087 -1.35306 3.39635 -0.0818627 -1.3285 
6.43129 -0.431217 -1.13226 6.54154 0.431252 -1.14782 6.6644 -0.150191 -1.40078 
6.67973 -0.426996 -1.56805 7.00361 -0.266447 -1.6672 2.54134 0.965754 -1.80929 
7.10393 0.247617 -1.50926 3.1207 -0.21555 -1.94338 5.79343 0.707981 -1.80247 
6.18999 0.114364 -1.76262 6.49279 0.566813 -1.75568 6.76126 0.339993 -1.73324 
6.99085 0.140266 -1.78072 0.455613 -0.151758 -2.71074 5.22643 0.348268 -2.42946 
1.43406 -1.08562 -2.82663 1.48565 -1.07396 -2.78663 1.5386 -1.06287 -2.76881 
1.59291 -1.05235 -2.77316 1.6486 -1.04241 -2.79968 1.70426 -1.03237 -2.82619 
1.75958 -1.02053 -2.85278 1.8116 -0.998332 -2.85758 1.85976 -0.960783 -2.84815 
1.90958 -0.935912 -2.82346 1.95986 -0.911232 -2.80615 2.00801 -0.873585 -2.79673 
2.0592 -0.849288 -2.7942 2.11037 -0.824894 -2.79168 2.15816 -0.785443 -2.78233 
2.20651 -0.750977 -2.7654 2.25296 -0.71106 -2.73387 2.30268 -0.687791 -2.70171 
2.35387 -0.674126 -2.66179 2.40551 -0.660653 -2.62925 2.4548 -0.6373 -2.5897 
2.50162 -0.599275 -2.55811 2.55088 -0.575815 -2.51856 2.60217 -0.560557 -2.48609 
2.65144 -0.537097 -2.44654 2.6978 -0.498879 -2.40755 2.74615 -0.475036 -2.35322 
2.79562 -0.459012 -2.29119 2.84349 -0.434869 -2.22947 2.88903 -0.394568 -2.18317 
2.93647 -0.35972 -2.15145 2.9829 -0.319703 -2.11993 3.03131 -0.294042 -2.07307 
3.07848 -0.26632 -2.01148 7.13057 -0.236883 -1.86146 7.18714 -0.255609 -1.93085 
7.1386 -0.281996 -1.84494 5.17867 0.287357 -2.36401 5.13173 0.235092 -2.34328 
5.08424 0.198327 -2.36752 5.03865 0.156217 -2.40637 4.99079 0.121344 -2.43068 
4.94335 0.0801082 -2.43997 4.89413 0.0458105 -2.44211 4.84623 0.00476648 -2.444 
4.79699 -0.0294237 -2.44615 4.74824 -0.0682755 -2.44073 4.69542 -0.0885025 -2.42862 
4.63826 -0.0888385 -2.40986 4.57827 -0.0726186 -2.39913 4.52082 -0.069352 -2.38792 
4.46244 -0.0656035 -2.36192 4.39895 -0.0459132 -2.29953 4.33561 -0.0281753 -2.19996 
4.27787 0.00853173 -2.08569 4.23382 0.056113 -1.97828 4.17792 0.0919438 -1.89357 
4.11677 0.107023 -1.82348 4.05606 0.114716 -1.76804 4.00236 0.0904121 -1.72618 
3.94908 0.070387 -1.70668 3.89551 0.0560776 -1.70218 3.84388 0.0318645 -1.69731 
3.79617 -0.016498 -1.67673 3.74709 -0.0642853 -1.63398 3.69271 -0.0872406 -1.58476 
3.63651 -0.0987978 -1.54339 3.58082 -0.108738 -1.51687 3.52429 -0.116486 -1.48303 
3.46365 -0.111878 -1.42008 0.445009 -0.097829 -2.7128 0.434297 -0.0439212 -2.71485 
0.421804 0.00963222 -2.71701 0.399516 0.0612392 -2.71973 0.362403 0.109899 -2.72328 
0.340125 0.161507 -2.72599 0.327631 0.215061 -2.72815 0.316464 0.26916 -2.72281 
0.304493 0.323664 -2.70269 0.291047 0.378721 -2.66041 0.275469 0.433637 -2.61082 
0.252347 0.486771 -2.56908 0.22554 0.538326 -2.5498 0.229316 0.595396 -2.54362 
0.228138 0.651481 -2.53772 0.219849 0.706717 -2.5174 0.218399 0.764158 -2.47444 
0.233589 0.824796 -2.43052 0.246888 0.882639 -2.40151 0.28114 0.932945 -2.40812 
0.329487 0.968087 -2.42832 0.379931 1.00625 -2.46332 0.433669 1.02609 -2.49022 
0.491301 1.02613 -2.51636 0.551666 1.00802 -2.52701 0.611431 0.992955 -2.53779 
0.674923 0.961061 -2.55532 0.74138 0.920474 -2.5947 0.806715 0.887715 -2.6418 
0.868697 0.869886 -2.68206 0.932232 0.837776 -2.69957 0.99676 0.796362 -2.70195 
1.06083 0.755139 -2.69693 1.12346 0.723413 -2.69967 1.18405 0.706266 -2.71776 
1.24858 0.675484 -2.75752 1.31356 0.644511 -2.80468 1.37552 0.626789 -2.84494 
1.43904 0.594787 -2.86246 1.50321 0.555158 -2.8649 1.56536 0.523731 -2.86026 
1.62459 0.507159 -2.85617 1.68636 0.477634 -2.8516 1.74778 0.449894 -2.84709 
1.80471 0.44501 -2.84345 1.86118 0.440318 -2.83242 1.92121 0.41326 -2.80575 
1.98033 0.386586 -2.76429 2.03496 0.382768 -2.72371 2.09015 0.380351 -2.69796 
2.14834 0.3648 -2.67913 2.20358 0.364192 -2.66085 2.25647 0.373473 -2.63556 
2.30936 0.382754 -2.61027 2.36372 0.382431 -2.57721 2.42044 0.365842 -2.52874 
2.47573 0.354406 -2.47306 2.53238 0.336008 -2.41712 2.5885 0.322488 -2.36877 
2.64708 0.294294 -2.31246 2.70558 0.265982 -2.25614 2.76018 0.250184 -2.20783 
2.8092 0.216882 -2.18167 2.84443 0.170096 -2.17086 2.88542 0.122319 -2.16709 
2.91958 0.0730736 -2.16371 2.96003 0.0253592 -2.15255 2.99272 -0.0233328 -2.127 
3.02911 -0.0704441 -2.079 3.0503 -0.120293 -2.02442 3.07363 -0.169999 -1.97716 
7.05022 -0.10109 -1.8663 7.05095 -0.00896191 -1.96456 7.01606 0.0569548 -1.9217 
6.63315 -0.328916 -1.78969 6.61273 -0.25939 -1.854 6.61724 -0.202329 -1.70208 
6.63967 -0.293897 -1.4951 7.05661 0.187799 -1.64673 6.90928 0.194557 -1.75499 
6.84003 0.242372 -1.73823 6.78773 0.289083 -1.73276 6.70648 0.379213 -1.89354 
6.64983 0.420321 -1.99461 6.59703 0.465864 -1.99905 6.55326 0.516868 -1.90656 
6.69893 0.388787 -1.54533 6.65329 0.428019 -1.37841 6.6002 0.43677 -1.24827 
6.43467 0.605436 -1.85678 6.37698 0.633344 -1.92787 6.32187 0.637462 -1.96107 
6.26577 0.640262 -1.97203 6.20622 0.656398 -1.9687 6.14867 0.658062 -1.95002 
6.09133 0.65229 -1.90887 6.03195 0.654721 -1.86062 5.97012 0.671815 -1.82033 
5.91219 0.675381 -1.80173 5.85483 0.680349 -1.79797 6.52517 0.538669 -1.55993 
6.52394 0.516573 -1.38868 6.513 0.475585 -1.25466 6.54119 -0.103448 -1.66294 
6.47205 -0.0589972 -1.84374 6.4349 -0.0120156 -1.92521 6.38266 0.0331383 -1.94166 
6.31865 0.0755028 -1.91701 6.25286 0.106881 -1.85507 3.18161 -0.242785 -1.93149 
3.23594 -0.243 -1.89843 3.28332 -0.220582 -1.82186 3.32384 -0.178183 -1.69424 
3.36225 -0.137782 -1.52217 6.92306 -0.387999 -1.68047 6.86058 -0.456974 -1.67207 
6.78711 -0.465612 -1.6315 6.8384 -0.17959 -1.5263 2.4788 1.00823 -1.84394 
2.41668 1.05164 -1.85632 2.36308 1.09759 -1.84597 2.32622 1.14686 -1.83468 
2.28608 1.19548 -1.82356 2.26044 1.24727 -1.80421 2.23343 1.29963 -1.7627 
2.19102 1.34921 -1.71462 2.15233 1.39925 -1.67377 2.0983 1.44528 -1.65602 
2.03518 1.48737 -1.64615 1.97176 1.5195 -1.62863 1.90979 1.53722 -1.58837 
1.84483 1.56809 -1.5412 1.78067 1.59698 -1.50137 1.7224 1.60233 -1.48283 
1.66493 1.60571 -1.47161 1.6049 1.62213 -1.46089 1.54654 1.62578 -1.43489 
1.48864 1.62924 -1.41628 1.42815 1.64586 -1.39817 1.37116 1.64893 -1.39434 
1.31326 1.65239 -1.37572 1.25232 1.6692 -1.35022 6.66102 -0.288806 -1.47163 
6.57059 -0.420567 -1.35779 6.49259 -0.423297 -1.2122 6.69497 -0.0148095 -1.17319 
6.67062 0.0653629 -1.01808 6.63583 0.120548 -0.951128 6.59404 0.169121 -0.937336 
6.55998 0.218388 -0.940714 6.52153 0.2665 -0.951759 6.50296 0.317718 -0.983928 
6.50814 0.372243 -1.05183 3.36644 -0.0214789 -1.20323 3.24152 0.335939 -1.34145 
3.26433 0.285283 -1.31646 3.2741 0.232903 -1.26749 3.28194 0.179391 -1.20375 
3.29474 0.119026 -1.13458 3.26357 -0.0268442 -0.813484 3.22962 -0.0858606 -0.591331 
3.18717 -0.144632 -0.424151 3.13772 -0.205552 -0.294468 3.08784 -0.26727 -0.184576 
3.03918 -0.328465 -0.0672163 3.0003 -0.387714 0.0507068 2.97683 -0.444185 0.162081 
6.07797 0.0654673 -0.565584 6.04371 0.0167422 -0.566433 6.02658 -0.0406215 -0.566003 
5.99497 -0.102829 -0.566339 5.95358 -0.166981 -0.567229 5.91006 -0.229703 -0.568287 
5.86448 -0.282542 -0.569729 5.81561 -0.318635 -0.571807 5.76736 -0.357885 -0.573765 
5.71582 -0.380386 -0.576361 1.4074 -2.09355 -0.797677 1.46651 -2.10949 -0.793618 
1.52267 -2.11047 -0.790129 1.57643 -2.10137 -0.779623 1.62855 -2.08819 -0.75448 
1.67654 -2.06255 -0.700219 1.71833 -2.01169 -0.624714 1.75875 -1.96027 -0.527049 
1.80401 -1.93348 -0.428437 1.85154 -1.91817 -0.329397 1.89997 -1.90325 -0.245125 
1.94658 -1.87694 -0.168697 1.98843 -1.82427 -0.100662 2.02798 -1.75991 -0.0330822 
-0.40384 0.366944 -0.56733 -0.420643 0.426515 -0.63673 -0.400524 0.485585 -0.698888 
-0.371476 0.545398 -0.753089 -0.36588 0.600854 -0.798721 -0.371187 0.653861 -0.852388 
-0.376146 0.706654 -0.913455 -0.370867 0.761201 -0.981362 -0.348405 0.81888 -1.05571 
-0.328183 0.87555 -1.14502 -0.289392 0.93467 -1.26294 -0.238991 0.993397 -1.40241 
-0.184881 1.04268 -1.54141 -0.130476 1.07827 -1.63549 -0.0830961 1.13046 -1.66362 
-0.0408117 1.19367 -1.64038 0.000559664 1.25726 -1.60235 0.0442947 1.31096 -1.57135 
0.090968 1.34972 -1.53978 0.133728 1.402 -1.48653 0.175472 1.45307 -1.41104 
0.22082 1.48156 -1.3199 0.266974 1.50807 -1.23607 0.311039 1.54734 -1.16013 
0.358064 1.57155 -1.08362 0.406932 1.58425 -0.999267 0.457539 1.58387 -0.899631 
0.512931 1.55702 -0.791576 0.569146 1.51903 -0.660923 0.62304 1.47918 -0.515511 
0.666259 1.43766 -0.355861 0.69499 1.39298 -0.20445 0.737222 1.3507 -0.0596943 
0.780365 1.30804 0.0702745 0.811376 1.2624 0.184728 0.85859 1.21913 0.277851 
0.914717 1.17708 0.356649 0.963755 1.13304 0.420207 0.998412 1.08587 0.475533 
1.04657 1.0411 0.524204 1.09427 0.996521 0.580267 1.12883 0.949329 0.635598 
1.17688 0.904536 0.684262 1.22452 0.858815 0.710655 1.25023 0.808172 0.720981 
1.27641 0.757339 0.723913 -0.439741 0.206588 -0.60251 -0.457975 0.139408 -0.676128 
-0.47557 0.07824 -0.700373 -0.479391 0.023002 -0.657113 -0.496085 -0.0938014 -0.692237 
-0.491761 -0.153494 -0.809198 -0.476773 -0.210503 -0.910738 -0.460352 -0.266944 -1.00477 
-0.445189 -0.322789 -1.07663 -0.431395 -0.37806 -1.12631 -0.419424 -0.432564 -1.14643 
-0.408364 -0.486684 -1.15177 -0.39776 -0.540614 -1.14972 -0.387048 -0.594521 -1.14766 
-0.374554 -0.648074 -1.1455 -0.352267 -0.699681 -1.14279 -0.31561 -0.748149 -1.13185 
-0.294593 -0.799162 -1.10696 -0.283399 -0.850998 -1.05296 -0.26592 -0.900456 -0.968935 
-0.233668 -0.945737 -0.854413 -0.205832 -0.989477 -0.725351 -0.16365 -1.0199 -0.588333 
-0.114609 -1.03352 -0.451317 -0.0621879 -1.0622 -0.321139 -0.0167133 -1.103 -0.205918 
0.0138517 -1.14946 -0.11374 0.0504113 -1.19541 -0.0360481 0.082821 -1.24274 0.0265703 
0.132749 -1.28705 0.075338 0.193586 -1.32818 0.102426 0.255168 -1.35944 0.114461 
0.314022 -1.37412 0.118471 0.373061 -1.39187 0.13 0.428247 -1.39428 0.155735 
0.482046 -1.39601 0.203638 0.537957 -1.41061 0.259441 0.591382 -1.41045 0.307271 
0.643792 -1.40087 0.339951 0.695874 -1.38961 0.372568 0.747373 -1.37964 0.420025 
0.800322 -1.37919 0.475255 0.856294 -1.39197 0.523578 0.908313 -1.3804 0.556183 
0.955111 -1.34228 0.587777 1.0007 -1.30497 0.641588 1.03983 -1.25059 0.716837 
1.0668 -1.18817 0.798544 1.08028 -1.12927 0.857241 1.11234 -1.07788 0.887582 
1.15802 -1.03979 0.904255 1.20256 -0.98648 0.920473 1.24482 -0.923162 0.943708 
1.28721 -0.858359 0.959486 1.3304 -0.795532 0.967948 1.37633 -0.744487 0.969457 
1.42713 -0.71819 0.971908 1.4783 -0.693785 0.974432 1.52692 -0.656429 0.976462 
1.57848 -0.634034 0.979062 1.63197 -0.621435 0.982034 1.68581 -0.610621 0.985074 
1.7397 -0.600022 0.988123 1.79393 -0.591209 0.991239 1.85009 -0.59219 0.994729 
1.90963 -0.608228 0.99139 1.96716 -0.609784 0.972709 2.02411 -0.602021 0.931481 
2.08081 -0.590862 0.882713 2.13511 -0.569617 0.840971 2.18511 -0.532933 0.820835 
2.23711 -0.510622 0.816037 2.2901 -0.496045 0.818928 2.33925 -0.471939 0.821334 
2.37153 -0.423709 0.822075 2.37499 -0.369063 0.820871 2.36641 -0.314845 0.818936 
2.35591 -0.260894 0.81689 2.34531 -0.206965 0.814838 2.3346 -0.153057 0.81278 
2.32165 -0.0993126 0.818014 2.298 -0.0471288 0.837473 2.25805 0.00265883 0.878257 
2.23068 0.0552311 0.927182 2.20377 0.107612 0.968704 2.16508 0.156805 0.987312 
2.14045 0.208228 0.991886 2.11617 0.25944 0.989062 2.07695 0.307681 0.985392 
2.04145 0.356378 0.974513 1.99013 0.401368 0.947912 1.9304 0.443838 0.898588 
1.87123 0.486138 0.841866 1.82307 0.53091 0.793196 -0.440957 0.0260697 -0.365286 
-0.393917 0.0618687 -0.162866 -0.340014 0.235114 -0.329832 -0.324106 0.174902 -0.149113 
-0.256467 0.0488128 0.142912 -0.193859 0.0176813 0.221816 -0.140071 0.0173987 0.277107 
-0.091258 0.0391026 0.331521 -0.0458071 0.0776933 0.3853 0.00217095 0.103439 0.439557 
0.0502541 0.130777 0.486354 0.0933862 0.181164 0.539674 0.136519 0.23155 0.593004 
0.184602 0.258889 0.6398 0.234402 0.283868 0.664494 0.282549 0.321515 0.673914 
0.333739 0.345812 0.676441 0.384929 0.370108 0.678968 0.43355 0.407465 0.680999 
0.485114 0.42986 0.683599 0.538604 0.442458 0.686571 0.592444 0.453273 0.689611 
0.645851 0.464171 0.700049 0.698366 0.475344 0.725268 0.749865 0.485308 0.772726 
0.802834 0.485668 0.827959 0.859182 0.470971 0.876354 0.913974 0.470564 0.902014 
0.967753 0.479569 0.912524 1.02164 0.490168 0.915573 1.07548 0.500982 0.918613 
1.12894 0.513689 0.921582 1.18057 0.537892 0.916712 1.22834 0.588073 0.888661 
1.2761 0.648984 0.823218 1.37917 0.721727 0.731174 
LINES 33 535
35 30 31 32 33 34 35 36 37 38 39 40 41 42 43 44 45 46 47 48 49 50 51 52 53 54 55 56 57 58 59 60 61 62 63 22 
5 19 64 65 66 19 
35 29 67 68 69 70 71 72 73 74 75 76 77 78 79 80 81 82 83 84 85 86 87 88 89 90 91 92 93 94 95 96 97 98 99 14 
73 28 100 101 102 103 104 105 106 107 108 109 110 111 112 113 114 115 116 117 118 119 120 121 122 123 124 125 126 127 128 129 130 131 132 133 134 135 136 137 138 139 140 141 142 143 144 145 146 147 148 149 150 151 152 153 154 155 156 157 158 159 160 161 162 163 164 165 166 167 168 169 170 22 
5 19 171 172 173 27 
5 18 174 175 176 17 
3 18 177 17 
3 27 178 21 
5 27 179 180 181 26 
6 26 182 183 184 185 25 
5 26 186 187 188 16 
13 25 189 190 191 192 193 194 195 196 197 198 199 23 
5 25 200 201 202 16 
8 17 203 204 205 206 207 208 24 
7 22 209 210 211 212 213 14 
5 19 214 215 216 18 
3 19 217 17 
26 20 218 219 220 221 222 223 224 225 226 227 228 229 230 231 232 233 234 235 236 237 238 239 240 241 12 
3 18 242 17 
4 18 243 244 15 
10 17 245 246 247 248 249 250 251 252 16 
3 14 253 11 
7 13 254 255 256 257 258 11 
10 11 259 260 261 262 263 264 265 266 4 
12 10 267 268 269 270 271 272 273 274 275 276 9 
16 8 277 278 279 280 281 282 283 284 285 286 287 288 289 290 5 
48 6 291 292 293 294 295 296 297 298 299 300 301 302 303 304 305 306 307 308 309 310 311 312 313 314 315 316 317 318 319 320 321 322 323 324 325 326 327 328 329 330 331 332 333 334 335 336 0 
6 6 337 338 339 340 7 
92 7 341 342 343 344 345 346 347 348 349 350 351 352 353 354 355 356 357 358 359 360 361 362 363 364 365 366 367 368 369 370 371 372 373 374 375 376 377 378 379 380 381 382 383 384 385 386 387 388 389 390 391 392 393 394 395 396 397 398 399 400 401 402 403 404 405 406 407 408 409 410 411 412 413 414 415 416 417 418 419 420 421 422 423 424 425 426 427 428 429 430 2 
4 7 431 432 3 
4 6 433 434 3 
33 3 435 436 437 438 439 440 441 442 443 444 445 446 447 448 449 450 451 452 453 454 455 456 457 458 459 460 461 462 463 464 465 0 
3 1 466 0 

POINT_DATA 467
SCALARS DY_raw double
LOOKUP_TABLE default
458.392 387.878 432.994 656.033 640.862 532.469 608.73 855.734 789.857 
810.801 806.701 515.637 1179.91 706.887 596.361 797.47 649.828 792.645 
711.667 601.565 651.863 659.627 575.04 862.384 865.912 706.521 763.074 
589.412 738.392 438.987 823.396 745.848 745.848 699.195 691.038 637.177 
709.901 691.348 767.281 848.4 982.763 982.763 863.548 863.548 771.648 
696.671 696.671 641.296 605.609 720.661 668.317 589.587 670.445 585.272 
688.829 702.094 592.32 751.513 740.059 681.865 724.306 624.763 621.558 
691.247 633.898 662.882 606.226 496.079 605.62 638.262 638.612 587.115 
723.36 714.813 714.813 654.056 656.062 656.062 677.833 677.833 661.124 
696.311 734.895 774.481 691.763 631.321 636.032 658.139 742.999 803.935 
868.983 849.24 849.24 641.198 697.499 721.217 656.327 656.327 631.944 
604.231 777.318 833.408 833.408 800.276 791.93 791.93 777.461 772.681 
772.681 817.371 883.53 898.829 783.681 847.425 803.709 674.349 726.077 
750.366 703.292 670.644 678.302 624.647 644.375 615.663 682.168 668.037 
665.001 715.957 732.881 701.491 734.905 744.801 726.009 807.047 752.225 
806.513 757.982 679.181 604.513 591.299 546.565 521.474 535.109 548.629 
607.02 607.02 677.209 761.428 761.428 805.833 801.694 801.694 842.935 
798.238 798.238 708.289 704.902 691.819 630.04 692.885 730.129 789.923 
739.479 688.311 688.311 621.332 621.332 611.502 647.714 631.018 606.576 
672.003 599.827 565.124 700.589 661.222 693.714 767.893 592.892 570.982 
626.495 694.359 642.034 582.226 596.633 677.507 764.285 647.635 602.589 
614.444 491.438 454.257 458.172 467.541 496.893 554.294 593.08 586.079 
733.918 733.918 715.149 641.718 618.948 790.271 636.477 549.596 492.58 
546.937 691.245 502.593 550.022 483.773 569.589 649.772 575.108 551.373 
635.211 642.716 609.618 649.085 660.752 627.224 670.53 675.828 706.421 
753.266 740.252 717.867 652.835 679.177 644.02 691.636 709.454 699.484 
736.573 693.146 807.61 807.61 864.406 864.406 926.578 1058.2 733.784 
745.156 719.493 713.237 705.705 668.194 595.892 595.805 589.09 589.09 
584.355 487.023 521.63 506.965 508.482 473.637 479.507 594.424 650.27 
573.705 544.138 516.086 536.53 619.465 578.188 748.741 751.493 742.874 
809.962 815.678 741.213 741.861 685.146 692.813 792.462 705.344 705.344 
671.748 546.564 546.564 544.46 477.135 582.065 521.626 563.401 598.9 
556.855 563.82 626.536 616.862 629.283 617.785 674.23 730.556 743.01 
661.138 724.44 697.526 618.766 574.949 548.883 545.002 584.503 568.874 
560.805 603.314 597.869 572.175 630.856 689.406 539.272 585.981 622.131 
521.758 517.023 607.92 512.231 485.566 496.956 426.697 440.029 511.081 
471.769 482.171 496.785 517.51 523.351 477.819 416.111 416.111 401.399 
445.034 515.443 481.739 458.392 592.171 685.82 714.723 709.204 696.653 
622.612 582.019 610.603 577.519 585.102 553.516 553.516 612.751 555.346 
581.994 595.048 595.048 586.144 487.172 520.891 509.202 489.969 463.973 
475.811 439.023 437.718 494.345 534.066 604.039 545.455 537.853 546.142 
485.493 453.763 447.913 477.675 526.851 582.331 660.061 549.005 561.678 
637.179 554.404 485.436 535.877 558.515 584.842 603.576 664.311 696.559 
682.371 799.919 631.343 631.343 574.51 488.344 488.344 496.661 483.881 
483.881 485.947 529.691 475.184 483.445 483.445 503.963 519.927 478.161 
435.325 413.883 413.883 458.716 511.632 520.352 533.707 552.314 561.8 
508.469 516.037 561.061 561.061 482.454 506.326 575.61 548.999 548.999 
540.916 512.531 512.531 514.256 538.115 491.115 467.668 425.614 661.736 
598.974 592.078 535.034 631.645 566.925 566.062 532.301 575.915 591.236 
609.124 659.036 617.85 626.531 758.939 670.584 578.668 505.716 505.716 
438.366 420.361 476.837 418.181 360.843 412.446 440.395 500.758 493.343 
525.416 525.416 538.724 511.729 511.729 514.447 510.41 402.562 
FIELD FieldData 7
DY_minmax 1 467 double
0.119098 0.0330071 0.0880893 0.3604 0.341877 0.209539 0.302647 0.604216 0.523786 
0.549357 0.544351 0.188989 1 0.422487 0.287545 0.53308 0.352824 0.527189 
0.428323 0.293899 0.355308 0.364788 0.261515 0.612335 0.616643 0.422041 0.491087 
0.279061 0.460953 0.0954066 0.564735 0.470055 0.470055 0.413096 0.403137 0.337378 
0.426167 0.403516 0.496223 0.595262 0.759307 0.759307 0.613756 0.613756 0.501554 
0.410015 0.410015 0.342407 0.298836 0.439305 0.375397 0.279275 0.377995 0.274007 
0.40044 0.416635 0.282612 0.476972 0.462988 0.391938 0.443755 0.322222 0.318309 
0.403392 0.333374 0.368761 0.29959 0.165111 0.29885 0.338702 0.33913 0.276257 
0.4426 0.432164 0.432164 0.357986 0.360434 0.360434 0.387015 0.387015 0.366615 
0.409575 0.456682 0.505013 0.404022 0.330228 0.33598 0.362971 0.466577 0.540974 
0.620392 0.596287 0.596287 0.342287 0.411025 0.439983 0.360759 0.360759 0.330989 
0.297154 0.508477 0.576958 0.576958 0.536507 0.526317 0.526317 0.508652 0.502816 
0.502816 0.557378 0.638153 0.656831 0.516246 0.594071 0.540698 0.382762 0.445917 
0.475571 0.418098 0.378238 0.387588 0.32208 0.346167 0.311111 0.392307 0.375055 
0.371348 0.433561 0.454223 0.415899 0.456694 0.468777 0.445834 0.544774 0.477841 
0.544122 0.484869 0.388661 0.297498 0.281365 0.226749 0.196115 0.212762 0.229269 
0.30056 0.30056 0.386253 0.489077 0.489077 0.543291 0.538238 0.538238 0.58859 
0.534018 0.534018 0.424199 0.420064 0.404091 0.328664 0.405392 0.450863 0.523866 
0.462279 0.399808 0.399808 0.318033 0.318033 0.306032 0.350242 0.329858 0.300017 
0.379897 0.291777 0.249408 0.414798 0.366735 0.406404 0.49697 0.28331 0.25656 
0.324336 0.407192 0.343308 0.270287 0.287878 0.386617 0.492565 0.350146 0.29515 
0.309623 0.159444 0.114049 0.118829 0.130268 0.166104 0.236186 0.28354 0.274992 
0.455489 0.455489 0.432575 0.342922 0.315122 0.524292 0.336524 0.230449 0.160838 
0.227203 0.403391 0.173064 0.23097 0.150086 0.254859 0.352755 0.261598 0.23262 
0.334978 0.344141 0.303731 0.351916 0.366161 0.325227 0.378099 0.384568 0.421918 
0.479112 0.463222 0.435893 0.356495 0.388656 0.345733 0.403868 0.425621 0.413449 
0.458731 0.405711 0.54546 0.54546 0.614804 0.614804 0.69071 0.851404 0.455326 
0.46921 0.437878 0.43024 0.421044 0.375247 0.286973 0.286866 0.278668 0.278668 
0.272887 0.154053 0.196306 0.178401 0.180254 0.137711 0.144878 0.285181 0.353364 
0.259885 0.223786 0.189537 0.214497 0.315754 0.265358 0.473587 0.476947 0.466424 
0.548333 0.555311 0.464396 0.465187 0.395944 0.405304 0.526967 0.420604 0.420604 
0.379586 0.226748 0.226748 0.224179 0.141981 0.270092 0.196301 0.247304 0.290645 
0.239312 0.247816 0.324387 0.312575 0.32774 0.313703 0.382616 0.451385 0.46659 
0.366632 0.443918 0.411058 0.3149 0.261404 0.22958 0.224841 0.273068 0.253987 
0.244135 0.296034 0.289386 0.258017 0.329661 0.401144 0.217845 0.274873 0.319008 
0.196462 0.190681 0.301658 0.18483 0.152274 0.166181 0.0804011 0.0966789 0.183426 
0.13543 0.14813 0.165972 0.191275 0.198407 0.142817 0.0674766 0.0674766 0.0495151 
0.10279 0.188752 0.147602 0.119098 0.28243 0.396767 0.432054 0.425316 0.409993 
0.319596 0.270035 0.304934 0.264541 0.2738 0.235236 0.235236 0.307557 0.237469 
0.270004 0.285942 0.285942 0.275072 0.154236 0.195404 0.181133 0.157651 0.125912 
0.140365 0.0954505 0.0938567 0.162994 0.211489 0.296919 0.225394 0.216112 0.226232 
0.152186 0.113446 0.106305 0.142641 0.20268 0.270416 0.365318 0.229728 0.245201 
0.337381 0.23632 0.152116 0.2137 0.241339 0.273482 0.296354 0.370506 0.409878 
0.392556 0.536071 0.330255 0.330255 0.260867 0.155667 0.155667 0.165821 0.150218 
0.150218 0.152741 0.206148 0.139599 0.149685 0.149685 0.174736 0.194227 0.143234 
0.0909355 0.0647566 0.0647566 0.119494 0.184099 0.194745 0.211051 0.233768 0.245349 
0.180238 0.189478 0.244448 0.244448 0.148475 0.177621 0.262211 0.229721 0.229721 
0.219852 0.185197 0.185197 0.187303 0.216433 0.15905 0.130424 0.0790793 0.367363 
0.290736 0.282316 0.21267 0.330624 0.251607 0.250553 0.209334 0.262583 0.281288 
0.303128 0.364066 0.313781 0.324381 0.486038 0.378165 0.265944 0.176877 0.176877 
0.0946483 0.072666 0.141617 0.0700045 0 0.063002 0.0971256 0.170822 0.16177 
0.200929 0.200929 0.217176 0.184217 0.184217 0.187536 0.182607 0.0509354 
WidthEq 1 467 double
2.29739 1.64685 1.97434 3.13583 2.10251 1.39615 3.35381 3.11231 1 
1.63082 2.30267 3.69731 1.19306 1.69768 2.51017 2.01926 3.75927 3.85869 
3.97722 4.31409 1.73979 1.95439 2.75008 1.55706 2.08766 2.39074 3.03389 
3.60381 2.50464 1.63426 1.26926 2.2587 2.2587 2.69535 3.04024 3.18015 
2.91332 2.79341 2.66332 2.27164 2.11483 2.11483 2.22386 2.22386 2.38756 
2.50373 2.50373 2.68369 2.70742 2.52852 2.62178 2.67214 2.52401 2.37877 
2.24226 2.11107 1.90662 1.65153 1.6303 1.85353 1.85298 2.27351 2.54486 
2.42949 3.50332 3.09041 3.46007 1.57912 1.91707 2.23049 2.21708 2.28423 
2.05146 2.1009 2.1009 2.11356 2.07852 2.07852 1.99733 1.99733 1.95037 
1.71203 1.70949 1.51536 1.60435 1.8922 2.09832 2.06053 1.9453 1.89791 
1.49914 1.37468 1.37468 1.35281 1.35012 1.42342 1.85025 1.85025 2.1337 
2.55663 2.67792 2.80567 2.80567 2.77723 2.73438 2.73438 2.61012 2.60774 
2.60774 2.70533 2.66425 2.68737 2.84193 2.76298 2.81525 3.04443 3.01928 
3.06925 3.22874 3.33191 3.20248 3.17148 3.05394 3.05805 2.62777 2.63882 
2.61805 2.31212 2.24314 2.29998 2.19829 2.1874 2.25221 2.24595 2.40706 
2.34853 2.50243 2.67161 2.68282 2.58928 2.75162 2.76966 2.67098 2.75543 
2.75471 2.75471 2.59091 2.49642 2.49642 2.37745 2.33027 2.33027 2.1736 
2.19667 2.19667 2.24186 2.29586 2.31508 2.46711 2.37769 2.36339 2.22509 
2.23631 2.21266 2.21266 2.26317 2.26317 2.26403 2.40558 2.42073 2.68777 
3.54821 3.79596 3.58982 3.53064 3.56913 3.63214 3.60494 3.28734 3.73282 
3.60861 3.30598 2.75005 2.79623 3.05427 3.02785 3.09982 3.44737 3.98642 
2.96409 3.51004 3.87386 3.64884 3.80054 3.67624 3.18812 3.01722 2.94066 
2.22237 2.22237 2.55341 3.29459 3.87544 3.22987 3.39081 3.45957 3.24682 
2.92199 2.29672 2.79183 2.74201 2.54278 2.5127 2.51582 4.67592 4.65376 
4.35752 4.49073 1.92581 2.1095 2.19675 2.33519 2.24898 2.30415 2.30723 
2.25379 2.24997 2.25703 2.22481 2.20391 2.14025 2.1559 2.13899 2.24551 
2.19609 2.38009 2.20162 2.20162 2.01154 2.01154 1.76517 1.37613 4.09628 
3.15312 2.71704 3.87848 3.66445 3.7602 4.04628 4.15114 4.1643 4.1643 
4.21871 3.47026 2.98454 3.39112 3.66429 3.95443 3.94502 3.0029 2.69654 
2.80963 2.67202 2.65368 2.57081 2.35527 2.32749 2.59587 2.61125 2.51877 
2.33902 2.29328 2.41646 2.43257 2.52045 2.52657 2.00678 1.56347 1.56347 
1.71976 1.98077 1.98077 2.02817 2.04533 1.7817 1.8623 1.83278 1.78739 
2.24018 2.17285 1.82643 3.34186 3.28696 3.17409 3.12435 3.02735 2.99712 
3.18454 3.2335 3.41111 3.70238 4.02588 4.41199 4.977 4.81095 5.0156 
4.89078 4.66301 4.16328 3.91397 3.74548 3.19106 3.40078 3.2208 3.1276 
3.69326 3.85617 3.5453 4.16566 4.08906 4.02031 3.77155 3.5281 3.30748 
3.21368 3.07382 2.81918 2.68166 2.55459 2.40825 2.22781 2.22781 2.13639 
2.09316 2.08059 2.2409 2.29739 3.06457 2.6235 2.75795 3.01044 3.56719 
3.71957 3.53461 3.29991 3.28647 3.18552 3.1452 3.1452 2.83881 2.94812 
2.82417 2.78875 2.78875 3.05556 3.4971 3.41877 3.56553 3.6182 3.70963 
3.78089 3.50657 3.08934 2.70472 2.51082 2.22669 2.31316 2.35486 2.52088 
2.65332 2.58335 2.66984 2.46299 2.21106 2.11087 1.8481 1.87889 1.86022 
1.79352 2.01356 2.14841 2.08811 1.96266 1.78612 1.69113 1.76482 1.70819 
1.69217 1.5447 1.73579 1.73579 1.70427 1.67777 1.67777 1.56742 1.58873 
1.58873 1.6327 1.46721 1.68913 1.79559 1.79559 1.83983 1.7618 1.78494 
1.75418 1.83776 1.83776 1.99491 1.89329 2.03456 2.07104 2.0017 1.95475 
2.04671 2.01801 1.92593 1.92593 1.96497 1.95613 1.85128 1.83987 1.83987 
1.87489 2.02491 2.02491 2.09029 2.11408 2.258 2.25167 2.10681 3.1566 
3.241 3.20778 3.32167 3.22315 3.26131 3.17887 2.95265 2.8742 2.55392 
2.44659 2.26237 2.28654 2.26258 2.02658 2.09699 2.01733 2.0617 2.0617 
2.08385 2.06322 1.88762 1.80584 1.92121 1.90051 1.78403 1.72907 1.74811 
1.83182 1.83182 1.88207 2.00279 2.00279 2.15314 2.24012 1.98848 
rRFP 1 467 double
4603.88 3938.1 4273.26 5461.95 4404.43 3681.53 5685.04 5437.88 3276.1 
3921.69 4609.28 6036.58 3473.68 3990.12 4821.64 4319.23 6099.99 6201.74 
6323.05 6667.81 4033.22 4252.84 5067.17 3846.21 4389.23 4699.41 5357.63 
5940.89 4815.98 3925.21 3551.67 4564.28 4564.28 5011.16 5364.12 5507.31 
5234.23 5111.51 4978.38 4577.52 4417.04 4417.04 4528.62 4528.62 4696.16 
4815.05 4815.05 4999.22 5023.51 4840.42 4935.86 4987.4 4835.8 4687.16 
4547.46 4413.19 4203.95 3942.89 3921.16 4149.62 4149.06 4579.44 4857.14 
4739.07 5838.05 5415.47 5793.79 3868.78 4214.65 4535.41 4521.69 4590.41 
4352.19 4402.78 4402.78 4415.74 4379.88 4379.88 4296.79 4296.79 4248.73 
4004.81 4002.21 3803.53 3894.6 4189.2 4400.14 4361.47 4243.54 4195.04 
3786.93 3659.56 3659.56 3637.17 3634.42 3709.44 4146.26 4146.26 4436.35 
4869.19 4993.32 5124.06 5124.06 5094.95 5051.1 5051.1 4923.93 4921.49 
4921.49 5021.37 4979.33 5002.99 5161.17 5080.37 5133.86 5368.41 5342.67 
5393.81 5557.04 5662.63 5530.16 5498.44 5378.15 5382.35 4941.99 4953.3 
4932.05 4618.95 4548.36 4606.53 4502.46 4491.31 4557.64 4551.23 4716.11 
4656.21 4813.72 4986.86 4998.33 4902.6 5068.74 5087.21 4986.22 5072.64 
5071.91 5071.91 4904.27 4807.57 4807.57 4685.81 4637.53 4637.53 4477.19 
4500.8 4500.8 4547.05 4602.31 4621.98 4777.57 4686.06 4671.42 4529.88 
4541.37 4517.16 4517.16 4568.85 4568.85 4569.73 4714.6 4730.11 5003.4 
5883.99 6137.54 5926.58 5866.01 5905.4 5969.89 5942.05 5617.01 6072.93 
5945.81 5636.09 5067.14 5114.4 5378.48 5351.44 5425.1 5780.79 6332.47 
5286.19 5844.93 6217.27 5986.98 6142.23 6015.02 5515.47 5340.57 5262.21 
4527.1 4527.1 4865.89 5624.43 6218.89 5558.2 5722.91 5793.28 5575.54 
5243.11 4603.19 5109.9 5058.91 4855.01 4824.23 4827.42 7038.11 7015.43 
6712.26 6848.59 4223.59 4411.59 4500.88 4642.56 4554.33 4610.79 4613.95 
4559.26 4555.35 4562.57 4529.6 4508.21 4443.06 4459.07 4441.77 4550.78 
4500.2 4688.51 4505.86 4505.86 4311.33 4311.33 4059.19 3661.04 6444.9 
5479.65 5033.35 6222 6002.95 6100.95 6393.73 6501.04 6514.51 6514.51 
6570.2 5804.22 5307.12 5723.22 6002.79 6299.73 6290.1 5325.91 5012.37 
5128.11 4987.28 4968.51 4883.7 4663.11 4634.68 4909.35 4925.09 4830.44 
4646.48 4599.67 4725.73 4742.22 4832.16 4838.42 4306.46 3852.77 3852.77 
4012.72 4279.84 4279.84 4328.35 4345.91 4076.11 4158.6 4128.38 4081.93 
4545.33 4476.42 4121.89 5672.81 5616.62 5501.11 5450.2 5350.93 5319.99 
5511.8 5561.91 5743.68 6041.77 6372.85 6768 7346.25 7176.31 7385.75 
7258.01 7024.9 6513.47 6258.32 6085.88 5518.48 5733.11 5548.91 5453.53 
6032.44 6199.16 5881.01 6515.9 6437.51 6367.15 6112.56 5863.41 5637.62 
5541.63 5398.49 5137.89 4997.15 4867.1 4717.33 4532.67 4532.67 4439.11 
4394.86 4382 4546.06 4603.88 5389.02 4937.62 5075.22 5333.63 5903.42 
6059.36 5870.07 5629.88 5616.12 5512.81 5471.54 5471.54 5157.98 5269.85 
5142.99 5106.74 5106.74 5379.8 5831.68 5751.52 5901.72 5955.62 6049.19 
6122.12 5841.38 5414.37 5020.75 4822.31 4531.52 4620.02 4662.69 4832.6 
4968.14 4896.53 4985.05 4773.35 4515.52 4412.99 4144.06 4175.57 4156.47 
4088.21 4313.4 4451.41 4389.69 4261.31 4080.63 3983.42 4058.83 4000.88 
3984.48 3833.56 4029.12 4029.12 3996.86 3969.74 3969.74 3856.81 3878.62 
3878.62 3923.62 3754.25 3981.37 4090.32 4090.32 4135.6 4055.74 4079.42 
4047.94 4133.48 4133.48 4294.31 4190.31 4334.89 4372.22 4301.26 4253.21 
4347.32 4317.95 4223.72 4223.72 4263.67 4254.62 4147.32 4135.64 4135.64 
4171.48 4325.01 4325.01 4391.93 4416.27 4563.56 4557.09 4408.83 5483.21 