# vtk DataFile Version 3.0
vtk output
ASCII
DATASET POLYDATA
POINTS 480 float
-0.0235805 -0.189944 0.534733 4.05801 0.426254 0.362139 -0.475558 0.444044 -0.208552 
3.94932 0.310215 0.101984 3.54855 0.346672 -0.132852 4.00986 0.539208 -0.271934 
-0.295122 -0.821346 0.37818 4.55597 -0.191555 0.13632 4.79834 0.00817918 -0.0230209 
3.89124 0.245701 -0.288717 3.24845 0.391453 -0.457251 3.74108 0.375258 -0.41167 
0.0470817 0.745937 -0.971578 4.49677 -0.445475 0.088682 2.93282 -0.18636 -0.237789 
4.00561 0.0691551 -0.393001 3.87887 0.405644 -0.695553 3.18009 -0.159573 -0.511542 
4.56256 -0.0803997 -0.492688 4.38386 -0.0235545 -0.731208 2.91452 -0.780572 -0.251096 
4.27889 -0.843683 -0.286258 2.85044 -0.69067 -0.422554 4.41583 -0.622225 -0.293952 
-0.810792 -0.201163 -0.995667 4.10259 -0.297863 -0.775162 0.556953 0.556984 -1.57194 
2.52368 -0.566647 -0.729303 1.54458 0.00556445 -1.29249 1.72752 0.165712 -1.42097 
0.175738 -2.02144 0.0393626 3.9441 -1.10416 -0.567466 2.5829 -0.978988 -0.719449 
-0.258981 0.196695 -1.84082 1.06076 -2.49082 0.0631008 -0.47508 -1.98339 -0.478889 
1.45128 -0.0112421 -2.08196 2.37575 -1.73255 -1.1375 2.2434 -1.42799 -1.58985 
1.99531 -2.59621 -1.11547 1.95463 -2.47025 -1.2283 2.14373 -1.77028 -1.8288 
1.74579 -1.67121 -2.27101 1.16952 -1.37102 -2.5064 0.700314 -1.14789 -2.73158 
1.31227 -2.75317 -1.55382 1.27943 -1.80328 -2.65326 1.21824 -1.8185 -2.59456 
1.15811 -1.84835 -2.55257 1.09904 -1.89281 -2.52729 1.04068 -1.94701 -2.51313 
0.981973 -1.99634 -2.49341 0.922916 -2.04072 -2.4682 0.863669 -2.07877 -2.43867 
0.805428 -2.10793 -2.41687 0.749328 -2.11818 -2.41148 0.693228 -2.12843 -2.40609 
0.634997 -2.1575 -2.38436 0.575914 -2.1941 -2.35609 0.517518 -2.22464 -2.33309 
0.460404 -2.24385 -2.31993 0.401643 -2.26959 -2.29128 0.341322 -2.29311 -2.24499 
0.27989 -2.30338 -2.18079 0.219905 -2.30892 -2.11078 0.170217 -2.31966 -2.04542 
0.136781 -2.34552 -1.99536 0.0905535 -2.37582 -1.95208 0.045782 -2.4013 -1.90307 
0.0228987 -2.40807 -1.82963 0.000761488 -2.40027 -1.73931 -0.0352316 -2.3823 -1.63909 
-0.0556838 -2.36969 -1.54301 -0.0658386 -2.36229 -1.45159 -0.0741819 -2.35495 -1.36001 
-0.0830162 -2.33787 -1.25726 -0.0914591 -2.30135 -1.13208 -0.091025 -2.25055 -0.989271 
-0.0761143 -2.1905 -0.83392 -0.0737493 -2.13976 -0.690935 -0.0705747 -2.09877 -0.55908 
-0.0511487 -2.07289 -0.442514 -0.0346813 -2.05179 -0.331833 -0.000314997 -2.04257 -0.23258 
0.045797 -2.03813 -0.138273 0.102134 -2.03429 -0.0493452 1.32764 -1.79065 -2.57254 
1.3782 -1.76535 -2.51262 1.42961 -1.74843 -2.46503 1.48097 -1.75606 -2.42552 
1.53434 -1.76196 -2.40709 1.58838 -1.75786 -2.39245 1.64176 -1.73965 -2.36557 
1.69409 -1.70259 -2.32074 1.27843 -1.7131 -2.6337 1.26496 -1.61279 -2.60409 
1.22347 -1.49697 -2.56027 1.3705 -2.72408 -1.57555 1.42743 -2.70657 -1.58725 
1.48448 -2.68791 -1.59994 1.53922 -2.68964 -1.59494 1.59147 -2.70547 -1.56789 
1.64414 -2.70147 -1.53848 1.69638 -2.66924 -1.49437 1.74842 -2.61479 -1.44015 
1.80034 -2.54536 -1.37936 1.85108 -2.50239 -1.31517 1.90362 -2.46757 -1.27331 
0.75512 -1.04496 -2.69005 0.810991 -0.956647 -2.66523 0.867927 -0.882953 -2.65711 
0.924863 -0.809259 -2.64899 0.981434 -0.730774 -2.63523 1.0375 -0.648783 -2.61471 
1.0927 -0.574393 -2.5876 1.14644 -0.512862 -2.54934 1.20011 -0.444026 -2.5076 
1.25126 -0.373434 -2.43801 1.30013 -0.290861 -2.33962 1.34831 -0.198463 -2.23017 
1.39819 -0.106996 -2.1395 1.79545 -1.67381 -2.21137 1.84702 -1.69155 -2.17778 
1.89803 -1.72628 -2.14413 1.94823 -1.76416 -2.10284 1.99824 -1.78368 -2.05301 
2.04847 -1.77726 -1.9963 2.0967 -1.77249 -1.91857 2.13977 -1.79225 -1.77041 
2.14685 -1.80486 -1.6998 2.18016 -1.80861 -1.61556 2.22478 -1.80465 -1.52091 
2.27121 -1.79152 -1.41447 2.32014 -1.76524 -1.28653 2.19357 -1.59913 -1.70932 
1.98875 -2.51291 -1.18879 1.99786 -2.55475 -1.15159 2.01085 -2.38681 -1.20904 
2.06743 -2.30824 -1.19535 2.12437 -2.23455 -1.18723 2.18166 -2.16573 -1.18468 
2.23849 -2.09203 -1.17657 2.2932 -2.01497 -1.16497 2.33644 -1.93169 -1.14968 
2.35721 -1.8401 -1.13981 2.43748 -1.53577 -1.00684 2.4681 -1.3621 -0.894078 
2.49847 -1.21845 -0.810909 2.52819 -1.09498 -0.756106 1.49547 0.0299445 -1.94765 
1.54086 0.0736844 -1.82537 1.58825 0.119096 -1.72411 1.6347 0.14822 -1.61854 
1.68101 0.160091 -1.51756 1.39186 0.133426 -1.98569 1.33206 0.250626 -1.89497 
1.27275 0.348183 -1.81661 1.21176 0.406886 -1.73389 1.15155 0.464433 -1.65999 
1.09294 0.512133 -1.60692 1.03434 0.543862 -1.55958 0.975168 0.554517 -1.51356 
0.916931 0.581454 -1.47186 0.859545 0.615914 -1.43669 0.802669 0.646864 -1.40827 
0.747156 0.658445 -1.40223 0.692189 0.646177 -1.42458 0.631844 0.607906 -1.48361 
-0.470505 -1.942 -0.514818 -0.467742 -1.90055 -0.550916 -0.474921 -1.85878 -0.587933 
-0.496932 -1.82137 -0.631926 -0.504731 -1.79902 -0.691404 -0.512677 -1.80096 -0.778893 
-0.544211 -1.82158 -0.890977 -0.585698 -1.84187 -1.00398 -0.620583 -1.84293 -1.09396 
-0.642521 -1.81526 -1.14915 -0.679381 -1.76278 -1.17771 -0.715849 -1.69088 -1.18384 
-0.729365 -1.61486 -1.18223 -0.740713 -1.54378 -1.18603 -0.763779 -1.49176 -1.21332 
-0.770723 -1.45485 -1.25591 -0.76917 -1.42309 -1.30333 -0.776814 -1.37644 -1.33479 
-0.8005 -1.31467 -1.35093 -0.809098 -1.25341 -1.36567 -0.807154 -1.20221 -1.39065 
-0.804856 -1.15588 -1.42119 -0.813565 -1.09461 -1.43594 -0.840127 -1.01817 -1.43555 
-0.860698 -0.927343 -1.41779 -0.875697 -0.822122 -1.38273 -0.850572 -0.693906 -1.31594 
-0.81717 -0.541662 -1.22039 -0.808031 -0.37404 -1.11028 1.0107 -2.44772 0.0221882 
0.960819 -2.41103 -0.0229617 0.910486 -2.39434 -0.0703356 0.858218 -2.41878 -0.111403 
0.804859 -2.46087 -0.146959 0.753716 -2.47537 -0.196654 0.701556 -2.46684 -0.227168 
0.648935 -2.43833 -0.245608 0.594312 -2.41149 -0.243016 0.540245 -2.39577 -0.250367 
0.487327 -2.38591 -0.272228 0.433026 -2.39627 -0.286322 0.37876 -2.36861 -0.287719 
0.320123 -2.30183 -0.234928 0.253183 -2.18295 -0.116569 -0.202474 0.148993 -2.01227 
-0.141002 0.111312 -2.14291 -0.0797732 0.0927917 -2.22134 -0.022296 0.08352 -2.24898 
0.0339855 0.0873585 -2.25861 0.0906817 0.110886 -2.26572 0.145378 0.132755 -2.25181 
0.197959 0.167967 -2.2103 0.249815 0.228818 -2.15184 0.301534 0.320484 -2.08095 
0.351596 0.405534 -1.99451 0.401033 0.476687 -1.9058 0.450535 0.526759 -1.81835 
0.500973 0.550327 -1.70765 -0.187534 0.321303 -1.68909 -0.130374 0.451579 -1.56294 
-0.0819703 0.550016 -1.43904 -0.0375966 0.61621 -1.29706 0.00518401 0.67697 -1.14055 
-0.320073 0.166789 -1.77912 -0.359564 0.152228 -1.70977 -0.410232 0.145871 -1.63845 
-0.467974 0.135362 -1.57381 -0.516378 0.109994 -1.52513 -0.547283 0.0743322 -1.48604 
-0.582623 0.0290911 -1.45856 -0.611998 -0.0260653 -1.44172 -0.655641 -0.0904774 -1.43741 
-0.697818 -0.150075 -1.42737 -0.716761 -0.18613 -1.38716 -0.727781 -0.193283 -1.31262 
-0.746521 -0.180738 -1.2164 -0.771863 -0.172831 -1.12638 -0.777638 -0.180157 -1.05136 
2.53307 -0.875663 -0.730924 2.5052 -0.782477 -0.725555 2.47942 -0.698553 -0.718518 
2.48365 -0.626315 -0.719058 2.65849 -0.888933 -0.589771 2.7377 -0.795319 -0.489265 
4.02087 -1.07218 -0.516636 4.08513 -1.03205 -0.47047 4.14005 -0.986508 -0.414844 
4.2008 -0.925569 -0.350978 3.89817 -1.09467 -0.642757 3.8891 -1.07058 -0.708752 
3.89246 -1.03793 -0.756832 3.89722 -0.998913 -0.795596 3.90201 -0.95753 -0.831505 
3.90837 -0.911336 -0.861667 3.92578 -0.855787 -0.879609 3.96714 -0.786443 -0.878535 
4.00825 -0.712222 -0.871873 4.02609 -0.63557 -0.86555 4.04251 -0.553032 -0.85461 
4.07512 -0.442397 -0.821248 0.238053 -1.90015 0.147429 0.291776 -1.80744 0.247103 
0.342926 -1.74814 0.320014 0.395106 -1.71416 0.365867 0.448787 -1.70126 0.387562 
0.502968 -1.69194 0.402577 0.557491 -1.67161 0.417819 0.611389 -1.63277 0.446393 
0.66235 -1.61186 0.500334 0.714461 -1.59682 0.539756 0.769043 -1.59999 0.54601 
0.8259 -1.6311 0.517742 0.884187 -1.68163 0.467123 0.942819 -1.73711 0.411014 
0.999876 -1.77447 0.378366 1.05431 -1.79498 0.380083 1.10638 -1.81229 0.408395 
1.16046 -1.82793 0.415682 1.21645 -1.85067 0.399736 1.27295 -1.87692 0.37703 
1.32876 -1.89333 0.365393 1.38421 -1.9048 0.359246 1.44018 -1.91976 0.346348 
1.49807 -1.94174 0.310152 1.55812 -1.96069 0.251727 1.61843 -1.99328 0.185539 
1.67991 -2.03164 0.10477 1.74082 -2.09107 0.0226979 1.80152 -2.14425 -0.0550069 
1.86249 -2.15407 -0.121364 1.92017 -2.12082 -0.156627 1.96537 -2.05169 -0.155124 
1.99045 -1.96236 -0.133145 2.01001 -1.86314 -0.100486 2.00962 -1.76811 -0.0752619 
2.03961 -1.67895 -0.0528355 2.0782 -1.59492 -0.0352089 2.09565 -1.51507 -0.0251414 
2.11211 -1.44491 -0.0263708 2.14278 -1.38979 -0.0430857 2.15862 -1.33905 -0.0667685 
2.16427 -1.28311 -0.0857982 2.1685 -1.20769 -0.0825563 2.18139 -1.11796 -0.0617045 
2.20672 -1.01901 -0.0284396 2.2053 -0.925402 -0.00203374 2.16613 -0.838273 0.0276191 
2.11131 -0.760042 0.07392 2.05318 -0.677022 0.135521 1.99271 -0.621816 0.211469 
1.93477 -0.57625 0.256582 1.87923 -0.541516 0.271921 1.82075 -0.540678 0.306879 
1.76073 -0.537533 0.359422 1.70234 -0.511966 0.402319 1.6453 -0.482469 0.43199 
1.58949 -0.466136 0.443699 1.53405 -0.454505 0.449703 1.47841 -0.436637 0.460079 
1.42221 -0.391761 0.486204 1.36657 -0.325811 0.513639 1.30949 -0.272646 0.552156 
1.25248 -0.258872 0.575888 1.19509 -0.272493 0.594007 1.13933 -0.279746 0.596799 
1.08285 -0.261361 0.616527 1.02496 -0.239374 0.652731 0.965792 -0.228636 0.698684 
0.90914 -0.219737 0.716845 0.854898 -0.205547 0.710827 0.802467 -0.183378 0.688083 
0.748911 -0.171149 0.673967 0.695354 -0.15892 0.65985 0.642576 -0.131802 0.642611 
0.588136 -0.111366 0.640959 0.532335 -0.0949499 0.652597 0.476237 -0.0971704 0.660821 
0.419558 -0.120532 0.667794 0.365036 -0.140867 0.652552 0.31186 -0.141292 0.629831 
0.259766 -0.124155 0.601655 0.205894 -0.116766 0.587816 0.148471 -0.12989 0.579875 
0.0763924 -0.163376 0.569102 1.78378 0.0412236 -1.47598 1.83971 -0.0612031 -1.52074 
1.89299 -0.12293 -1.54216 1.93255 -0.161631 -1.51563 1.9544 -0.182987 -1.45612 
1.99082 -0.201335 -1.38847 2.03742 -0.224964 -1.3254 2.08403 -0.248592 -1.26233 
2.12009 -0.262155 -1.18904 2.14106 -0.275215 -1.11714 2.17772 -0.298517 -1.05499 
2.22393 -0.341576 -1.01436 2.26202 -0.384286 -0.974556 2.28493 -0.420259 -0.931756 
2.32307 -0.439469 -0.882952 2.3728 -0.452472 -0.848699 2.4234 -0.48181 -0.80994 
2.47362 -0.523544 -0.770216 1.66587 0.18453 -1.32311 1.61654 0.168918 -1.26332 
1.58594 0.104077 -1.2578 4.18892 -0.274376 -0.819787 4.25551 -0.240204 -0.822444 
4.31653 -0.153821 -0.789036 2.57262 -0.515605 -0.642736 2.62131 -0.490668 -0.562913 
2.67188 -0.484404 -0.509322 2.72323 -0.511732 -0.465714 2.78078 -0.581874 -0.440081 
4.3514 -0.810918 -0.343156 4.39989 -0.738319 -0.344476 2.87585 -0.749678 -0.333161 
0.475871 0.616854 -1.41271 0.406249 0.672082 -1.28808 0.344809 0.724767 -1.21 
0.285281 0.764688 -1.15018 0.225216 0.783482 -1.09162 0.166145 0.795032 -1.04637 
0.106684 0.779114 -1.00667 4.45796 -0.0203515 -0.67345 4.5047 -0.0370058 -0.616476 
4.52788 -0.0604578 -0.558342 4.06398 -0.0926197 -0.599192 -0.770935 -0.132212 -0.82681 
-0.739844 -0.0775542 -0.675564 -0.722777 -0.0370234 -0.542424 -0.689903 -0.00664133 -0.419084 
-0.647286 0.0296444 -0.290459 -0.602117 0.0733985 -0.168192 -0.556649 0.118874 -0.0671156 
-0.520748 0.1289 0.015082 -0.500822 0.107606 0.0744061 -0.474841 0.0701576 0.118693 
-0.45365 0.028004 0.156934 -0.41576 -0.00846164 0.20112 -0.367678 -0.0279981 0.250844 
-0.317558 -0.0215707 0.307537 -0.268966 -0.0215904 0.379646 -0.22049 -0.0346493 0.449349 
-0.168426 -0.063241 0.491486 -0.105043 -0.107351 0.508506 4.4563 -0.53385 -0.102635 
4.46155 -0.640519 -0.393285 4.47029 -0.628429 -0.46243 4.44936 -0.576482 -0.489523 
4.43979 -0.500602 -0.487557 4.43946 -0.4153 -0.473532 4.44277 -0.330118 -0.45917 
4.45659 -0.250144 -0.449438 4.48811 -0.180477 -0.449273 4.51739 -0.125318 -0.466117 
2.96183 -0.563437 -0.395396 3.01016 -0.446711 -0.356505 2.98529 -0.323672 -0.304802 
4.33364 -0.714428 -0.093673 4.38521 -0.600749 0.0367887 4.43951 -0.511005 0.0865289 
4.31629 0.12904 -0.685104 4.25536 0.253025 -0.62997 4.19653 0.350155 -0.564331 
4.13785 0.434871 -0.497665 4.07496 0.492805 -0.39471 4.60931 0.0233787 -0.363728 
4.65682 0.0939119 -0.254889 4.7044 0.109958 -0.167357 4.75118 0.0878648 -0.105621 
4.78709 0.0500892 -0.0604148 3.2242 -0.100039 -0.521411 3.25241 -0.0302632 -0.521553 
3.28358 0.0442844 -0.515811 3.29764 0.119388 -0.511659 3.29973 0.194885 -0.508616 
3.28718 0.285445 -0.490126 3.8184 0.409843 -0.614386 3.77003 0.40878 -0.537702 
3.74932 0.397084 -0.469663 3.98209 0.193758 -0.152057 3.94959 0.163723 -0.351216 
4.53564 -0.342018 0.128738 4.55092 -0.257236 0.1442 0.026464 0.705074 -0.937132 
-0.0195178 0.669908 -0.899431 -0.0779736 0.644871 -0.851686 -0.139769 0.639387 -0.781847 
-0.202741 0.64853 -0.695308 -0.265957 0.662537 -0.603197 -0.325941 0.656995 -0.53319 
-0.373745 0.621889 -0.495658 -0.402775 0.561858 -0.484394 -0.43501 0.501934 -0.473426 
-0.451666 0.460941 -0.438614 -0.460046 0.443976 -0.375038 -0.467679 0.441575 -0.294585 
3.67833 0.409444 -0.317471 3.62006 0.434091 -0.254073 3.57413 0.422508 -0.207445 
3.55536 0.387905 -0.168502 3.78829 0.371054 -0.326142 3.83834 0.327868 -0.285158 
3.84227 0.311118 -0.135575 3.83353 0.346534 -0.0127339 3.87477 0.34116 0.063592 
-0.240671 -0.713545 0.425273 -0.185865 -0.610612 0.466802 -0.131035 -0.50953 0.506003 
-0.0782465 -0.407594 0.54237 -0.0376512 -0.304278 0.557023 4.00793 0.377181 0.231083 

LINES 48 579
41 46 47 48 49 50 51 52 53 54 55 56 57 58 59 60 61 62 63 64 65 66 67 68 69 70 71 72 73 74 75 76 77 78 79 80 81 82 83 84 85 30 
5 46 94 95 96 43 
13 45 97 98 99 100 101 102 103 104 105 106 107 40 
15 44 108 109 110 111 112 113 114 115 116 117 118 119 120 36 
8 41 128 129 130 131 132 133 37 
3 41 134 38 
4 40 135 136 39 
10 40 137 138 139 140 141 142 143 144 37 
6 37 145 146 147 148 32 
7 36 149 150 151 152 153 29 
16 36 154 155 156 157 158 159 160 161 162 163 164 165 166 167 26 
31 35 168 169 170 171 172 173 174 175 176 177 178 179 180 181 182 183 184 185 186 187 188 189 190 191 192 193 194 195 196 24 
17 34 197 198 199 200 201 202 203 204 205 206 207 208 209 210 211 30 
16 33 212 213 214 215 216 217 218 219 220 221 222 223 224 225 26 
7 33 226 227 228 229 230 12 
17 33 231 232 233 234 235 236 237 238 239 240 241 242 243 244 245 24 
6 32 246 247 248 249 27 
4 32 250 251 22 
86 30 268 269 270 271 272 273 274 275 276 277 278 279 280 281 282 283 284 285 286 287 288 289 290 291 292 293 294 295 296 297 298 299 300 301 302 303 304 305 306 307 308 309 310 311 312 313 314 315 316 317 318 319 320 321 322 323 324 325 326 327 328 329 330 331 332 333 334 335 336 337 338 339 340 341 342 343 344 345 346 347 348 349 350 351 0 
20 29 352 353 354 355 356 357 358 359 360 361 362 363 364 365 366 367 368 369 27 
5 29 370 371 372 28 
5 25 373 374 375 19 
7 27 376 377 378 379 380 22 
4 21 381 382 23 
3 22 383 20 
9 26 384 385 386 387 388 389 390 12 
5 19 391 392 393 18 
3 25 394 15 
20 24 395 396 397 398 399 400 401 402 403 404 405 406 407 408 409 410 411 412 0 
3 23 413 13 
11 23 414 415 416 417 418 419 420 421 422 18 
5 22 423 424 425 14 
5 21 426 427 428 13 
7 19 429 430 431 432 433 5 
7 18 434 435 436 437 438 8 
8 17 439 440 441 442 443 444 10 
5 16 445 446 447 11 
3 15 448 3 
3 15 449 9 
4 13 450 451 7 
15 12 452 453 454 455 456 457 458 459 460 461 462 463 464 2 
6 11 465 466 467 468 4 
4 11 469 470 9 
5 9 471 472 473 3 
7 6 474 475 476 477 478 0 
3 3 479 1 
18 46 86 87 88 89 90 91 92 93 42 121 122 123 124 125 126 127 41 
19 21 255 254 253 252 31 256 257 258 259 260 261 262 263 264 265 266 267 25 

POINT_DATA 480
SCALARS DY_raw double
LOOKUP_TABLE default
118.454 143.237 127.209 145.627 225.68 121.547 57.5836 165.75 113.646 
121.523 127.896 97.5531 120.973 133.833 123.074 134.526 80.3755 153.875 
104.822 93.4304 133.499 141.304 93.3255 131.813 91.1492 131.388 84.3585 
91.3555 579.661 93.2673 96.3138 100.866 85.426 91.7449 121.078 121.433 
88.7804 71.5404 138.765 107.997 72.1307 120.755 88.9781 105.098 216.188 
115.427 56.548 65.5212 80.9675 95.7854 103.282 92.0807 88.0322 82.9055 
81.7373 80.1695 80.1695 74.4646 74.4646 71.4452 71.7975 70.9597 73.9855 
79.1625 85.3961 81.0194 88.5811 91.8313 86.8528 95.9908 87.6442 82.1224 
84.7144 76.2442 96.9792 95.8698 85.5869 92.9578 95.8776 79.1973 84.5861 
83.7357 81.7921 84.1426 83.7197 88.0029 68.6627 77.5817 79.0844 76.8661 
76.8661 70.9351 70.1099 79.6329 70.5286 73.8161 91.1231 97.2976 90.8158 
87.0692 78.5801 78.5801 68.5449 68.2834 78.4643 66.7853 77.3112 86.9932 
114.945 124.119 120.685 78.9223 87.7373 76.3641 71.6104 73.3393 69.4498 
71.2707 101.79 76.351 98.7746 82.8832 111.603 106.857 94.851 99.872 
102.126 124.086 111.21 118.134 105.79 90.5187 96.1809 83.2752 135.727 
82.6979 107.997 81.6868 94.8366 100.558 108.413 96.6561 89.4881 77.4102 
71.7967 78.3297 80.7952 75.3193 86.3794 87.7275 101.758 92.6122 83.4488 
95.5604 131.44 127.741 115.416 108.8 102.818 91.7666 115.816 105.447 
91.6979 98.7453 93.9099 85.8316 86.5005 86.7996 121.433 98.4794 93.8488 
93.8488 108.547 103.549 105.842 90.2069 106.501 108.629 100.259 109.987 
108.508 115.978 131.777 96.0794 96.5147 96.5147 85.5047 77.8883 87.3187 
83.4533 83.4533 82.2173 101.185 111.677 91.4815 100.963 118.591 125.03 
96.8694 81.1215 84.9801 75.7513 73.3727 70.9606 70.9606 94.8181 90.7143 
90.7143 101.818 121.203 139.203 120.615 107.722 97.4064 83.5479 84.0929 
71.7353 77.9851 74.4018 77.2329 77.0044 75.0508 82.6265 86.3237 80.8592 
85.0687 106.85 107.018 110.289 126.576 133.747 82.3906 83.8412 92.8414 
105.182 106.455 128.886 128.886 137.074 112.661 122.244 89.0593 89.5603 
95.1797 83.7701 86.2057 95.6307 97.7722 96.6154 95.3883 97.4431 99.8442 
106.57 118.083 120.848 129.198 118.351 122.699 130.449 144.541 143.591 
143.591 142.875 134.041 126.343 132.695 121.42 120.267 100.191 99.2677 
98.6555 87.0541 87.4317 87.4317 84.5125 94.9096 101.911 114.448 116.649 
111.982 105.3 112.644 105.559 122.68 122.68 128.298 129.229 112.685 
96.6725 95.3117 95.3117 94.5838 101.835 87.1176 106.57 101.558 89.3233 
81.4373 81.6333 92.2577 82.0044 93.1544 82.3958 89.6065 105.963 104.234 
97.3983 97.3983 75.9964 81.0148 81.7088 67.907 77.6759 73.7145 77.8082 
76.1744 87.6543 94.1111 104.336 112.347 106.789 112.913 110.926 119.932 
127.631 128.783 103.352 109.283 108.099 115.764 117.961 102.528 98.9855 
122.556 107.026 110.401 112.002 111.255 111.255 119.77 108.957 108.957 
128.551 135.367 135.367 143.777 136.88 133.117 129.993 131.306 132.489 
122.044 100.916 112.717 135.152 140.452 132.765 117.332 118.242 120.423 
114.036 109.83 104.06 104.06 98.7021 101.343 103.857 96.0339 92.9216 
91.3555 126.043 125.494 159.204 106.868 91.3091 94.0836 85.0535 93.3242 
91.9802 90.8353 96.8064 136.497 139.323 102.221 101.415 103.192 103.42 
99.9579 103.529 108.113 120.973 96.5226 91.5154 95.4715 109.318 119.423 
105.347 104.851 102.142 108.704 145.668 141.082 131.833 123.618 130.094 
113.961 110.712 117.21 125.539 112.415 112.966 118.194 121.315 116.083 
114.9 114.9 109.844 108.657 115.706 105.079 109.174 116.076 96.7608 
102.593 102.21 138.037 156.154 154.099 135.18 97.9646 100.775 107.191 
125.829 127.887 110.08 108.787 127.122 135.988 129.422 153.875 99.5231 
101.159 92.6885 94.3443 103.891 80.2835 84.1419 84.1419 149.52 117.923 
157.572 160.339 126.719 135.741 128.13 114.831 105.205 94.8531 86.2561 
82.8426 86.3238 87.7329 87.7329 104.78 110.709 105.909 125.438 149.358 
200.064 97.229 96.1873 135.03 156.828 148.074 74.9653 75.133 81.5985 
108.722 106.136 144.228 
FIELD FieldData 7
DY_minmax 1 480 double
0.118341 0.165718 0.135077 0.170287 0.323319 0.124255 0.00197964 0.208754 0.10915 
0.124208 0.136392 0.0783868 0.123156 0.147741 0.127174 0.149065 0.0455495 0.186053 
0.0922815 0.0705057 0.147102 0.162022 0.0703051 0.14388 0.0661448 0.143067 0.0531635 
0.0665391 1 0.0701939 0.0760177 0.0847204 0.0552042 0.0672836 0.123358 0.124037 
0.0616166 0.02866 0.157168 0.098352 0.0297884 0.122741 0.0619946 0.0928107 0.305173 
0.112556 0 0.0171536 0.0466812 0.0750075 0.0893384 0.0679255 0.0601863 0.0503859 
0.0481526 0.0451557 0.0451557 0.0342499 0.0342499 0.028478 0.0291515 0.0275499 0.0333342 
0.0432306 0.0551471 0.0467804 0.0612356 0.0674487 0.0579317 0.0754003 0.0594446 0.048889 
0.0538439 0.0376519 0.0772896 0.0751689 0.0555117 0.0696022 0.0751838 0.0432972 0.0535987 
0.051973 0.0482576 0.0527508 0.0519424 0.0601303 0.0231589 0.0402088 0.0430814 0.0388407 
0.0388407 0.0275029 0.0259253 0.0441299 0.0267259 0.0330103 0.0660949 0.0778983 0.0655075 
0.0583453 0.0421173 0.0421173 0.0229338 0.0224338 0.0418959 0.01957 0.0396917 0.0582 
0.111633 0.12917 0.122606 0.0427715 0.0596226 0.0378812 0.0287938 0.0320988 0.0246636 
0.0281445 0.086486 0.0378562 0.0807218 0.0503432 0.105246 0.0961716 0.0732213 0.0828197 
0.0871281 0.129108 0.104493 0.11773 0.0941334 0.0649396 0.0757637 0.0510927 0.151362 
0.049989 0.098352 0.0480563 0.0731938 0.0841301 0.099147 0.076672 0.0629694 0.0398809 
0.02915 0.0416386 0.0463517 0.0358838 0.0570268 0.0596037 0.086425 0.0689415 0.0514245 
0.0745774 0.143166 0.136094 0.112534 0.0998872 0.0884521 0.067325 0.113299 0.093477 
0.0671937 0.0806658 0.0714222 0.0559796 0.0572583 0.0578301 0.124037 0.0801574 0.0713055 
0.0713055 0.0994028 0.0898478 0.094233 0.0643435 0.0954913 0.0995597 0.08356 0.102156 
0.0993285 0.113608 0.14381 0.0755695 0.0764018 0.0764018 0.0553547 0.0407948 0.0588223 
0.0514331 0.0514331 0.0490703 0.0853298 0.105387 0.0667801 0.0849044 0.118604 0.130913 
0.0770798 0.0469756 0.0543518 0.0367098 0.0321628 0.0275517 0.0275517 0.0731584 0.0653135 
0.0653135 0.0865394 0.123597 0.158006 0.122473 0.0978263 0.0781064 0.0516139 0.0526558 
0.0290326 0.04098 0.03413 0.0395419 0.0391051 0.0353707 0.0498526 0.0569203 0.0464741 
0.0545211 0.0961597 0.09648 0.102733 0.133868 0.147577 0.0494015 0.0521746 0.0693798 
0.0929699 0.0954036 0.138284 0.138284 0.153936 0.107267 0.125588 0.0621498 0.0631074 
0.0738497 0.0520388 0.0566948 0.0747118 0.0788057 0.0765941 0.0742484 0.0781764 0.0827664 
0.095624 0.117633 0.122918 0.138881 0.118145 0.126457 0.141271 0.168211 0.166394 
0.166394 0.165026 0.148137 0.133422 0.145565 0.124012 0.121808 0.0834297 0.0816644 
0.0804942 0.0583166 0.0590383 0.0590383 0.0534578 0.0733333 0.0867184 0.110683 0.114891 
0.105969 0.0931968 0.107235 0.0936912 0.12642 0.12642 0.13716 0.13894 0.107313 
0.0767034 0.074102 0.074102 0.0727105 0.0865716 0.0584378 0.095623 0.0860424 0.0626544 
0.0475793 0.047954 0.0682639 0.0486634 0.0699781 0.0494116 0.0631958 0.0944642 0.0911584 
0.0780908 0.0780908 0.0371782 0.0467716 0.0480983 0.0217144 0.0403888 0.0328161 0.0406417 
0.0375186 0.0594639 0.071807 0.0913536 0.106668 0.0960424 0.107749 0.103952 0.121166 
0.135884 0.138086 0.0894718 0.100809 0.098546 0.113199 0.117399 0.0878971 0.0811249 
0.126183 0.0964951 0.102947 0.106008 0.104579 0.104579 0.120857 0.100188 0.100188 
0.137643 0.150672 0.150672 0.16675 0.153566 0.146372 0.1404 0.14291 0.145171 
0.125204 0.0848148 0.107374 0.150261 0.160393 0.145699 0.116196 0.117937 0.122105 
0.109895 0.101855 0.0908252 0.0908252 0.0805832 0.0856311 0.0904383 0.0754826 0.0695331 
0.0665391 0.132848 0.131799 0.196242 0.0961942 0.0664505 0.0717544 0.054492 0.0703025 
0.0677334 0.0655447 0.0769593 0.152834 0.158235 0.0873091 0.0857699 0.0891658 0.0896014 
0.0829838 0.0898099 0.098573 0.123156 0.0764168 0.0668449 0.0744074 0.100877 0.120194 
0.0932854 0.0923374 0.087159 0.0997034 0.170364 0.161599 0.143916 0.128214 0.140592 
0.109752 0.103541 0.115963 0.131885 0.106797 0.10785 0.117844 0.123811 0.113809 
0.111548 0.111548 0.101883 0.0996131 0.113088 0.0927744 0.100601 0.113796 0.0768722 
0.0880206 0.0872892 0.155776 0.190409 0.186481 0.150316 0.0791735 0.0845465 0.0968116 
0.132439 0.136373 0.102334 0.099862 0.134912 0.15186 0.139308 0.186053 0.0821527 
0.0852808 0.0690875 0.0722528 0.090503 0.0453736 0.0527494 0.0527494 0.177728 0.117326 
0.193122 0.19841 0.134142 0.151388 0.136838 0.111416 0.0930151 0.0732254 0.0567909 
0.0502657 0.0569204 0.0596142 0.0596142 0.0922012 0.103536 0.09436 0.131693 0.177419 
0.27435 0.0777672 0.0757758 0.150029 0.191698 0.174965 0.0352071 0.0355278 0.0478874 
0.0997373 0.0947949 0.167613 
WidthEq 1 480 double
13.3431 8.8993 15.3785 11.1345 3.40517 10.0878 28.922 8.66886 7.40239 
13.8943 5.6997 10.6653 14.3441 12.4002 5.18866 13.5795 5.43662 5.441 
19.722 18.448 9.55761 13.2161 12.8468 13.1481 28.2991 16.7154 17.849 
12.7747 1 23.4987 26.6302 19.1377 18.0277 19.7952 13.9493 15.1572 
20.1005 27.3753 6.93592 15.3952 27.4028 15.3924 19.3952 9.27502 1.70209 
17.9859 23.2997 25.6941 21.1596 17.3777 16.0639 17.7638 20.2513 24.1268 
27.0322 28.2064 28.2064 27.8808 27.8808 27.234 25.0911 25.9333 25.9333 
24.4058 22.9371 24.2179 21.6026 21.3017 21.2702 20.8551 23.3288 24.7644 
26.0997 27.7916 23.5055 24.6251 28.155 27.6018 27.0573 34.9514 33.56 
37.0955 37.8776 36.5296 35.2973 31.8418 25.4509 24.8316 23.2774 21.6129 
21.6129 21.1906 20.3914 19.2714 24.3365 16.2513 14.8054 25.2651 25.2834 
26.7652 28.204 28.204 27.3371 27.3455 27.5684 28.1574 26.5805 24.8659 
8.40378 10.8297 13.4903 27.6257 26.2358 29.234 29.3136 27.7861 26.7055 
23.8346 21.1727 22.8332 21.1485 19.4796 16.9698 17.4892 18.75 18.4392 
17.8868 15.3558 16.1666 14.4444 16.0141 17.8513 18.0014 21.9735 11.8812 
24.4667 15.3952 25.7303 20.4133 18.7875 17.6874 17.3025 19.2046 22.0842 
25.4545 27.8732 27.2217 25.3698 21.64 22.8591 22.3453 24.4249 25.7928 
23.6293 15.4016 12.7266 12.3481 12.6287 12.6728 14.6207 13.0653 14.233 
16.2585 15.8143 16.1558 16.9582 16.9777 16.9674 15.1572 21.4036 23.2197 
23.2197 20.6044 20.6724 18.647 19.5003 16.0965 15.798 19.9807 18.6032 
19.277 16.9709 15.2683 18.3162 18.1065 18.1065 20.2963 21.9262 21.3817 
21.0955 21.0955 21.7041 16.729 16.5196 15.6921 14.9833 16.1475 17.6312 
23.8195 29.4816 28.071 29.3518 27.406 26.3286 26.3286 22.2529 22.8834 
22.8834 19.8888 18.3226 16.7282 21.0911 17.87 18.7902 21.2014 21.6205 
22.4372 22.8058 23.484 21.9962 22.8527 23.7037 24.6426 20.5427 18.9264 
17.9731 16.2716 14.2056 13.2293 12.7401 12.3887 21.3562 20.9948 18.4838 
16.3895 15.6933 13.4 13.4 13.0967 15.394 13.7447 19.2575 20.5562 
20.401 27.5178 27.7964 16.0699 14.2971 13.7642 13.5373 16.0846 13.4931 
18.2486 16.77 16.6911 15.1588 16.8623 15.7534 15.0247 13.7566 13.5294 
13.5294 13.1751 13.0728 16.2279 15.1481 17.9978 18.165 25.8016 25.3502 
24.4671 24.284 22.4619 22.4619 22.8702 20.2291 18.6903 15.4987 14.5009 
15.6308 14.3218 13.2842 13.73 10.1717 10.1717 9.43264 10.3337 11.4864 
13.9437 16.7799 16.7799 17.168 16.4913 17.9301 19.0557 21.1946 21.203 
24.0181 25.6324 26.0643 23.9381 23.2969 20.4842 18.7524 16.768 15.3506 
16.3843 16.3843 19.0474 19.156 19.1978 22.7711 21.7813 23.4836 22.7341 
21.4474 20.7353 16.9841 14.2486 13.7542 12.2072 12.4718 13.0314 11.7037 
12.1678 10.8006 10.7512 10.8989 10.9112 10.5821 10.8579 12.3373 12.3795 
11.1938 12.4094 12.5936 12.6848 13.0772 13.0772 12.7962 12.9367 12.9367 
11.312 11.5735 11.5735 11.6531 11.3355 11.8537 12.2561 12.1045 12.1037 
12.8062 19.15 15.7893 11.6762 10.2008 9.78766 11.1914 11.0939 10.2653 
11.3694 11.1485 11.1441 11.1441 11.4406 11.5234 11.6074 12.6641 12.9829 
12.7747 16.0587 15.7745 9.13612 19.3817 20.3298 19.7805 13.0967 12.4304 
11.9731 12.8145 12.4185 14.2056 13.4645 12.1307 16.9674 15.7781 15.5743 
16.3409 15.4064 16.1729 14.3441 20.1988 20.7588 19.8227 16.6295 21.1875 
23.7148 21.6304 19.556 17.1305 14.0862 14.9292 15.2921 15.2655 14.4332 
15.6376 15.4175 14.9972 14.4997 15.0677 14.1331 14.3504 13.9616 13.4609 
15.7467 15.7467 17.1604 18.4018 17.995 20.9916 20.6163 20.1013 20.325 
11.6121 10.1988 7.19781 10.569 10.2724 12.2776 16.9124 13.6587 11.0203 
9.99343 10.7206 16.0913 14.7568 13.0302 10.68 9.29891 5.441 9.22209 
9.28139 10.1491 8.79662 8.42488 7.40677 11.0605 11.0605 12.0858 13.7825 
10.0332 9.9994 12.1785 11.1266 10.5984 10.3377 11.4446 14.2378 16.6295 
17.25 19.6448 20.7353 20.7353 19.3733 18.3859 11.0653 9.33234 7.02507 
4.90169 11.9807 13.831 11.2583 9.67025 10.7373 27.3443 26.8794 21.5226 
13.913 13.2285 10.35 
rRFP 1 480 double
2597.63 2485.98 2648.77 2542.14 2347.94 2515.84 2989.05 2480.19 2448.37 
2611.48 2405.59 2530.35 2622.78 2573.94 2392.75 2603.57 2398.98 2399.09 
2757.9 2725.89 2502.52 2594.44 2585.16 2592.73 2973.4 2682.36 2710.84 
2583.35 2287.51 2852.79 2931.47 2743.22 2715.33 2759.74 2612.86 2643.21 
2767.41 2950.19 2436.65 2649.19 2950.88 2649.12 2749.69 2495.42 2305.15 
2714.28 2847.79 2907.95 2794.02 2699 2665.99 2708.7 2771.2 2868.57 
2941.57 2971.07 2971.07 2962.89 2962.89 2946.64 2892.8 2913.96 2913.96 
2875.58 2838.68 2870.86 2805.15 2797.59 2796.8 2786.37 2848.52 2884.59 
2918.14 2960.65 2852.96 2881.09 2969.78 2955.88 2942.2 3140.54 3105.58 
3194.41 3214.06 3180.19 3149.23 3062.41 2901.84 2886.28 2847.23 2805.41 
2805.41 2794.8 2774.72 2746.58 2873.84 2670.7 2634.37 2897.17 2897.63 
2934.86 2971.01 2971.01 2949.23 2949.44 2955.04 2969.84 2930.22 2887.14 
2473.53 2534.48 2601.33 2956.48 2921.56 2996.89 2998.89 2960.51 2933.36 
2861.23 2794.35 2836.07 2793.74 2751.81 2688.75 2701.8 2733.48 2725.67 
2711.79 2648.2 2668.57 2625.3 2664.74 2710.9 2714.67 2814.47 2560.9 
2877.11 2649.19 2908.86 2775.27 2734.42 2706.78 2697.11 2744.9 2817.25 
2901.93 2962.7 2946.33 2899.8 2806.09 2836.72 2823.81 2876.06 2910.43 
2856.07 2649.35 2582.14 2572.63 2579.68 2580.79 2629.73 2590.65 2619.99 
2670.88 2659.72 2668.3 2688.46 2688.95 2688.69 2643.21 2800.15 2845.78 
2845.78 2780.07 2781.78 2730.89 2752.33 2666.81 2659.31 2764.4 2729.79 
2746.72 2688.78 2646 2722.58 2717.31 2717.31 2772.33 2813.28 2799.6 
2792.41 2792.41 2807.7 2682.7 2677.44 2656.65 2638.84 2668.09 2705.37 
2860.85 3003.11 2967.67 2999.85 2950.96 2923.89 2923.89 2821.49 2837.33 
2837.33 2762.09 2722.74 2682.68 2792.3 2711.37 2734.49 2795.07 2805.6 
2826.12 2835.38 2852.42 2815.04 2836.56 2857.94 2881.53 2778.52 2737.91 
2713.96 2671.21 2619.3 2594.77 2582.48 2573.65 2798.96 2789.88 2726.79 
2674.17 2656.68 2599.06 2599.06 2591.44 2649.16 2607.72 2746.23 2778.86 
2774.96 2953.77 2960.77 2666.14 2621.6 2608.21 2602.51 2666.51 2601.4 
2720.88 2683.73 2681.75 2643.25 2686.05 2658.19 2639.88 2608.02 2602.31 