# vtk DataFile Version 3.0
vtk output
ASCII
DATASET POLYDATA
POINTS 531 float
0.566739 0.548382 1.7993 0.55131 0.50761 1.36223 0.703313 0.497782 1.15321 
0.255619 0.368959 1.18103 0.895846 1.79244 0.460448 1.25464 1.72953 0.0714343 
0.860588 1.68695 0.0570191 2.29475 -0.267222 1.03915 -0.17312 1.1825 0.00597759 
2.43113 -0.638354 0.645466 2.71782 0.856803 0.00424957 0.816205 -1.38812 0.978755 
-0.319402 -0.973145 0.718177 2.73563 -0.124037 0.315795 1.69206 -1.3095 0.86693 
1.30307 -1.66384 0.795275 2.61619 1.33414 -0.725728 -0.736453 0.0562078 -0.574311 
3.04474 0.480562 -0.826349 2.77211 1.14204 -1.06323 -0.637041 -0.924751 -0.254872 
-0.449102 0.887886 -1.23263 -0.370074 -1.86242 -0.0279493 1.14627 1.45861 -1.62212 
0.95509 1.54523 -1.68804 -0.308496 0.547935 -1.41405 4.84573 0.191675 -0.800204 
4.54861 0.296829 -0.962812 3.27253 0.108504 -1.0581 2.9046 0.698971 -1.41777 
2.65218 0.876001 -1.61558 -0.62991 -0.806964 -1.0907 4.70514 -0.0503395 -1.13873 
0.0205976 0.378305 -1.90279 4.43662 -0.440831 -1.17897 4.22446 -0.289436 -1.28249 
2.46459 0.821106 -2.06141 2.81422 -0.512748 -1.5241 2.72026 -0.392717 -1.82806 
2.14849 -0.671641 -1.88234 1.12755 -1.7716 -1.22335 0.169234 -1.83491 -1.2805 
2.77657 -1.11462 -1.65506 2.67983 -0.941824 -1.75927 0.478611 -1.95289 -1.41501 
0.214159 -0.506471 -2.23498 2.22341 -1.01869 -2.06617 1.40589 -1.96389 -1.54901 
2.00761 -0.799339 -2.13104 -0.0255945 -0.817869 -2.31591 2.06437 -1.06082 -2.21094 
1.375 -1.42936 -2.18063 1.14085 -0.616604 -2.61991 1.20762 -0.558358 -2.79817 
1.17485 -0.581077 -2.71532 1.05373 -0.615199 -2.59229 0.990995 -0.595633 -2.58361 
0.938833 -0.569156 -2.58336 0.882727 -0.550172 -2.57939 0.813382 -0.544959 -2.55498 
0.743145 -0.541181 -2.52987 0.679625 -0.522048 -2.50406 0.614248 -0.510652 -2.48267 
0.552973 -0.49592 -2.46271 0.49272 -0.50199 -2.43972 0.440096 -0.518393 -2.40183 
0.372169 -0.523147 -2.35485 0.294265 -0.516945 -2.29788 1.20227 -0.643201 -2.56265 
1.25493 -0.659933 -2.52297 1.30856 -0.668569 -2.50177 1.36939 -0.667864 -2.49349 
1.423 -0.680172 -2.48158 1.47112 -0.696757 -2.45937 1.51778 -0.711134 -2.43004 
1.56404 -0.717058 -2.38842 1.61516 -0.715149 -2.35064 1.67305 -0.697807 -2.3122 
1.72424 -0.695805 -2.27447 1.77081 -0.696661 -2.22712 1.82137 -0.691115 -2.18292 
1.8786 -0.670296 -2.13797 1.92935 -0.673542 -2.10587 1.97319 -0.715204 -2.10422 
1.44716 -1.41073 -2.21363 1.50848 -1.37331 -2.21558 1.55445 -1.32157 -2.19719 
1.60491 -1.2711 -2.17342 1.65245 -1.22755 -2.16735 1.71599 -1.19779 -2.16912 
1.78883 -1.17552 -2.17437 1.86172 -1.15322 -2.17962 1.9269 -1.12679 -2.18789 
1.98417 -1.09282 -2.20106 1.29511 -1.42089 -2.1463 1.22162 -1.41113 -2.12055 
1.15866 -1.40311 -2.11403 1.09047 -1.41187 -2.11152 1.02262 -1.42248 -2.1122 
0.961302 -1.42256 -2.11804 0.893445 -1.43316 -2.11872 0.825016 -1.44013 -2.11298 
0.762738 -1.42811 -2.10011 0.696077 -1.40948 -2.06586 0.632204 -1.38181 -2.02781 
0.565597 -1.36309 -1.9936 0.504207 -1.34964 -1.98144 0.440702 -1.34869 -1.97957 
0.381228 -1.34581 -1.98685 0.318616 -1.34343 -1.98568 0.262092 -1.32215 -1.97735 
0.202252 -1.288 -1.94249 0.129129 -1.26155 -1.87921 0.0539274 -1.22934 -1.80235 
-0.0126957 -1.19244 -1.7442 -0.0806515 -1.16678 -1.69696 -0.145412 -1.14054 -1.65822 
-0.219373 -1.11544 -1.59429 -0.294304 -1.07824 -1.51166 -0.357601 -1.01779 -1.43221 
-0.415474 -0.953069 -1.36305 -0.47846 -0.89521 -1.29061 -0.555703 -0.847343 -1.1971 
2.03609 -0.92072 -2.17189 2.14997 -1.04299 -2.1475 0.0270397 -0.743891 -2.24124 
0.0603187 -0.67424 -2.19999 0.0865245 -0.617746 -2.19458 0.114592 -0.571913 -2.20858 
0.153456 -0.534245 -2.22555 2.07551 -0.728752 -2.0163 1.33034 -1.92314 -1.45991 
1.26672 -1.86774 -1.38618 1.2031 -1.81235 -1.31245 2.18752 -0.840356 -1.97251 
2.29158 -1.03442 -2.01423 2.35749 -1.02985 -1.98498 2.41631 -1.02558 -1.96189 
2.47636 -1.01261 -1.93498 2.52881 -1.00192 -1.88494 2.58962 -0.982773 -1.82177 
0.192473 -0.428279 -2.24609 0.177606 -0.343359 -2.2348 0.175633 -0.254459 -2.19901 
0.167307 -0.152867 -2.14537 0.164093 -0.0568603 -2.09664 0.146289 0.0447048 -2.05519 
0.11962 0.146273 -2.02591 0.0822104 0.263566 -1.97519 0.420579 -1.92949 -1.3995 
0.349993 -1.91717 -1.36216 0.278839 -1.9012 -1.31838 0.220561 -1.86909 -1.29072 
2.21024 -0.603052 -1.87453 2.27728 -0.55444 -1.85239 2.34257 -0.524092 -1.82321 
2.40001 -0.509974 -1.79436 2.45659 -0.482495 -1.77859 2.50487 -0.441216 -1.77119 
2.56845 -0.411583 -1.77289 2.64263 -0.396458 -1.79104 2.72513 -0.851483 -1.72822 
2.75647 -0.77167 -1.69274 2.78692 -0.696093 -1.64651 2.81794 -0.615525 -1.58602 
2.7068 -1.02022 -1.71362 2.7363 -1.07958 -1.67818 2.73416 -0.409691 -1.70714 
2.75536 -0.43314 -1.61589 2.78711 -0.462392 -1.56285 2.73316 -0.343288 -1.85397 
2.72423 -0.283966 -1.88742 2.70512 -0.220034 -1.92437 2.6853 -0.152503 -1.95489 
2.67282 -0.0817567 -1.96951 2.67165 -0.00631724 -1.96018 2.65731 0.0750952 -1.95539 
2.63548 0.153244 -1.96649 2.61365 0.216467 -2.00331 2.58686 0.271899 -2.03634 
2.55139 0.322472 -2.05057 2.51993 0.39771 -2.04402 2.48723 0.480054 -2.02454 
2.44813 0.551911 -1.99992 2.41943 0.627917 -1.99354 2.40844 0.697414 -2.00733 
2.42696 0.756749 -2.02967 2.88254 -0.455695 -1.46408 2.94865 -0.394367 -1.39813 
3.00546 -0.325559 -1.32871 3.05034 -0.257887 -1.27676 3.11006 -0.20676 -1.23975 
3.17692 -0.167518 -1.21814 3.22627 -0.112509 -1.18991 3.24267 -0.0161048 -1.13952 
2.39963 0.948717 -2.01902 2.3423 1.03448 -1.96985 2.29371 1.10405 -1.92791 
2.25569 1.17348 -1.91033 2.21704 1.22804 -1.91009 2.18339 1.27244 -1.93771 
2.1414 1.30344 -1.95877 2.09355 1.32501 -1.97521 2.039 1.3358 -1.98637 
1.97368 1.31106 -2.01297 1.90378 1.26986 -2.04794 1.83362 1.22369 -2.08867 
1.76305 1.18596 -2.11712 1.69678 1.15971 -2.14298 1.63631 1.16099 -2.14948 
1.57089 1.17251 -2.12816 1.50583 1.20737 -2.07723 1.43763 1.24173 -2.01783 
1.37614 1.29145 -1.95774 1.31252 1.34684 -1.88402 1.2335 1.40021 -1.76825 
2.5353 0.843848 -1.92294 2.57483 0.852358 -1.7966 2.61147 0.863736 -1.69756 
4.25986 -0.290048 -1.20243 4.28917 -0.309571 -1.12952 4.32509 -0.34122 -1.09173 
4.36917 -0.396154 -1.10821 4.46349 -0.482482 -1.12807 4.50172 -0.505856 -1.08612 
4.54208 -0.534909 -1.0578 4.5773 -0.581343 -1.0374 4.62147 -0.617936 -1.03002 
4.67351 -0.628202 -1.0109 4.73068 -0.607473 -0.96592 4.7772 -0.585665 -0.888617 
4.81362 -0.570995 -0.791416 4.84792 -0.568812 -0.704503 4.89913 -0.548563 -0.642862 
4.95489 -0.530109 -0.596768 5.01915 -0.493236 -0.551492 5.0867 -0.447594 -0.510706 
5.14541 -0.399391 -0.480672 5.18259 -0.351145 -0.478167 5.21224 -0.306028 -0.491624 
5.24943 -0.267601 -0.509167 5.29809 -0.23437 -0.522754 5.32482 -0.191206 -0.543903 
5.32802 -0.13738 -0.573165 5.33244 -0.0841056 -0.602009 5.32248 -0.027705 -0.642432 
5.30343 0.0276087 -0.691604 5.27755 0.070651 -0.743175 5.23624 0.0981826 -0.770747 
5.18301 0.115645 -0.776963 5.1202 0.126814 -0.763682 5.06535 0.146227 -0.762652 
5.01594 0.169837 -0.771878 4.96709 0.189806 -0.787534 4.91254 0.200592 -0.798693 
4.49742 -0.413101 -1.18837 4.53734 -0.372638 -1.19829 4.57443 -0.324352 -1.19581 
4.62115 -0.270536 -1.17001 4.65406 -0.205888 -1.14299 4.67933 -0.133141 -1.12965 
-0.0691529 0.447743 -1.79121 -0.15789 0.489468 -1.67564 -0.2385 0.523497 -1.55224 
4.6431 0.0341908 -1.12044 4.59627 0.150488 -1.0616 4.78068 0.0721767 -0.969795 
-0.674082 -0.797372 -0.964513 -0.697329 -0.801307 -0.845834 -0.696306 -0.815427 -0.727728 
-0.683895 -0.84041 -0.619508 -0.669573 -0.866856 -0.510311 -0.654283 -0.894428 -0.39192 
2.70029 0.795676 -1.6771 2.7346 0.711381 -1.70382 2.76509 0.649682 -1.68963 
2.80436 0.632827 -1.63985 2.84998 0.654026 -1.54534 2.70223 0.980877 -1.4394 
2.74003 1.06605 -1.25356 2.94452 0.598368 -1.39543 2.97252 0.519219 -1.36623 
2.99252 0.464049 -1.30855 3.00765 0.438574 -1.19981 3.02247 0.446672 -1.03322 
3.34741 0.105066 -1.00945 3.4092 0.112121 -0.964992 3.47495 0.142699 -0.927416 
3.54419 0.18119 -0.893864 3.60922 0.214555 -0.855061 3.66867 0.225497 -0.829926 
3.73766 0.227719 -0.849971 3.80713 0.21674 -0.922096 3.86467 0.20462 -1.01169 
3.92869 0.189458 -1.07355 3.99029 0.179789 -1.08778 4.05713 0.202623 -1.06846 
4.12584 0.251012 -1.0206 4.19414 0.307849 -0.96046 4.26342 0.352597 -0.919029 
4.3303 0.369098 -0.907537 4.38916 0.347616 -0.91836 4.45584 0.317019 -0.937564 
-0.375967 0.525459 -1.33468 -0.419046 0.500054 -1.27396 -0.449891 0.469387 -1.22897 
-0.476783 0.434951 -1.19002 -0.495727 0.40135 -1.13945 -0.50141 0.36174 -1.08431 
-0.519288 0.33093 -1.02669 -0.536546 0.296565 -0.975542 -0.542228 0.256956 -0.920401 
-0.559834 0.216201 -0.882744 -0.583921 0.175111 -0.853997 -0.600907 0.130806 -0.822803 
-0.606151 0.0877241 -0.774197 -0.628108 0.0620315 -0.711305 -0.670252 0.0520328 -0.642003 
2.87893 0.862893 -1.22475 2.84722 1.00766 -1.09529 2.8131 1.10197 -1.05143 
3.22758 0.240063 -0.982022 3.17441 0.333589 -0.908455 3.11434 0.406365 -0.855247 
4.61131 0.395747 -0.787785 4.66296 0.4585 -0.656159 4.71512 0.476033 -0.59859 
4.75814 0.420829 -0.612203 4.80424 0.323609 -0.690076 -0.360968 0.670846 -1.3707 
-0.410338 0.774797 -1.30532 1.00475 1.51291 -1.69097 1.05379 1.48415 -1.68743 
1.10096 1.46605 -1.66448 1.15828 1.52751 -1.42982 1.14871 1.58758 -1.24322 
1.13772 1.64508 -1.07231 1.09934 1.68802 -0.921463 1.06624 1.71186 -0.776591 
1.01585 1.73516 -0.650047 0.981935 1.74108 -0.537804 0.970843 1.72355 -0.444432 
0.949951 1.70065 -0.374488 0.919939 1.68516 -0.301003 0.88816 1.68028 -0.208078 
0.864076 1.68501 -0.0857662 -0.411137 -1.80867 -0.0868673 -0.442559 -1.74828 -0.123061 
-0.479714 -1.68948 -0.125001 -0.509625 -1.61622 -0.125708 -0.533405 -1.54229 -0.14316 
-0.555677 -1.47049 -0.167773 -0.578514 -1.39505 -0.185967 -0.603214 -1.30895 -0.184753 
-0.62844 -1.21933 -0.177026 -0.651394 -1.13395 -0.17525 -0.662619 -1.0624 -0.190189 
-0.652076 -0.999345 -0.215335 -0.304444 -1.87667 0.0116159 -0.235933 -1.87743 0.0186049 
-0.180097 -1.88798 0.0297591 -0.126667 -1.89156 0.0538107 -0.0683955 -1.86906 0.0979322 
-0.0139391 -1.84359 0.157016 0.0424714 -1.81043 0.220535 0.0914893 -1.78915 0.289883 
0.140506 -1.76787 0.359232 0.196917 -1.7347 0.422751 0.250806 -1.70559 0.488264 
0.307483 -1.66745 0.557556 0.360184 -1.63114 0.63597 0.415621 -1.58589 0.718197 
0.468321 -1.54958 0.796611 0.525673 -1.5149 0.859388 0.582059 -1.49247 0.909023 
0.648836 -1.46358 0.939131 0.72629 -1.42761 0.960728 -0.549987 -0.866123 -0.159993 
-0.493367 -0.830763 -0.063724 -0.453804 -0.805456 0.0364309 -0.431733 -0.783526 0.145236 
-0.435497 -0.780406 0.253424 -0.428529 -0.805396 0.344146 -0.405846 -0.845766 0.402425 
-0.373002 -0.882158 0.442537 -0.348696 -0.923374 0.501438 -0.332364 -0.954656 0.596515 
2.69981 1.24719 -0.898934 2.96141 0.605896 -0.600702 2.89042 0.700074 -0.379357 
2.80783 0.78068 -0.179951 1.26686 -1.61901 0.775655 1.20976 -1.59865 0.784435 
1.14756 -1.57286 0.815183 1.07976 -1.54695 0.862296 1.01486 -1.51322 0.911048 
0.947315 -1.48599 0.954632 0.884151 -1.44518 0.977049 1.72065 -1.26718 0.846423 
1.75792 -1.22879 0.82891 1.80995 -1.19709 0.816485 1.85758 -1.1634 0.802544 
1.91129 -1.13245 0.790697 1.95902 -1.0988 0.776789 2.01273 -1.06786 0.764942 
2.05974 -1.03061 0.757473 2.11053 -0.991799 0.757983 2.14594 -0.94275 0.759876 
2.17329 -0.893318 0.752312 2.20126 -0.847441 0.738277 2.23854 -0.809053 0.720764 
2.29098 -0.779649 0.703986 2.33901 -0.746951 0.684974 2.39162 -0.706224 0.667647 
2.78005 -0.19298 0.273122 2.80105 -0.263482 0.262973 2.79949 -0.325818 0.271627 
2.79759 -0.386668 0.287904 2.77272 -0.440493 0.289646 2.7253 -0.480829 0.290298 
2.68883 -0.522856 0.301403 2.66024 -0.565177 0.321909 2.63112 -0.603986 0.348921 
2.5934 -0.631304 0.388579 2.54618 -0.641868 0.452048 2.50747 -0.648249 0.545134 
0.831165 -1.24367 1.08178 0.8474 -1.12755 1.17221 0.868323 -1.04002 1.23074 
0.900425 -0.971946 1.2671 0.948818 -0.918961 1.29351 0.993792 -0.861152 1.32544 
1.05343 -0.80998 1.36243 1.11866 -0.761349 1.40134 1.16863 -0.70908 1.4283 
1.19008 -0.640613 1.45211 1.22759 -0.579418 1.48147 1.26114 -0.519707 1.50277 
1.29805 -0.471335 1.50518 1.34787 -0.435356 1.49868 1.38505 -0.396925 1.48113 
1.41354 -0.35456 1.46059 1.44055 -0.311522 1.43954 1.46905 -0.269157 1.419 
1.50623 -0.230726 1.40145 1.55658 -0.198263 1.38845 1.59314 -0.156276 1.37738 
1.6203 -0.106763 1.36974 1.64377 -0.0523032 1.36751 1.66129 -0.00169036 1.34987 
1.67556 0.0438436 1.31774 1.71741 0.0703425 1.28176 1.75424 0.102389 1.25073 
1.78495 0.140478 1.22427 1.82232 0.178823 1.20679 1.87435 0.210526 1.19436 
1.92189 0.244264 1.18039 1.97401 0.275924 1.168 2.01358 0.309997 1.14459 
2.05431 0.337004 1.10822 2.10847 0.348105 1.05643 2.15009 0.361611 0.993627 
2.18452 0.378378 0.928351 2.22393 0.396164 0.871477 2.27003 0.407644 0.810226 
2.30079 0.4228 0.736998 2.36008 0.421759 0.666921 2.43515 0.413565 0.602289 
2.50241 0.412185 0.541647 2.54508 0.428492 0.485899 2.57554 0.460152 0.445986 
2.60307 0.499678 0.418429 2.62989 0.542802 0.397311 2.65662 0.585971 0.37616 
2.68238 0.6263 0.347993 2.70061 0.663499 0.303863 2.70594 0.696724 0.235239 
2.71629 0.724395 0.161652 2.71985 0.758423 0.0924167 2.72605 0.801076 0.0441372 
2.68656 0.923245 -0.00132425 2.64179 0.977088 0.015685 2.5907 1.02531 0.0436712 
2.54018 1.06989 0.0652196 2.49633 1.11155 0.0635678 2.4605 1.16155 0.0496319 
2.41671 1.20329 0.0479382 2.3664 1.25277 0.0752971 2.31737 1.31797 0.119599 
2.27046 1.39566 0.174185 2.21488 1.45033 0.223639 2.17107 1.51026 0.245884 
2.12634 1.55049 0.244931 2.07876 1.57705 0.234261 2.03007 1.59727 0.218483 
1.97641 1.60949 0.20662 1.91509 1.60484 0.194806 1.85686 1.60061 0.174586 
1.79578 1.58726 0.150621 1.73603 1.58514 0.137567 1.66855 1.57969 0.14257 
1.60408 1.59274 0.163144 1.55375 1.63309 0.178551 1.49229 1.66463 0.214695 
1.43008 1.69043 0.245448 1.36728 1.7016 0.258728 1.32129 1.71251 0.222879 
1.29015 1.72908 0.151423 2.36355 -0.436434 0.836206 -0.0991787 1.20744 0.00785481 
-0.0273656 1.23806 0.023365 0.0377095 1.2715 0.0621217 0.0946842 1.29667 0.113139 
0.158087 1.33088 0.151313 0.219541 1.36619 0.163252 0.269242 1.40538 0.163456 
0.330572 1.43942 0.1676 0.391281 1.47701 0.178217 0.441569 1.51277 0.171877 
0.504666 1.53619 0.156582 0.567422 1.55321 0.127807 0.6093 1.58297 0.0985192 
0.650653 1.61624 0.075727 0.713225 1.64317 0.0669368 0.786068 1.66544 0.0616888 
0.883873 1.74879 0.25428 0.308194 0.377626 1.22373 0.374462 0.405993 1.2569 
0.45402 0.450731 1.29933 0.644833 0.500897 1.25615 0.560499 0.523444 1.58341 

LINES 52 637
3 53 54 52 
15 52 55 56 57 58 59 60 61 62 63 64 65 66 67 45 
18 52 68 69 70 71 72 73 74 75 76 77 78 79 80 81 82 83 48 
3 50 123 48 
3 50 124 46 
7 49 125 126 127 128 129 45 
3 48 130 39 
5 47 131 132 133 40 
3 46 134 39 
8 46 135 136 137 138 139 140 43 
6 44 149 150 151 152 41 
10 39 153 154 155 156 157 158 159 160 38 
6 43 161 162 163 164 37 
4 43 165 166 42 
5 38 167 168 169 37 
19 38 170 171 172 173 174 175 176 177 178 179 180 181 182 183 184 185 186 36 
10 37 187 188 189 190 191 192 193 194 28 
23 36 195 196 197 198 199 200 201 202 203 204 205 206 207 208 209 210 211 212 213 214 215 23 
5 36 216 217 218 30 
6 35 219 220 221 222 34 
34 34 223 224 225 226 227 228 229 230 231 232 233 234 235 236 237 238 239 240 241 242 243 244 245 246 247 248 249 250 251 252 253 254 26 
8 34 255 256 257 258 259 260 32 
4 32 264 265 27 
3 32 266 26 
7 30 273 274 275 276 277 29 
4 30 278 279 19 
7 29 280 281 282 283 284 18 
20 28 285 286 287 288 289 290 291 292 293 294 295 296 297 298 299 300 301 302 27 
17 25 303 304 305 306 307 308 309 310 311 312 313 314 315 316 317 17 
5 29 318 319 320 19 
5 28 321 322 323 18 
7 27 324 325 326 327 328 26 
4 25 329 330 21 
5 24 331 332 333 23 
14 23 334 335 336 337 338 339 340 341 342 343 344 345 6 
12 20 377 378 379 380 381 382 383 384 385 386 12 
3 19 387 16 
5 18 388 389 390 10 
9 15 391 392 393 394 395 396 397 11 
18 14 398 399 400 401 402 403 404 405 406 407 408 409 410 411 412 413 9 
14 13 414 415 416 417 418 419 420 421 422 423 424 425 9 
56 11 426 427 428 429 430 431 432 433 434 435 436 437 438 439 440 441 442 443 444 445 446 447 448 449 450 451 452 453 454 455 456 457 458 459 460 461 462 463 464 465 466 467 468 469 470 471 472 473 474 475 476 477 478 479 10 
30 10 480 481 482 483 484 485 486 487 488 489 490 491 492 493 494 495 496 497 498 499 500 501 502 503 504 505 506 507 5 
3 9 508 7 
18 8 509 510 511 512 513 514 515 516 517 518 519 520 521 522 523 524 6 
3 6 525 4 
5 3 526 527 528 1 
3 2 529 1 
3 1 530 0 
14 45 141 142 143 144 145 146 147 148 33 261 262 263 25 
49 50 93 92 91 90 89 88 87 86 85 84 51 94 95 96 97 98 99 100 101 102 103 104 105 106 107 108 109 110 111 112 113 114 115 116 117 118 119 120 121 122 31 267 268 269 270 271 272 20 
34 20 357 356 355 354 353 352 351 350 349 348 347 346 22 358 359 360 361 362 363 364 365 366 367 368 369 370 371 372 373 374 375 376 11 

POINT_DATA 531
SCALARS DY_raw double
LOOKUP_TABLE default
1204.38 270.181 203.725 155.475 1575.63 300.543 477.156 1185.68 297.882 
301.857 320.554 244.851 465.993 316.145 450.651 499.6 402.867 269.771 
278.231 291.201 180.181 380.728 278.7 276.006 199.506 225.161 366.581 
269.824 308.284 330.475 335.803 189.297 232.176 245.826 238.687 271.773 
199.779 367.669 286.54 335.809 355.845 122.713 846.364 405.123 428.995 
245.351 302.832 165.542 252.04 227.439 245.094 347.291 189.635 187.814 
181.36 234.483 224.583 241.268 219.67 244.807 251.437 229.824 268.604 
309.178 282.45 245.659 216.548 190.341 221.62 239.728 267.436 307.071 
389.681 389.681 390.287 362.431 399.243 331.754 345.107 333.574 323.076 
339.582 326.975 268.44 360.608 331.748 372.991 357.404 281.237 288.929 
341.708 287.794 275.084 253.198 308.554 304.554 299.967 259.613 220.495 
241.131 225.479 217.365 261.17 238.758 261.042 261.042 256.478 256.478 
202.918 185.919 210.458 209.405 221.491 239.717 260.084 200.905 212.739 
242.132 255.938 205.533 210.595 185.147 170.2 242.402 274.587 277.208 
265.679 186.379 244.729 203.729 276.324 187.246 245.551 261.56 334.141 
297.014 323.907 297.327 335.916 335.93 384.28 196.507 195.757 199.65 
260.781 281.587 280.309 280.311 276.153 176.066 148.002 182.492 132.212 
312.479 315.272 296.774 294.823 326.556 326.748 317.056 327.349 371.394 
352.481 329.199 353.582 502.837 717.027 297.758 321.428 346.169 247.565 
243.981 228.937 223.008 232.871 234.479 234.06 236.524 237.136 240.202 
228.52 222.847 237.525 222.463 223.859 206.679 212.952 309.899 346.55 
349.618 338.03 397.214 286.399 279.713 302.176 214.389 270.325 270.335 
298.968 284.48 297.45 297.45 307.74 312.885 349.616 347.771 327.012 
300.025 232.288 247.213 201.663 198.714 226.031 259.732 211.886 281.376 
231.891 268.213 278.244 288.109 294.723 322.932 259.585 238.687 277.814 
333.104 333.104 333.864 333.864 330.166 303.568 361.582 372.686 391.373 
349.272 320.973 350.752 387.067 387.067 391.757 346.204 346.204 353.063 
387.705 360.574 339.224 358.787 394.673 365.862 393.888 384.606 384.606 
386.022 356.009 356.009 219.712 222.968 235.485 253.111 262.97 258.683 
229.243 258.552 226.277 242.043 283.592 277.597 200.256 235.621 249.373 
173.299 149.321 156.113 268.067 238.137 229.194 261.125 324.434 258.378 
240.052 316.129 317.798 299.406 282.457 265.376 357.546 326.826 334.601 
403.896 356.992 329.049 310.239 292.043 296.391 260.045 272.43 255.886 
295.934 302.05 259.4 245.762 240.374 251.251 234.194 253.967 247.004 
256.042 277.549 263.771 263.771 260.566 234.213 262.92 219.618 203.28 
203.28 200.977 231.111 324.971 343.958 285.748 302.409 333.842 304.314 
292.783 288.751 297.068 325.36 343.786 239.325 287.687 220.061 209.678 
230.912 282.046 287.261 289.886 258.372 239.754 244.304 239.506 238.986 
244.612 253.521 331.276 355.155 272.164 251.437 259.452 283.653 276.708 
294.058 249.008 240.426 229.195 201.338 207.186 200.295 294.252 311.808 
311.907 299.268 344.033 377.035 389.562 328.846 373.171 423.935 402.005 
467.642 418.278 420.25 367.829 377.552 313.86 261.789 238.71 214.874 
239.477 288.642 346.054 330.989 318.278 268.303 268.137 256.136 283.193 
254.9 222.478 256.572 257.764 499.6 393.912 403.256 458.333 391.635 
312.495 256.815 450.651 393.886 354.735 397.067 337.233 346.441 346.441 
376.614 373.471 373.471 412.606 412.606 401.102 357.691 348.592 327.981 
283.367 290.436 328.282 359.434 373.323 373.323 434.894 363.176 337.642 
289.76 295.441 310.184 292.727 318.703 338.725 258.404 280.357 275.314 
290.979 315.087 303.393 303.393 303.047 325.295 363.26 332.636 334.067 
334.067 359.16 342.12 342.12 301.526 301.526 265.251 262.838 262.838 
244.336 220.447 220.447 232.867 225.324 225.324 265.125 275.485 311.631 
309.676 290.881 256.898 296.743 283.708 302.799 284.488 308.252 267.359 
280.815 255.975 273.528 273.528 299.381 366.202 366.202 370.9 472.608 
407.717 422.5 349.992 340.114 310.031 305.828 305.828 289.811 289.811 
276.529 291.779 381.739 366.447 417.852 461.037 407.711 383.143 383.143 
321.112 321.112 377.753 338.122 423.314 381.523 326.177 347.609 282.653 
324.2 360.083 357.76 363.539 487.218 297.882 282.409 301.834 288.368 
370.2 350.656 329.733 394.198 289.972 313.584 313.584 330.051 334.9 
338.614 344.64 404.257 686.048 182.001 207.365 249.014 227.122 483.581 

FIELD FieldData 7
DY_minmax 1 531 double
0.744478 0.101498 0.0557583 0.0225494 1 0.122395 0.243953 0.73161 0.120564 
0.1233 0.136168 0.0840641 0.236269 0.133134 0.225711 0.2594 0.192822 0.101216 
0.107039 0.115966 0.0395539 0.177584 0.107362 0.105507 0.0528544 0.0705123 0.167848 
0.101253 0.127723 0.142997 0.146664 0.0458282 0.0753406 0.0847351 0.0798215 0.102594 
0.0530422 0.168596 0.112757 0.146668 0.160458 0 0.498068 0.194375 0.210805 
0.0844084 0.123971 0.0294782 0.0890123 0.07208 0.0842315 0.154571 0.0460608 0.0448071 
0.0403653 0.0769285 0.0701142 0.0815981 0.0667328 0.0840338 0.0885973 0.0737215 0.100413 
0.128339 0.109942 0.0846201 0.0645839 0.0465467 0.0680746 0.0805384 0.099609 0.126888 
0.183746 0.183746 0.184164 0.164991 0.190327 0.143877 0.153068 0.145129 0.137904 
0.149265 0.140587 0.100299 0.163737 0.143873 0.172259 0.161531 0.109108 0.114402 
0.150728 0.113621 0.104872 0.0898089 0.127909 0.125156 0.121999 0.0942242 0.0673004 
0.0815039 0.070731 0.0651465 0.0952959 0.0798703 0.0952082 0.0952082 0.0920666 0.0920666 
0.0552027 0.0435026 0.0603926 0.059668 0.0679862 0.0805302 0.0945485 0.0538177 0.0619623 
0.082193 0.091695 0.0570027 0.0604864 0.0429714 0.0326843 0.0823783 0.104531 0.106335 
0.0983994 0.0438196 0.0839804 0.0557612 0.105726 0.0444161 0.0845456 0.0955643 0.14552 
0.119966 0.138476 0.120182 0.146741 0.146751 0.180029 0.0507907 0.0502743 0.0529536 
0.0950285 0.109349 0.108469 0.10847 0.105609 0.0367211 0.0174059 0.0411442 0.00653791 
0.130611 0.132533 0.119801 0.118459 0.140299 0.140431 0.133761 0.140845 0.17116 
0.158143 0.142119 0.158901 0.261628 0.409049 0.120478 0.13677 0.153799 0.0859321 
0.0834652 0.0731108 0.0690305 0.0758187 0.0769255 0.0766367 0.0783326 0.0787539 0.0808647 
0.0728236 0.0689191 0.0790218 0.0686551 0.0696156 0.0577912 0.0621089 0.128835 0.154061 
0.156173 0.148197 0.188931 0.11266 0.108059 0.123519 0.0630981 0.101597 0.101604 
0.121311 0.111339 0.120267 0.120267 0.127349 0.13089 0.15617 0.154901 0.140613 
0.122039 0.0754174 0.0856895 0.0543394 0.0523091 0.0711105 0.094306 0.0613755 0.109203 
0.0751441 0.100143 0.107047 0.113838 0.11839 0.137805 0.0942054 0.0798215 0.106752 
0.144806 0.144806 0.145329 0.145329 0.142784 0.124477 0.164407 0.172049 0.184911 
0.155934 0.136457 0.156953 0.181947 0.181947 0.185175 0.153823 0.153823 0.158543 
0.182386 0.163713 0.149018 0.162483 0.187182 0.167352 0.186642 0.180253 0.180253 
0.181228 0.160571 0.160571 0.0667618 0.0690029 0.0776179 0.089749 0.0965348 0.0935843 
0.0733216 0.0934944 0.0712799 0.0821312 0.110728 0.106602 0.053371 0.0777113 0.0871765 
0.034817 0.0183135 0.0229883 0.100043 0.0794434 0.0732877 0.0952648 0.138839 0.0933747 
0.0807609 0.133123 0.134271 0.121613 0.109947 0.0981909 0.161629 0.140485 0.145836 
0.19353 0.161247 0.142015 0.129069 0.116545 0.119538 0.0945217 0.103046 0.0916594 
0.119223 0.123433 0.0940779 0.0846911 0.080983 0.0884693 0.0767294 0.0903387 0.0855462 
0.0917664 0.106569 0.0970863 0.0970863 0.09488 0.0767421 0.0965002 0.0666973 0.0554522 
0.0554522 0.0538672 0.0746073 0.139208 0.152277 0.112212 0.12368 0.145314 0.124991 
0.117055 0.114279 0.120003 0.139476 0.152158 0.0802605 0.113547 0.0670017 0.0598557 
0.0744704 0.109664 0.113253 0.11506 0.0933703 0.0805557 0.0836877 0.080385 0.0800275 
0.0838996 0.0900317 0.143548 0.159983 0.102863 0.088597 0.0941136 0.11077 0.10599 
0.117932 0.0869253 0.0810186 0.0732888 0.0541152 0.0581407 0.0533976 0.118065 0.130148 
0.130217 0.121517 0.152328 0.175042 0.183665 0.141875 0.172383 0.207322 0.192228 
0.237405 0.203429 0.204786 0.168707 0.175398 0.131561 0.0957222 0.0798373 0.063432 
0.0803653 0.114204 0.153719 0.14335 0.134602 0.100206 0.100091 0.0918312 0.110454 
0.0909807 0.0686656 0.0921313 0.0929516 0.2594 0.186658 0.193089 0.230998 0.185091 
0.130621 0.0922985 0.225711 0.18664 0.159694 0.18883 0.147648 0.153985 0.153985 
0.174753 0.172589 0.172589 0.199525 0.199525 0.191607 0.161729 0.155466 0.14128 
0.110574 0.115439 0.141487 0.162928 0.172488 0.172488 0.214865 0.165504 0.14793 
0.114974 0.118884 0.129031 0.117016 0.134894 0.148675 0.093392 0.108502 0.105031 
0.115813 0.132406 0.124357 0.124357 0.124119 0.139432 0.165562 0.144484 0.145469 
0.145469 0.162739 0.151011 0.151011 0.123072 0.123072 0.0981048 0.0964442 0.0964442 
0.0837097 0.0672672 0.0672672 0.0758156 0.0706241 0.0706241 0.0980179 0.105149 0.130027 
0.128682 0.115746 0.0923554 0.11978 0.110809 0.123948 0.111345 0.127701 0.0995561 
0.108817 0.0917204 0.103801 0.103801 0.121596 0.167586 0.167586 0.17082 0.240823 
0.19616 0.206335 0.15643 0.149631 0.128926 0.126033 0.126033 0.115009 0.115009 
0.105867 0.116363 0.17828 0.167755 0.203136 0.232858 0.196156 0.179246 0.179246 
0.136552 0.136552 0.175536 0.14826 0.206895 0.178131 0.140038 0.154789 0.110082 
0.138678 0.163375 0.161776 0.165754 0.250878 0.120564 0.109915 0.123284 0.114015 
0.170338 0.156886 0.142486 0.186855 0.11512 0.131371 0.131371 0.142705 0.146042 
0.148598 0.152746 0.193779 0.387727 0.0408064 0.0582639 0.0869292 0.0718621 0.248375 

WidthEq 1 531 double
1.3198 8.54212 7.50208 10.9042 1.00373 4.88865 4.82892 1 4.99642 
9.62223 11.0271 14.2349 3.9835 9.54907 6.56432 6.08499 8.02695 8.06005 
13.4163 13.656 13.1383 1.84368 8.10983 11.8964 5.65668 11.0567 9.04883 
16.0992 10.9156 10.4102 12.8603 16.7428 12.7969 12.5709 13.0194 6.83111 
18.793 10.5229 14.8015 12.7508 4.88915 11.1563 1.8845 7.93288 1.17496 
11.1329 13.7369 13.6953 13.7137 3.5191 13.3138 9.52293 11.7043 6.62156 
9.33877 11.663 12.0102 11.4525 12.0338 10.8211 11.115 11.272 10.5042 
9.3211 9.30392 9.64513 10.5426 12.4743 10.992 10.2576 9.21408 8.03143 
6.11909 6.11909 5.82666 6.36273 6.3916 7.64269 7.91197 8.14168 8.82011 
8.93684 10.1949 13.6649 8.67875 9.22155 8.34277 8.513 8.5471 7.75469 
6.69871 7.85573 9.25813 11.7255 10.6832 10.844 11.1033 12.1152 13.1572 
12.7247 13.2361 13.0803 11.9751 12.5224 12.0816 12.0816 11.9923 11.9923 
13.3977 13.4103 11.7777 12.0483 11.0991 10.84 9.77554 12.3999 12.0692 
11.3581 11.6782 15.0141 14.7092 15.6562 16.697 15.1141 13.4215 4.47104 
6.46627 11.7324 10.327 13.1032 15.3924 12.5039 9.13967 8.66108 13.8073 
13.0793 11.5119 11.8623 9.2987 9.2992 8.18922 13.2038 11.0309 10.012 
9.06077 8.94455 9.56499 10.4418 11.2884 4.29011 6.51977 6.30226 10.5595 
13.1811 12.4845 12.875 12.5789 11.4325 11.7523 13.2603 13.432 8.85794 
9.42513 10.5973 10.3788 5.60317 2.85311 15.5275 13.7408 11.6172 16.1266 
16.0992 14.9725 14.7125 14.0788 13.4066 12.7384 12.0582 11.8614 12.6371 
12.2242 13.26 13.2615 15.1525 16.369 18.3515 18.6559 12.2996 10.5948 
10.1309 9.46768 8.27384 10.5383 10.667 10.5182 17.1213 14.5644 13.5577 
12.3317 12.053 10.7255 10.7255 9.56723 8.79747 8.36044 7.70466 7.5307 
8.37861 9.80391 9.26858 11.5704 12.1038 11.3357 10.5373 13.0318 10.6772 
17.4568 15.8067 15.5153 7.56654 10.8748 9.51696 12.7115 13.0194 11.0443 
8.9224 8.9224 8.41146 8.41146 8.62948 9.46967 8.71086 8.89154 8.79224 
10.3664 11.0067 9.41592 8.02745 8.02745 7.15092 7.96946 7.96946 8.18872 
8.29623 9.04783 8.76486 7.65613 6.21664 6.57104 6.00436 6.43217 6.43217 
7.67206 8.61131 8.61131 13.5898 12.3148 11.4333 9.99654 10.3604 11.6404 
13.7217 12.1418 12.3345 13.6468 13.8877 12.0998 15.8876 13.5121 11.5378 
12.6304 13.5291 14.0497 16.0151 17.5053 17.02 14.86 11.6827 15.1017 
14.7495 10.7175 10.62 11.6802 12.8987 13.761 9.33827 9.09885 7.73776 
6.2052 6.87193 7.55882 8.71857 10.231 10.8649 11.9714 12.3554 12.2284 
11.5445 11.4893 13.9502 17.6467 19.1611 18.1621 10.1927 9.0894 8.85297 
8.18449 7.37192 7.1106 7.1106 7.39108 7.85573 7.41174 9.24768 9.81636 
9.81636 10.1596 9.35295 10.9945 11.3606 13.712 11.5931 11.3566 12.6013 
13.8937 12.1354 11.6946 11.0749 10.3552 9.11528 5.51283 7.85747 7.77211 
10.1824 12.3743 12.7757 12.1525 12.445 12.1764 12.2914 11.7658 9.66977 
9.89948 9.06077 6.76243 6.95232 7.38063 7.65389 7.54737 6.74923 6.10067 
4.95386 5.95359 6.20545 6.92519 8.88706 10.0958 11.3539 8.24372 8.15089 
8.08345 8.74993 7.87091 6.65665 6.6126 7.45529 6.78059 6.20619 6.48319 
5.96852 6.68627 7.27013 8.23999 8.31191 10.5421 13.2277 15.0263 11.7942 
10.0214 8.08743 6.53023 6.33934 6.36149 6.95978 6.69374 6.84953 6.36348 
13.4531 16.365 13.6062 13.9332 6.08499 7.39631 7.42966 6.77263 8.37139 
10.9512 13.3516 6.56432 8.02347 9.01672 8.7228 9.16331 8.91319 8.91319 
7.92267 7.7945 7.7945 7.99684 7.99684 8.3597 9.1541 9.54832 9.53986 
11.3527 11.0358 9.71208 8.54884 7.41074 7.41074 5.49541 5.97897 6.03322 
7.35798 8.0832 8.5369 11.653 9.84274 8.62599 9.81511 9.47216 9.07247 
8.71409 8.41072 8.55606 8.55606 8.37563 7.67629 7.11309 7.24026 6.9451 
6.9451 6.51081 6.60339 6.60339 6.95057 6.95057 7.64891 8.00356 8.00356 
8.51226 8.65212 8.65212 9.35046 9.70834 9.70834 9.06351 8.76462 8.30121 
8.52022 8.61554 9.38904 9.3084 9.31985 8.87088 8.9555 9.22354 9.57943 
9.86514 10.0212 9.13967 9.13967 8.403 7.03544 7.03544 6.70718 5.77589 
6.55486 7.90924 10.5515 11.3447 11.1414 10.4925 10.4925 9.75115 9.75115 