# vtk DataFile Version 3.0
vtk output
ASCII
DATASET POLYDATA
POINTS 511 float
0.86484 0.313822 1.55731 2.51154 0.170128 1.38348 1.68948 0.495841 1.47092 
2.62183 0.706968 0.998804 -0.144184 0.478172 0.639848 0.703057 -2.2616 -0.437352 
3.19264 0.338916 0.886098 2.82795 0.789517 0.943831 1.41975 -2.47188 -0.700004 
-0.653656 0.169313 -0.348836 5.58721 -0.317944 -0.592326 3.69928 0.511547 -0.138138 
-0.43907 0.891222 -0.605338 5.53609 -0.40855 -0.925678 4.97431 0.234661 -0.611668 
6.16142 -0.192362 -0.937457 5.23758 -0.544705 -1.14919 4.7879 -0.0899723 -0.98201 
3.65466 -0.929334 -1.41743 4.75481 0.243538 -0.840228 4.52347 0.173312 -0.885479 
6.50315 0.00495814 -1.62514 3.87866 0.482649 -1.01793 6.34654 -0.320716 -1.41731 
5.61824 -0.323671 -1.6111 5.41807 -0.458745 -1.53685 0.799406 -0.990682 -2.50121 
0.510916 1.5823 -1.40953 5.61504 -0.507995 -2.20001 6.59797 0.701202 -1.6147 
0.966509 -0.912386 -2.67484 6.08803 -0.217001 -2.26209 2.72078 -0.17582 -2.62552 
2.80359 0.548516 -2.43489 5.49937 1.33728 -2.06582 1.64412 1.16011 -2.53682 
0.662173 0.683865 -2.6603 1.33922 1.68036 -2.18654 1.41845 0.437659 -2.9359 
1.731 1.16204 -2.5654 1.78941 1.14514 -2.59316 1.84161 1.12346 -2.60992 
1.90978 1.11501 -2.61186 1.98459 1.11198 -2.60834 2.05249 1.10248 -2.60804 
2.10181 1.07565 -2.61644 2.14466 1.04529 -2.63485 2.19478 1.02425 -2.65685 
2.26265 1.0223 -2.67756 2.32965 1.01449 -2.68468 2.37838 0.984584 -2.68635 
2.41807 0.941192 -2.67827 2.45649 0.896625 -2.67078 2.4961 0.853162 -2.66273 
2.54217 0.813219 -2.64466 2.59874 0.783066 -2.62169 2.64418 0.738238 -2.5923 
2.6841 0.684023 -2.55924 2.73242 0.618809 -2.50345 1.62741 1.08655 -2.60467 
1.5976 1.04178 -2.65015 1.56167 1.01038 -2.68489 1.52653 0.983226 -2.72582 
1.49926 0.954574 -2.78035 1.48254 0.913025 -2.83169 1.45455 0.868384 -2.85276 
1.4262 0.810763 -2.84713 1.41557 0.733727 -2.84065 1.41433 0.654833 -2.85053 
1.41536 0.580536 -2.87444 1.41691 0.509097 -2.90517 1.45241 0.363721 -2.86054 
1.48946 0.302752 -2.81173 1.53688 0.264062 -2.79303 1.60308 0.25046 -2.78654 
1.6714 0.244037 -2.79298 1.73016 0.23613 -2.81684 1.79359 0.25339 -2.85378 
1.85347 0.289938 -2.89073 1.92507 0.314825 -2.92385 2.00263 0.32447 -2.93892 
2.0801 0.324209 -2.93402 2.15503 0.316278 -2.90836 2.22181 0.30908 -2.86674 
2.2768 0.315904 -2.82792 2.33675 0.328215 -2.81066 2.39255 0.350945 -2.80532 
2.45243 0.363328 -2.78803 2.50551 0.368554 -2.74193 2.56145 0.364545 -2.68348 
2.60691 0.373363 -2.62824 2.65353 0.391112 -2.59333 2.70903 0.405329 -2.57014 
2.7468 0.437283 -2.54044 2.76842 0.489487 -2.49227 1.33661 0.401363 -2.85178 
1.26468 0.384417 -2.79101 1.21361 0.399533 -2.75546 1.17084 0.429959 -2.73701 
1.12293 0.458112 -2.72795 1.06417 0.473615 -2.71698 1.01546 0.495981 -2.69431 
0.97315 0.521797 -2.66166 0.931713 0.553469 -2.64259 0.884244 0.584553 -2.64033 
0.825906 0.610528 -2.65713 0.770707 0.636912 -2.66547 0.711416 0.656959 -2.66873 
1.37696 1.64019 -2.19336 1.40698 1.58779 -2.18979 1.42565 1.51973 -2.17754 
1.45523 1.46439 -2.16718 1.49341 1.42715 -2.18078 1.53334 1.40163 -2.22154 
1.5668 1.37259 -2.27232 1.58788 1.32855 -2.3196 1.61168 1.28532 -2.36635 
1.62763 1.23021 -2.4376 5.58095 1.36324 -2.12209 5.66201 1.38621 -2.1716 
5.74094 1.40213 -2.20811 5.81156 1.40275 -2.22753 5.86949 1.38648 -2.23889 
5.92922 1.36936 -2.24242 5.97705 1.34113 -2.25151 6.01664 1.30521 -2.26445 
6.04805 1.26166 -2.28122 6.06891 1.20826 -2.30292 6.10025 1.16464 -2.31971 
6.13851 1.12747 -2.33328 6.17802 1.09148 -2.34626 6.2176 1.05556 -2.3592 
6.25719 1.01964 -2.37215 6.29626 0.980713 -2.37834 6.33364 0.937688 -2.37833 
6.36367 0.885281 -2.37476 6.38357 0.825946 -2.38291 6.41314 0.778144 -2.39354 
6.44263 0.730281 -2.40422 6.46069 0.666699 -2.40624 6.4793 0.593551 -2.38003 
6.48343 0.490852 -2.31613 6.47792 0.351073 -2.17938 6.47855 0.181159 -1.94382 
2.89723 0.53239 -2.39269 2.97873 0.514375 -2.34672 3.05403 0.492543 -2.292 
3.12711 0.471922 -2.23691 3.19345 0.461798 -2.1885 3.24888 0.471552 -2.15647 
3.30883 0.483859 -2.1392 3.36367 0.500804 -2.12026 3.42136 0.508514 -2.08896 
3.46682 0.517337 -2.03373 3.51184 0.523225 -1.9717 3.56777 0.519216 -1.91325 
3.62042 0.521514 -1.86037 3.67723 0.513386 -1.79555 3.72805 0.504026 -1.71548 
3.77987 0.483779 -1.61581 3.81203 0.479019 -1.50467 3.82593 0.483994 -1.36826 
3.85241 0.481125 -1.21222 2.78335 -0.132041 -2.55612 2.82984 -0.105684 -2.49526 
2.87576 -0.091352 -2.44571 2.93363 -0.0828325 -2.41607 2.98928 -0.0702218 -2.39086 
3.05411 -0.0741983 -2.36415 3.10832 -0.108883 -2.32713 3.12457 -0.181392 -2.30079 
3.11626 -0.258649 -2.28617 3.08709 -0.311936 -2.28681 3.05001 -0.351651 -2.29826 
3.01057 -0.385901 -2.31559 2.96292 -0.40937 -2.33688 2.89705 -0.406882 -2.37037 
2.82619 -0.377478 -2.43499 2.7643 -0.306985 -2.52778 6.40459 0.0552117 -1.99486 
6.33619 0.122374 -2.26298 6.28716 0.1548 -2.40917 6.23942 0.148882 -2.46619 
6.21089 0.0947538 -2.46714 6.17704 0.0321392 -2.43978 6.1374 -0.0352054 -2.39058 
6.10414 -0.115004 -2.33018 6.12844 -0.309824 -2.11365 6.18441 -0.378112 -1.96978 
6.23366 -0.418589 -1.83051 6.25475 -0.424391 -1.69427 6.27946 -0.423368 -1.57908 
6.31077 -0.411689 -1.49929 6.337 -0.378767 -1.45106 6.0061 -0.253368 -2.17801 
5.93022 -0.289141 -2.07712 5.8657 -0.316816 -1.96392 5.79918 -0.34459 -1.85628 
5.74441 -0.352125 -1.76341 5.68926 -0.343699 -1.68251 0.992561 -0.983627 -2.63116 
1.00984 -1.06054 -2.59858 1.03855 -1.12173 -2.57464 1.07505 -1.17062 -2.56105 
1.1128 -1.21833 -2.54687 1.14976 -1.27183 -2.51909 1.18635 -1.32819 -2.48446 
1.22464 -1.38044 -2.45605 1.2708 -1.42031 -2.43795 1.32876 -1.44916 -2.41432 
1.38355 -1.48601 -2.3782 1.44846 -1.51594 -2.33034 1.51387 -1.54287 -2.28925 
1.57095 -1.57254 -2.26603 1.63857 -1.59236 -2.23789 1.71216 -1.61166 -2.19298 
1.78531 -1.63389 -2.14127 1.85206 -1.65957 -2.09955 1.90957 -1.68618 -2.08307 
1.97712 -1.69595 -2.07484 2.04476 -1.68975 -2.06779 2.10143 -1.67127 -2.05616 
2.16226 -1.6531 -2.05247 2.21886 -1.62444 -2.06069 2.28049 -1.59037 -2.09049 
2.33165 -1.54345 -2.12352 2.3823 -1.49941 -2.14973 2.44123 -1.47286 -2.15871 
2.48837 -1.44227 -2.15055 2.52919 -1.40927 -2.13367 2.57589 -1.38161 -2.11872 
2.63393 -1.36092 -2.11412 2.68327 -1.32566 -2.11997 2.7334 -1.28448 -2.13937 
2.79188 -1.25087 -2.16149 2.83219 -1.21075 -2.15774 2.86065 -1.16654 -2.13682 
2.90784 -1.14265 -2.11538 2.94537 -1.10001 -2.11072 2.96656 -1.03922 -2.10737 
2.99785 -0.984262 -2.11396 3.03538 -0.941626 -2.10929 3.07378 -0.903107 -2.09827 
3.11147 -0.870592 -2.07372 3.14958 -0.845124 -2.03603 3.19365 -0.835041 -1.98034 
3.24914 -0.841974 -1.91509 3.30179 -0.849663 -1.84227 3.36491 -0.870174 -1.76623 
3.42635 -0.892496 -1.68298 3.47057 -0.902516 -1.58748 3.51575 -0.906756 -1.50556 
3.58033 -0.918615 -1.44994 0.981081 -0.808985 -2.74242 1.00385 -0.723139 -2.79281 
1.01298 -0.637368 -2.81986 1.00536 -0.561556 -2.82805 0.97719 -0.505044 -2.83781 
0.937682 -0.469194 -2.82489 0.887711 -0.458127 -2.78293 0.823492 -0.48872 -2.71138 
0.761569 -0.539765 -2.64043 0.68999 -0.572201 -2.58632 0.619801 -0.580009 -2.55381 
0.559227 -0.573909 -2.52276 0.487286 -0.583314 -2.48298 0.408817 -0.603855 -2.43226 
0.335561 -0.622052 -2.37211 0.272782 -0.630465 -2.30705 0.201306 -0.644478 -2.25306 
0.131528 -0.654385 -2.20527 0.0783879 -0.646237 -2.1567 0.0260675 -0.639845 -2.10075 
-0.0353904 -0.641988 -2.04907 -0.085854 -0.631341 -1.99925 -0.128092 -0.605455 -1.96656 
-0.168709 -0.575537 -1.94011 -0.210947 -0.549651 -1.90742 -0.26178 -0.541871 -1.85078 
-0.323136 -0.551477 -1.77806 -0.367986 -0.550709 -1.68366 -0.394578 -0.527861 -1.59469 
-0.429498 -0.507744 -1.52361 -0.470305 -0.488083 -1.46927 -0.511552 -0.471352 -1.40815 
-0.546328 -0.451101 -1.337 -0.569727 -0.422751 -1.25354 -0.595424 -0.396544 -1.17115 
-0.61014 -0.357566 -1.09062 -0.623903 -0.312655 -1.02365 -0.646002 -0.270488 -0.974549 
-0.657546 -0.218467 -0.920518 -0.663057 -0.165851 -0.849683 -0.667748 -0.114995 -0.771459 
-0.672284 -0.0641368 -0.693233 -0.67507 -0.011536 -0.622229 -0.671105 0.0316098 -0.546783 
-0.656229 0.06485 -0.474896 -0.651826 0.110926 -0.406242 0.883176 -0.95007 -2.59142 
6.63431 0.652173 -1.60119 6.6611 0.586802 -1.57109 6.66652 0.496339 -1.52896 
6.65512 0.395991 -1.46794 6.6307 0.309978 -1.41484 6.609 0.229332 -1.39909 
6.56907 0.147623 -1.46752 5.53687 -0.528252 -2.14915 5.47505 -0.533251 -2.09064 
5.45024 -0.506218 -2.00784 5.43973 -0.478436 -1.88339 5.4297 -0.462799 -1.72373 
0.461069 1.55417 -1.41681 0.394878 1.53421 -1.40545 0.333331 1.50006 -1.37568 
0.293146 1.44319 -1.34624 0.24002 1.40139 -1.31922 0.191643 1.36194 -1.30704 
0.143266 1.32249 -1.29486 0.0901396 1.28069 -1.26785 0.0495162 1.2209 -1.23162 
-0.0134266 1.17802 -1.18145 -0.0840773 1.13882 -1.12212 -0.14756 1.08529 -1.04964 
-0.225655 1.02757 -0.939501 -0.321831 0.962378 -0.787963 6.42874 -0.198811 -1.54008 
5.61189 -0.321492 -1.40045 5.59726 -0.355667 -1.17369 5.46062 -0.414407 -1.54191 
5.52099 -0.367412 -1.56623 5.34537 -0.489017 -1.44147 5.2883 -0.514785 -1.3108 
6.29828 -0.350862 -1.24755 6.2586 -0.362908 -1.10176 6.23211 -0.347523 -0.991762 
6.19999 -0.317227 -0.940361 6.17177 -0.268182 -0.929094 3.86337 0.495117 -0.809463 
3.8356 0.492807 -0.612231 3.79678 0.480185 -0.454499 3.75965 0.477591 -0.326688 
3.73367 0.495971 -0.223451 6.41753 0.00555717 -1.32041 6.3381 -0.0486779 -1.10823 
6.27411 -0.112807 -0.998023 6.21127 -0.15425 -0.950117 4.53601 0.112141 -0.911066 
4.56467 0.0660239 -0.929115 4.5948 0.0211258 -0.946543 4.61942 -0.0314775 -0.967653 
4.67671 -0.0692376 -0.980246 4.80115 0.258219 -0.798571 4.85759 0.257075 -0.746932 
4.91068 0.252317 -0.6809 4.87605 -0.0636705 -0.892224 4.9137 -0.0308865 -0.810989 
4.94241 -0.00340455 -0.748789 4.96786 0.0337338 -0.706875 4.97586 0.093189 -0.672617 
4.97578 0.163295 -0.64237 4.80919 -0.194644 -1.0258 4.83453 -0.262232 -1.05333 
4.8545 -0.319168 -1.07661 4.8858 -0.362975 -1.09349 4.92412 -0.400078 -1.10703 
4.96533 -0.431957 -1.12621 5.01322 -0.452567 -1.15625 5.06689 -0.462738 -1.19758 
5.10698 -0.490633 -1.23128 5.16672 -0.515297 -1.21382 5.26992 -0.547277 -1.04314 
5.30402 -0.538125 -0.964259 5.3406 -0.513396 -0.921591 5.38169 -0.4778 -0.906271 
5.44074 -0.439597 -0.910214 6.08203 -0.203677 -0.915141 6.00177 -0.22085 -0.87925 
5.92047 -0.243825 -0.829762 5.83531 -0.271601 -0.766424 5.73106 -0.298743 -0.687889 
-0.437857 0.901271 -0.417736 -0.410969 0.867155 -0.222461 -0.355449 0.780917 0.00854594 
-0.272286 0.64874 0.301085 5.01382 0.268846 -0.594363 5.06053 0.296506 -0.57941 
5.11945 0.31294 -0.568512 5.17479 0.330302 -0.557444 5.23551 0.330057 -0.553626 
5.29259 0.310496 -0.550296 5.3605 0.293607 -0.528953 5.43275 0.273062 -0.484665 
5.4975 0.24299 -0.436876 5.5427 0.197189 -0.405234 5.57265 0.144854 -0.40164 
5.5821 0.0808318 -0.420573 5.57647 0.0185025 -0.447833 5.55868 -0.0353412 -0.472218 
5.5529 -0.101864 -0.501298 5.56163 -0.191587 -0.539452 5.54681 -0.36345 -0.762738 
-0.502799 0.770756 -0.478253 -0.530041 0.639 -0.342902 -0.531993 0.519158 -0.187313 
-0.506041 0.44458 -0.0103885 -0.459963 0.39106 0.155375 -0.421303 0.365846 0.292473 
-0.387192 0.362836 0.396569 -0.347917 0.374414 0.477465 -0.277951 0.408162 0.552498 
2.5733 0.805124 1.09575 2.52732 0.849637 1.16626 2.47503 0.86199 1.22017 
2.40587 0.853218 1.25925 2.33524 0.826575 1.29976 2.27505 0.784665 1.34244 
2.21064 0.743129 1.39309 2.14994 0.698217 1.44253 2.07754 0.667254 1.48915 
1.99962 0.64463 1.53092 1.92801 0.6196 1.56398 1.86688 0.581745 1.60027 
1.79674 0.555379 1.63285 1.73115 0.538208 1.63737 1.69574 0.520268 1.57885 
2.76566 0.8211 0.994231 2.69432 0.797333 1.01401 1.37875 -2.43728 -0.687721 
1.33084 -2.40912 -0.678667 1.27075 -2.39487 -0.668313 1.21328 -2.3832 -0.642748 
1.14966 -2.38484 -0.599077 1.09044 -2.38489 -0.546346 1.02808 -2.38535 -0.502087 
0.977517 -2.36724 -0.473292 0.927835 -2.34326 -0.458071 0.868106 -2.32615 -0.454544 
0.812029 -2.30562 -0.449309 0.7523 -2.2885 -0.445782 -0.0484739 0.591613 0.638403 
-0.00533054 0.673555 0.644845 0.028425 0.725474 0.65265 0.0661004 0.767508 0.658919 
0.106776 0.810618 0.655907 0.154275 0.844207 0.657312 0.212248 0.864969 0.661932 
0.25895 0.892629 0.676885 0.299774 0.925482 0.6937 0.346094 0.947562 0.714305 
0.402189 0.93547 0.745039 0.444605 0.882214 0.797527 0.469648 0.79772 0.875836 
0.472439 0.689823 0.958768 0.458767 0.584874 1.03382 0.426023 0.508084 1.08747 
0.386307 0.450792 1.11675 0.345631 0.407682 1.11976 0.298491 0.377091 1.1116 
0.239935 0.363517 1.09388 0.18486 0.35724 1.05342 0.115823 0.380593 0.970755 
0.0150378 0.427493 0.830306 2.58432 0.546322 1.05752 2.55866 0.415403 1.14254 
2.53008 0.299596 1.25582 2.91235 0.767306 0.974723 2.97498 0.739211 0.990888 
3.03507 0.718175 0.996472 3.08333 0.691976 0.982895 3.1255 0.666025 0.950178 
3.16638 0.646428 0.895875 3.19898 0.619002 0.837649 3.21157 0.561251 0.797383 
3.21225 0.464268 0.812146 2.77616 0.717738 0.950305 2.71448 0.685199 0.96692 
3.12066 0.231325 1.01282 3.03299 0.155635 1.15229 2.94744 0.104766 1.26221 
2.86546 0.0758736 1.32526 2.78742 0.0658048 1.3482 2.71767 0.0710466 1.35404 
2.66017 0.0902488 1.35861 2.60045 0.107372 1.36214 2.55254 0.135524 1.37119 
1.69812 0.415912 1.48547 1.7191 0.350011 1.4988 1.74594 0.289592 1.51488 
1.8025 0.259432 1.53784 1.8673 0.236971 1.56467 1.92384 0.21184 1.57363 
1.98447 0.193039 1.57752 2.04062 0.172584 1.57232 2.10079 0.158398 1.562 
2.15142 0.140352 1.53324 2.20464 0.132275 1.48471 2.27576 0.143432 1.43754 
2.35461 0.159288 1.40099 2.43347 0.167601 1.38543 1.60615 0.458157 1.55434 
1.52465 0.432124 1.61057 1.44665 0.419548 1.63244 1.37673 0.406306 1.63837 
1.31734 0.38017 1.6475 1.24706 0.353945 1.68013 1.17684 0.327651 1.71274 
1.11886 0.300248 1.72142 1.0597 0.29387 1.6906 1.00559 0.292908 1.63819 
0.939247 0.303031 1.58979 
LINES 42 600
22 35 39 40 41 42 43 44 45 46 47 48 49 50 51 52 53 54 55 56 57 58 33 
14 35 59 60 61 62 63 64 65 66 67 68 69 70 38 
26 38 71 72 73 74 75 76 77 78 79 80 81 82 83 84 85 86 87 88 89 90 91 92 93 94 33 
15 38 95 96 97 98 99 100 101 102 103 104 105 106 107 36 
12 37 108 109 110 111 112 113 114 115 116 117 35 
28 34 118 119 120 121 122 123 124 125 126 127 128 129 130 131 132 133 134 135 136 137 138 139 140 141 142 143 21 
18 32 163 164 165 166 167 168 169 170 171 172 173 174 175 176 177 178 32 
10 21 179 180 181 182 183 184 185 186 31 
9 31 187 188 189 190 191 192 193 23 
8 31 194 195 196 197 198 199 24 
55 30 200 201 202 203 204 205 206 207 208 209 210 211 212 213 214 215 216 217 218 219 220 221 222 223 224 225 226 227 228 229 230 231 232 233 234 235 236 237 238 239 240 241 242 243 244 245 246 247 248 249 250 251 252 18 
48 30 253 254 255 256 257 258 259 260 261 262 263 264 265 266 267 268 269 270 271 272 273 274 275 276 277 278 279 280 281 282 283 284 285 286 287 288 289 290 291 292 293 294 295 296 297 298 9 
3 30 299 26 
9 29 300 301 302 303 304 305 306 21 
7 28 307 308 309 310 311 25 
16 27 312 313 314 315 316 317 318 319 320 321 322 323 324 325 12 
3 21 326 23 
4 24 327 328 13 
4 25 329 330 24 
4 25 331 332 16 
7 23 333 334 335 336 337 15 
6 21 343 344 345 346 15 
7 20 347 348 349 350 351 17 
5 19 352 353 354 14 
8 17 355 356 357 358 359 360 14 
12 17 361 362 363 364 365 366 367 368 369 370 16 
7 16 371 372 373 374 375 13 
7 15 376 377 378 379 380 10 
6 12 381 382 383 384 4 
18 14 385 386 387 388 389 390 391 392 393 394 395 396 397 398 399 400 10 
3 10 401 13 
11 12 402 403 404 405 406 407 408 409 410 4 
17 3 411 412 413 414 415 416 417 418 419 420 421 422 423 424 425 2 
4 7 426 427 3 
14 8 428 429 430 431 432 433 434 435 436 437 438 439 5 
25 4 440 441 442 443 444 445 446 447 448 449 450 451 452 453 454 455 456 457 458 459 460 461 462 4 
5 3 463 464 465 1 
4 7 475 476 3 
16 2 486 487 488 489 490 491 492 493 494 495 496 497 498 499 1 
13 2 500 501 502 503 504 505 506 507 508 509 510 0 
27 33 144 145 146 147 148 149 150 151 152 153 154 155 156 157 158 159 160 161 162 22 338 339 340 341 342 11 
21 7 466 467 468 469 470 471 472 473 474 6 477 478 479 480 481 482 483 484 485 1 

POINT_DATA 511
SCALARS DY_raw double
LOOKUP_TABLE default
676.968 1016.27 757.266 899.896 968.754 1182.59 786.087 940.981 1526.21 
1069.25 1235.46 1299.5 722.551 1518.38 1008.68 885.696 1442.3 1043.98 
1184.18 1149.06 1389.99 1231.19 953.101 1148.82 961.264 1347.83 1648.28 
539.846 1304.78 823.732 1396.1 1053.44 266.742 1016.97 1103.79 1384.41 
1155.84 990.848 1116.02 1404.83 1400.63 1526.01 1648.3 1763.15 1618.24 
1618.24 1347.02 1374.72 1287.11 1142.65 1097.08 1193.04 1014.85 1129.84 
1123.73 1121.73 1047.72 918.172 976.291 1543.68 1588 1665.78 1840.29 
1663.2 1357.3 1452.12 1423.36 1527.66 1532.08 1346.59 1204.08 1102.4 
1183.2 1224.22 1538.48 1538.48 1641.28 1894.76 1983.4 2011.68 1828.62 
1828.62 1863.22 1812.74 1898.91 1504.23 1313.55 1313.55 1152.92 1188.73 
1174.14 1210.43 1236.71 1197.53 1160 1130.93 1393 1495.18 1584.95 
1488.46 1416.28 1416.28 1307.67 1436.1 1290.3 1144.81 1286.14 1243.92 
990.848 964.226 1059.59 1192.39 1192.39 1300.74 1251.63 1337.63 1380.74 
1478.04 1221.07 1147.37 892.868 906.356 821.474 915.529 1030.53 1030.53 
1080.4 1096.88 1096.88 1140.82 1271.48 1271.48 1231.19 1136.27 1202.7 
1076.54 1076.54 1023.65 1064.09 1064.09 1075.48 1070.52 1204.94 988.083 
998.15 1047.08 1112.74 1098.44 1279.19 1217.98 1217.98 1298.8 1239.14 
1239.14 1071.21 961.131 1072.94 815.894 872.568 931.34 860.836 947.303 
870.9 229.483 238.788 248.211 263.82 243.136 229.924 241.496 211.886 
223.344 219.821 234.807 234.807 284.682 238.308 206.651 214.433 1088.09 
1040.15 831.868 730.061 730.061 730.571 873.235 925.72 1102.71 1097.66 
980.219 1075.52 1083.01 1076.25 1088.04 980.313 992.122 1115.2 953.443 
962.99 1003.67 1361.46 1420.97 1485.05 1436.95 1644.58 1770.81 1723.74 
1849.78 1789.92 1928.9 1633.13 1623.29 1784.6 1831.86 1606.18 1543.22 
1788.76 1806.03 1630.68 1534.85 1498.06 1514.8 1514.8 1592.43 1242.5 
1286.65 1092.68 1080.2 1080.2 1358.19 1377.97 1377.97 1295.2 1401.9 
1401.9 1486.32 1486.32 1561.23 1523.6 1523.6 1413.75 1405.6 1275.82 
1309.76 1378.4 1378.4 1307.97 1622.21 1540.6 1373.66 1444.74 1349.4 
1105.12 1379.13 1256.72 1271.34 1312.66 1242.12 1183.28 1210.22 1219.9 
1312.92 1326.58 1354.97 1446.85 1436.53 1396.91 1561.01 1511.84 1465.57 
1654.61 1285.55 1509.25 1342.68 1314.42 1397.03 1466.39 1268.09 1338.57 
1452.31 1403.94 1438.78 1737.92 1471.91 1513.15 1558.48 1793.13 1779.23 
1746.26 1905.43 1707.83 1403.36 1327.04 1360.19 1357.85 1500.67 1313.72 
1126.41 1119 1469.71 789.861 833.734 914.563 926.868 941.816 956.783 
1075.31 1082.2 1146.57 1188.89 1158.29 1149.29 656.973 656.973 647.859 
726.866 766.127 801.563 742.88 742.88 856.914 828.23 883.306 893.192 
866.81 820.688 1250.95 1105.42 1290.93 1173.15 997.998 1077.98 1255.82 
1178.08 1108.78 1228.46 1348.04 1053.6 1095.17 1116.32 1289.98 1286.11 
1476.95 1048.03 976.23 895.84 905.31 1502.83 1433.31 1330.69 1248.19 
1195.93 982.163 1044.81 973.321 957.24 1002.91 1092.74 1003.82 1074.2 
1043.9 962.923 982.803 919.449 908.754 936.427 1067.54 963.676 1139.85 
1128.35 1106.61 1658.05 1811.56 1715.22 1657.18 1594.51 885.696 776.241 
864.889 980.57 1093.39 735.501 792.585 812.669 847.396 1015.13 1009.9 
1008.86 1081.07 1236.01 1329.59 1180.15 1272.65 1180 1180.27 1180.27 
1111.18 1102.77 1064.69 1070.98 1109.43 1421.34 784.166 978.085 1121.59 
1080.79 1017.79 1054.2 1016.38 973.124 963.978 923.344 884.299 859.63 
884.944 897.207 908.385 985.962 990.725 875.95 913.916 808.893 757.775 
819.804 787.669 787.669 901.45 858.206 1526.21 1144.48 1115.62 1283.34 
1186.31 1369.18 1489.13 1200.53 1409.68 1310.16 1316.65 1316.65 809.428 
766.714 733.585 743.048 752.253 752.253 740.336 693.396 701.584 680.831 
650.989 691.193 763.454 887.45 951.305 1009.15 1046.68 1128.25 1128.25 
1165.05 1165.86 1017.95 995.798 953.573 987.322 992.465 954.927 994.915 
1016.57 973.628 973.628 786.389 681.563 645.536 671.93 1007.52 1003.18 
874.376 936.697 1002.6 1150.83 1168 1091.09 1213.56 1106.99 1016.27 
856.887 921.465 1199.64 1284.16 1284.16 1189.53 1331.77 1168.99 1246.84 
1144.91 1108.61 1111.71 1009.81 1046.19 838.153 897.157 955.577 958.724 
889.831 780.493 836.837 725.372 840.217 662.639 682.552 
FIELD FieldData 7
DY_minmax 1 511 double
0.260559 0.448535 0.305045 0.384063 0.422211 0.540677 0.321012 0.406824 0.731047 
0.477885 0.569971 0.605449 0.285812 0.726709 0.444331 0.376196 0.684562 0.463886 
0.541556 0.5221 0.655582 0.5676 0.413539 0.521966 0.418062 0.63222 0.798675 
0.184593 0.60837 0.341868 0.658963 0.469129 0.0332907 0.448923 0.497021 0.652486 
0.525861 0.434451 0.503796 0.663801 0.661475 0.730938 0.798686 0.862313 0.782031 
0.782031 0.631776 0.647118 0.598584 0.518549 0.493305 0.546465 0.447747 0.511453 
0.508067 0.50696 0.46596 0.394188 0.426386 0.740724 0.765276 0.808371 0.905047 
0.806939 0.637471 0.69 0.674066 0.731852 0.734301 0.631535 0.552582 0.496252 
0.541014 0.563744 0.737843 0.737843 0.794796 0.935227 0.984333 1 0.898584 
0.898584 0.917753 0.889783 0.937527 0.718868 0.613228 0.613228 0.524241 0.544077 
0.535998 0.556101 0.570659 0.548952 0.52816 0.512059 0.657248 0.713853 0.763588 
0.71013 0.670142 0.670142 0.609975 0.681124 0.600348 0.51975 0.598043 0.574654 
0.434451 0.419702 0.472535 0.546108 0.546108 0.606132 0.578928 0.62657 0.650455 
0.704357 0.561997 0.521164 0.38017 0.387642 0.340617 0.392724 0.456438 0.456438 
0.484065 0.493195 0.493195 0.51754 0.589924 0.589924 0.567603 0.515017 0.551819 
0.481923 0.481923 0.452623 0.47503 0.47503 0.481338 0.478589 0.553061 0.432919 
0.438496 0.465604 0.501979 0.494061 0.594196 0.560286 0.560286 0.605057 0.572006 
0.572006 0.478971 0.417988 0.479931 0.337525 0.368923 0.401484 0.362424 0.410327 
0.367999 0.012649 0.0178042 0.0230243 0.0316722 0.0202128 0.0128934 0.0193041 0.00290023 
0.00924786 0.00729639 0.0155986 0.0155986 0.0432296 0.0175384 0 0.0043112 0.488322 
0.461767 0.346375 0.289973 0.289973 0.290256 0.369293 0.39837 0.496423 0.493627 
0.428563 0.481358 0.48551 0.481767 0.488297 0.428615 0.435157 0.503342 0.413728 
0.419018 0.441555 0.639774 0.672741 0.708245 0.681595 0.796622 0.866557 0.84048 
0.910306 0.877143 0.954137 0.79028 0.784831 0.874195 0.90038 0.775349 0.740471 
0.876502 0.886066 0.788924 0.735834 0.715453 0.724726 0.724726 0.767731 0.573866 
0.598328 0.490867 0.483955 0.483955 0.637962 0.648922 0.648922 0.603063 0.662178 
0.662178 0.708949 0.708949 0.750446 0.729599 0.729599 0.66874 0.664226 0.592328 
0.611132 0.649158 0.649158 0.610139 0.784228 0.739017 0.646532 0.685911 0.633092 
0.497756 0.649565 0.581748 0.589843 0.612739 0.573656 0.54106 0.555987 0.561349 
0.612883 0.620448 0.636179 0.687082 0.681363 0.659414 0.750325 0.723086 0.697454 
0.802181 0.597718 0.72165 0.629371 0.613711 0.659479 0.697904 0.588043 0.627091 
0.690107 0.663309 0.68261 0.848337 0.700963 0.723811 0.748923 0.878921 0.871222 
0.852958 0.941138 0.831663 0.662985 0.620703 0.639068 0.637776 0.716898 0.613323 
0.509556 0.505451 0.699743 0.323103 0.347409 0.392189 0.399006 0.407287 0.415579 
0.481241 0.485061 0.520721 0.544171 0.527214 0.52223 0.249482 0.249482 0.244433 
0.288203 0.309954 0.329586 0.297075 0.297075 0.360251 0.34436 0.374872 0.380349 
0.365733 0.340181 0.578551 0.497923 0.600696 0.535449 0.438412 0.482725 0.58125 
0.538182 0.499784 0.56609 0.632339 0.469215 0.492248 0.503965 0.600171 0.598031 
0.703755 0.46613 0.426353 0.381816 0.387062 0.718094 0.679579 0.622728 0.57702 
0.548069 0.42964 0.464348 0.424741 0.415832 0.441133 0.490899 0.44164 0.480631 
0.463845 0.41898 0.429994 0.394896 0.38897 0.404302 0.47694 0.419398 0.516997 
0.510631 0.498587 0.804086 0.889131 0.83576 0.803603 0.768883 0.376196 0.315557 
0.364669 0.428757 0.491258 0.292987 0.324612 0.335739 0.354978 0.447902 0.445004 
0.444428 0.484433 0.570276 0.622119 0.539326 0.590572 0.539241 0.539393 0.539393 
0.501115 0.496458 0.475359 0.478846 0.500147 0.672949 0.319948 0.427381 0.506884 
0.484282 0.449375 0.469546 0.448597 0.424632 0.419565 0.397054 0.375422 0.361755 
0.37578 0.382573 0.388766 0.431744 0.434383 0.370797 0.391831 0.333647 0.305327 
0.339691 0.321888 0.321888 0.384924 0.360966 0.731047 0.519562 0.503575 0.596494 
0.542737 0.644052 0.710505 0.550618 0.66649 0.611354 0.614948 0.614948 0.333943 
0.310279 0.291926 0.297168 0.302268 0.302268 0.295666 0.269661 0.274197 0.262699 
0.246167 0.26844 0.308473 0.377168 0.412544 0.44459 0.465382 0.510573 0.510573 
0.53096 0.531411 0.449468 0.437194 0.413801 0.432498 0.435347 0.414551 0.436704 
0.448703 0.424911 0.424911 0.32118 0.263105 0.243146 0.257768 0.443685 0.441284 
0.369925 0.404451 0.440963 0.523085 0.532596 0.489986 0.557835 0.498796 0.448535 
0.360236 0.396013 0.550125 0.596948 0.596948 0.544522 0.623323 0.533141 0.576272 
0.519802 0.499694 0.501412 0.444958 0.46511 0.349857 0.382546 0.414911 0.416654 
0.378487 0.317913 0.349128 0.287376 0.351001 0.252621 0.263653 
WidthEq 1 511 double
1.35961 2.08259 1.86822 1.93943 2.74571 1.55655 2.65874 2.1861 2.01041 
1.27327 2.63342 2.01108 4.06718 2.8097 1.29539 2.41359 2.68499 1.54474 
2.17921 1.04075 1.0359 2.7277 2.04909 2.68625 3.27647 2.76623 1.70711 
2.53245 1.91909 1.55263 2.58188 3.39398 2.05008 2.524 1.26473 1.57375 
1.5137 1.98014 2.02389 1.58354 1.48782 1.27267 1.07222 1.01909 1.07906 
1.07906 1.29841 1.34629 1.38113 1.61051 1.70831 1.65963 1.86714 1.80254 
1.84024 1.94957 2.09779 2.29397 2.43238 1.43882 1.35123 1.2893 1.27313 
1.3881 1.64496 1.67586 1.79817 1.79366 1.74865 1.93513 2.00288 2.08602 
2.00046 1.98277 1.69247 1.69247 1.52689 1.28761 1.15866 1.03007 1.13222 
1.13222 1.26997 1.38672 1.32757 1.79255 2.09369 2.09369 2.46839 2.38352 
2.3471 2.35067 2.3263 2.36345 2.4199 2.01867 1.69726 1.65282 1.44588 
1.61424 1.78589 1.78589 2.12635 1.93855 2.18887 2.28967 2.02532 1.95947 
1.98014 2.22954 2.37711 2.22911 2.22911 1.95658 1.94592 1.83441 1.78995 
1.65914 1.44773 1.63471 1.89962 1.9758 2.08629 2.0404 1.93495 1.93495 
1.86076 1.72321 1.72321 1.6738 1.48638 1.48638 1.68002 1.88796 1.86709 
2.23348 2.23348 2.38463 2.42187 2.42187 2.37689 2.43655 2.38959 3.00117 
2.54906 2.40078 2.23659 1.9507 1.81717 1.63561 1.63561 1.40665 1.2541 
1.2541 1.22107 1.31604 1.26101 1.64292 1.74829 1.72435 1.85289 1.8694 
2.05581 2.2349 2.28257 2.26228 2.28342 2.38213 2.33069 2.22605 2.2229 
2.09498 2.04171 2.00646 2.00646 1.80037 1.90724 1.96579 1.93642 3.02109 
3.01209 3.35552 3.57011 3.57011 3.59075 3.55784 3.50861 3.4049 3.07231 
2.93618 2.84015 2.79469 2.83894 2.79457 3.64544 3.43999 3.06816 3.16845 
3.21023 3.17872 2.66724 2.62975 2.53273 2.34729 2.12807 1.82321 1.83401 
1.75471 1.67092 1.60833 1.77832 1.75568 1.68022 1.63944 1.74845 1.76572 
1.73489 1.76644 1.84555 1.84406 1.78297 1.66059 1.66059 1.51788 1.78519 
1.7554 1.95273 2.0707 2.0707 2.01785 2.00066 2.00066 2.03582 2.00524 
2.00524 1.87609 1.87609 1.81482 1.79952 1.79952 1.82944 1.881 1.84438 
2.09548 2.18153 2.18153 2.51777 2.28214 2.44579 2.61716 2.50037 2.43816 
2.22933 2.54754 2.5671 2.64909 2.70994 2.73103 2.79494 2.72748 2.52024 
2.31783 2.18594 2.08933 2.01621 1.99864 1.99156 1.9413 1.88034 1.8379 
1.67538 1.96035 1.7455 2.00965 2.03629 1.95756 1.80435 1.80135 1.78814 
1.65844 1.57544 1.50588 1.3737 1.51278 1.40095 1.35362 1.28208 1.23127 
1.19004 1.13199 1.13262 1.15033 1.16129 1.10561 1.07197 1.08942 1.20748 
1.35554 1.31734 2.14531 2.53759 2.49455 2.65011 2.73897 2.67909 2.64848 
2.34021 2.56457 2.26791 2.45342 2.51217 2.86258 2.82211 2.82211 2.7995 
2.6226 2.54072 2.49032 2.58099 2.58099 2.46733 2.61457 2.62962 2.77174 
2.92133 3.21037 2.69617 3.13431 3.02213 3.02738 3.21906 3.30651 3.03817 
2.48796 2.43474 2.17385 2.03582 2.32576 1.98435 2.05183 2.05974 2.34313 
2.21049 2.47843 2.5712 2.54982 2.56833 1 1.09197 1.15376 1.2668 
1.35364 1.16159 1.16607 1.33061 1.56842 1.47837 1.36179 1.35407 1.33238 
1.34822 1.73724 1.74629 1.8919 2.02479 2.11081 2.27807 2.37133 2.51947 
2.70076 2.90862 2.4311 2.188 2.46682 2.57097 2.70778 2.41359 2.29035 
2.42394 2.59721 2.7035 4.14765 3.68006 3.34132 3.26188 1.32913 1.27022 
1.2184 1.16307 1.06734 1.06661 1.21381 1.18315 1.36311 1.64087 1.64087 
1.75161 1.77536 1.89479 2.08837 2.34823 2.78023 4.00693 3.35446 2.71426 
2.90166 2.95692 2.7908 2.90605 2.88268 2.91059 2.20184 2.30613 2.3549 
2.18801 1.9496 1.67325 1.61541 1.47473 1.48212 1.51458 1.59665 1.58831 
1.63876 1.88672 1.88672 2.29528 2.27448 2.01041 2.80633 2.85897 2.65149 
2.7095 2.42793 2.25011 2.56696 2.36372 2.4676 2.09659 2.09659 2.9421 
2.95594 2.83242 2.39998 2.21226 2.21226 2.04559 2.11728 2.16274 2.30457 
2.43304 2.31147 2.28123 2.0084 1.84377 1.75962 1.70495 1.62804 1.62804 
1.56731 1.59181 1.89443 2.20786 1.6296 1.57224 1.85624 2.12661 2.02692 
2.06112 2.25062 2.25062 2.72448 2.91992 3.07472 2.99526 2.05658 1.89811 
2.58174 2.32687 2.16389 1.93864 1.82237 1.8805 1.7078 1.87739 2.08259 
1.83655 1.68929 1.44994 1.51342 1.51342 1.65946 1.51963 1.72877 1.65462 
1.79332 1.79326 1.77666 1.93561 1.93844 1.98933 1.96967 1.80916 1.85311 
1.84233 1.92826 1.85374 1.96898 1.78894 2.03076 1.72699 
rRFP 1 511 double
3931.01 4832.28 4565.05 4653.81 5658.93 4176.52 5550.51 4961.32 4742.3 
3823.38 5518.95 4743.14 7306.27 5738.69 3850.95 5244.91 5583.23 4161.79 
4952.73 3533.52 3527.47 5636.48 4790.52 5584.8 6320.57 5684.51 4364.2 
5393.07 4628.46 4171.63 5454.69 6467.06 4791.75 5382.54 3812.73 4197.96 
4123.1 4704.57 4759.1 4210.16 4090.84 3822.63 3572.75 3506.52 3581.28 
3581.28 3854.72 3914.41 3957.84 4243.78 4365.7 4305.01 4563.7 4483.17 
4530.17 4666.46 4851.23 5095.79 5268.33 4029.75 3920.56 3843.36 3823.21 
3966.53 4286.73 4325.25 4477.72 4472.1 4415.99 4648.46 4732.91 4836.56 
4729.9 4707.84 4345.95 4345.95 4139.54 3841.26 3680.51 3520.2 3647.54 
3647.54 3819.27 3964.81 3891.07 4470.72 4846.12 4846.12 5313.22 5207.42 
5162.02 5166.47 5136.09 5182.4 5252.77 4752.59 4351.93 4296.53 4038.56 
4248.43 4462.41 4462.41 4886.83 4652.72 4964.77 5090.42 4760.88 4678.8 
4704.57 5015.47 5199.43 5014.93 5014.93 4675.2 4661.9 4522.9 4467.47 
4304.4 4040.86 4273.95 4604.19 4699.16 4836.89 4779.68 4648.23 4648.23 
4555.75 4384.28 4384.28 4322.68 4089.04 4089.04 4330.43 4589.65 4563.64 
5020.38 5020.38 5208.8 5255.22 5255.22 5199.15 5273.53 5214.99 5977.38 