# vtk DataFile Version 3.0
vtk output
ASCII
DATASET POLYDATA
POINTS 604 float
0.672581 0.0681036 0.872198 2.15123 -0.129079 0.756904 2.16658 -0.59577 0.59402 
2.33307 -0.392155 0.535396 2.52863 -0.265946 0.518721 -0.375023 0.0635459 -0.200955 
6.19336 0.0316511 0.578914 0.0311592 -0.986258 0.0637268 1.35712 -1.28707 0.275847 
-0.678002 -0.308696 -0.403634 0.317129 -1.08992 -0.0882644 6.98911 0.32464 0.155794 
2.42265 1.44867 -0.808127 2.52967 1.42876 -0.792238 2.73201 1.33693 -0.746956 
7.08891 0.368952 -0.333904 7.22834 0.125007 -0.182354 -0.524336 0.215827 -1.16226 
1.44967 1.53613 -1.76089 4.74554 0.326987 -1.10389 7.31831 -0.258686 -0.761302 
4.37475 -0.467431 -1.12484 4.62192 0.136923 -1.27099 5.16678 0.577525 -1.34246 
-0.302117 -0.837824 -1.77001 4.90486 -0.61278 -1.45027 0.0850264 -1.17286 -2.13198 
3.28283 0.0912949 -2.08245 6.39244 0.414917 -1.80477 6.78054 -0.0908202 -1.62525 
3.44358 -0.441938 -2.05615 3.14073 0.179361 -2.53816 0.411059 -1.06273 -2.5906 
1.54284 -1.71569 -2.55895 2.33232 -1.46683 -2.70946 1.91216 -0.246883 -3.30152 
2.19815 -0.462657 -3.21334 2.14852 -0.460655 -3.25732 2.09932 -0.441585 -3.28287 
2.05344 -0.392654 -3.29331 2.00659 -0.337906 -3.29003 1.95761 -0.297744 -3.29058 
1.85525 -0.252074 -3.30553 1.79301 -0.281034 -3.30338 1.72828 -0.321071 -3.29835 
1.66355 -0.361107 -3.29332 1.60135 -0.389868 -3.29122 1.54529 -0.391295 -3.29621 
1.49386 -0.372103 -3.30655 1.44497 -0.336574 -3.31351 1.389 -0.322469 -3.29968 
1.32421 -0.337587 -3.26302 1.25969 -0.356528 -3.23299 1.20217 -0.359423 -3.22999 
1.14679 -0.362844 -3.24208 1.08937 -0.365322 -3.23918 1.03635 -0.333055 -3.22244 
0.981548 -0.303671 -3.19734 0.926381 -0.28601 -3.18443 0.872215 -0.273957 -3.1853 
0.818026 -0.262008 -3.18614 0.762472 -0.246068 -3.17278 0.704185 -0.222142 -3.13103 
0.644532 -0.194222 -3.07506 0.584198 -0.164308 -3.01201 0.525911 -0.140382 -2.97025 
0.467647 -0.116349 -2.92851 0.409748 -0.0907014 -2.8872 0.351534 -0.0513381 -2.82659 
0.294415 -0.00709118 -2.76725 0.230842 0.0083993 -2.70045 0.168655 0.0250355 -2.64155 
0.106082 0.0399475 -2.58223 0.0399524 0.0440622 -2.51246 -0.0246922 0.0648612 -2.4318 
-0.0914076 0.0915546 -2.32981 -0.162622 0.107786 -2.20986 -0.232702 0.130935 -2.07629 
-0.296988 0.139841 -1.93042 -0.347132 0.147888 -1.77522 -0.406594 0.169021 -1.63233 
-0.467005 0.177214 -1.4859 -0.503159 0.184561 -1.32916 1.97735 -0.204813 -3.30708 
2.04253 -0.162743 -3.31264 2.10838 -0.122774 -3.32527 2.17518 -0.0886226 -3.35163 
2.24082 -0.0697395 -3.38926 2.29931 -0.0725802 -3.40602 2.35079 -0.0764391 -3.3768 
2.39494 -0.0776997 -3.29492 2.43406 -0.091228 -3.19462 2.47592 -0.107702 -3.11642 
2.51759 -0.150207 -3.06955 2.55958 -0.206428 -3.04198 2.60439 -0.255093 -3.02398 
2.65425 -0.276252 -3.00551 2.70596 -0.284142 -2.98287 2.75739 -0.288209 -2.95359 
2.80955 -0.294062 -2.93147 2.8621 -0.298197 -2.9098 2.9168 -0.292776 -2.89061 
2.97501 -0.271183 -2.87563 3.03271 -0.258272 -2.88143 3.0845 -0.23304 -2.91445 
3.11208 -0.193356 -2.95387 3.12464 -0.138423 -2.95523 3.12941 -0.0619667 -2.88611 
3.13184 0.0438753 -2.7379 2.27053 -1.49375 -2.70784 2.21408 -1.49691 -2.71238 
2.16012 -1.48899 -2.71979 2.10618 -1.48097 -2.72724 2.05014 -1.4823 -2.73225 
1.99018 -1.49605 -2.72643 1.93166 -1.49332 -2.70964 1.87068 -1.48643 -2.67108 
1.80376 -1.50144 -2.6192 1.73686 -1.53053 -2.57303 1.68001 -1.57232 -2.55129 
1.62906 -1.63304 -2.54878 2.39541 -1.42437 -2.71533 2.44711 -1.37979 -2.72289 
2.47437 -1.33066 -2.73408 2.50163 -1.28154 -2.74527 2.55333 -1.23696 -2.75283 
2.61651 -1.19463 -2.75866 2.68118 -1.15436 -2.76376 2.74381 -1.12367 -2.76636 
2.80215 -1.10704 -2.7577 2.8602 -1.08164 -2.73607 2.91472 -1.05686 -2.69144 
2.96925 -1.02145 -2.63433 3.02025 -0.988499 -2.56913 3.06513 -0.937683 -2.50955 
3.0981 -0.876568 -2.46174 3.14757 -0.820468 -2.4264 3.20804 -0.770043 -2.40385 
3.26851 -0.719618 -2.3813 3.31732 -0.661418 -2.33888 3.34865 -0.592488 -2.27024 
3.39199 -0.518316 -2.17101 2.35174 -1.50594 -2.61933 2.34603 -1.53851 -2.52571 
2.32804 -1.56692 -2.42673 2.30764 -1.59863 -2.34249 2.2776 -1.63415 -2.2813 
2.22394 -1.67276 -2.25243 2.16008 -1.7131 -2.2395 2.09543 -1.75326 -2.23443 
2.03253 -1.78012 -2.22519 1.97467 -1.77949 -2.21549 1.91827 -1.7673 -2.20116 
1.86155 -1.76664 -2.19907 1.80407 -1.78445 -2.21504 1.75535 -1.78847 -2.27269 
1.71413 -1.77509 -2.35963 1.66959 -1.77372 -2.4493 1.61428 -1.76143 -2.51411 
1.43934 -1.69248 -2.55032 1.36647 -1.68847 -2.54106 1.31478 -1.71743 -2.53017 
1.29095 -1.76284 -2.51003 1.2882 -1.80873 -2.46648 1.31174 -1.84832 -2.39126 
1.35126 -1.86552 -2.31309 1.40592 -1.8419 -2.28549 1.46099 -1.80931 -2.328 
1.50089 -1.77199 -2.42931 0.421494 -1.11499 -2.56717 0.383857 -1.14482 -2.53922 
0.325226 -1.148 -2.48833 0.263853 -1.15737 -2.40041 0.197278 -1.16861 -2.27384 
3.19431 0.173413 -2.34072 3.23731 0.144868 -2.18947 3.09954 0.262117 -2.53191 
3.07791 0.332363 -2.52283 3.04421 0.401597 -2.51205 3.00002 0.475887 -2.48825 
2.9554 0.551468 -2.45969 2.92107 0.623262 -2.43682 2.90283 0.688217 -2.42592 
2.86946 0.754193 -2.41677 2.82286 0.816416 -2.39239 2.7702 0.864907 -2.35699 
2.71853 0.918306 -2.32288 2.66643 0.964713 -2.29458 2.61686 1.02746 -2.2629 
2.56729 1.0902 -2.23121 2.51516 1.13652 -2.20288 2.4651 1.18199 -2.18957 
2.41144 1.21141 -2.17209 2.35466 1.23699 -2.13839 2.29893 1.27229 -2.09957 
2.24708 1.31984 -2.07157 2.19405 1.34705 -2.06114 2.14027 1.36082 -2.06245 
2.08611 1.37288 -2.06332 2.03053 1.38871 -2.04994 1.97252 1.40882 -2.01481 
1.9117 1.42147 -1.97012 1.84837 1.41789 -1.92884 1.79067 1.42428 -1.91301 
1.73753 1.44595 -1.90875 1.68558 1.47794 -1.89956 1.62727 1.49672 -1.86409 
1.57218 1.53488 -1.82602 1.51378 1.55325 -1.79044 3.40374 -0.380334 -2.07731 
3.37362 -0.320537 -2.09702 3.36002 -0.263813 -2.11427 3.34149 -0.206173 -2.13226 
3.32936 -0.148406 -2.14452 3.30997 -0.084282 -2.14381 3.29882 -0.00769247 -2.12004 
3.47326 -0.41276 -1.85286 3.48857 -0.407542 -1.65194 3.48612 -0.414405 -1.46478 
3.48912 -0.431661 -1.30509 3.47822 -0.453917 -1.17624 3.4609 -0.484328 -1.08435 
3.44455 -0.522395 -1.02113 3.43071 -0.568408 -0.986346 3.41647 -0.618083 -0.966019 
3.3924 -0.665931 -0.947151 3.35056 -0.706735 -0.916523 3.31336 -0.742795 -0.863603 
3.2784 -0.777399 -0.803134 3.26565 -0.818007 -0.746583 3.2352 -0.860929 -0.714264 
3.21102 -0.908757 -0.695412 3.1833 -0.955924 -0.677087 3.12965 -0.994533 -0.648211 
3.06423 -1.02534 -0.599481 3.00607 -1.05563 -0.542457 2.96433 -1.08898 -0.483007 
2.91824 -1.12338 -0.431406 2.87649 -1.15673 -0.371955 2.81823 -1.187 -0.314948 
2.75082 -1.21744 -0.266512 2.68369 -1.25354 -0.239638 2.61716 -1.29151 -0.219901 
2.55034 -1.32577 -0.193518 2.48358 -1.34459 -0.148287 2.41937 -1.34707 -0.0996655 
2.35264 -1.36578 -0.0544619 2.28554 -1.39621 -0.0214489 2.2202 -1.41882 0.00953106 
2.15776 -1.42346 0.0434728 2.09425 -1.4329 0.0786467 2.0336 -1.43961 0.0978911 
1.97255 -1.45321 0.111292 1.91474 -1.45236 0.120954 1.85663 -1.4478 0.137262 
1.7981 -1.45012 0.147734 1.7446 -1.43512 0.146102 1.68744 -1.44143 0.142377 
1.63138 -1.44286 0.137386 1.57496 -1.44591 0.132817 1.51502 -1.45957 0.138621 
1.45747 -1.45299 0.154417 1.40441 -1.42005 0.186413 1.36762 -1.35793 0.227226 
0.0150383 -1.06325 -2.12007 -0.0472784 -1.00625 -2.08645 -0.105102 -0.962588 -2.03513 
-0.162333 -0.904127 -1.96975 -0.231618 -0.856768 -1.87961 6.72751 -0.1397 -1.70934 
6.68069 -0.143967 -1.76673 6.64775 -0.101281 -1.78963 6.63113 -0.0442448 -1.79954 
6.59951 0.0194592 -1.80504 6.55751 0.0870743 -1.8049 6.51238 0.159008 -1.79084 
6.46725 0.230944 -1.77676 6.42536 0.298536 -1.77662 6.39633 0.359999 -1.78896 
3.34928 0.188736 -1.86132 3.38427 0.254543 -1.65236 3.39551 0.300478 -1.46843 
3.41867 0.320564 -1.31472 3.43706 0.306614 -1.18539 3.4311 0.277972 -1.08517 
3.4146 0.245648 -1.0004 3.39619 0.213569 -0.915882 3.377 0.18351 -0.824265 
3.35702 0.155463 -0.725581 3.33594 0.125753 -0.634243 3.30584 0.0958515 -0.55146 
3.26167 0.066698 -0.477961 3.23224 0.0347993 -0.402281 3.21243 0.00111542 -0.325165 
3.19251 -0.032549 -0.248065 3.1612 -0.0640968 -0.172666 3.10544 -0.0910949 -0.100887 
3.04958 -0.118074 -0.0291242 3.01696 -0.151247 0.0388872 2.98493 -0.186397 0.0997792 
2.92915 -0.218893 0.149911 2.8616 -0.245428 0.204965 2.794 -0.258438 0.263942 
2.73095 -0.245661 0.323836 2.6679 -0.232883 0.383729 2.59951 -0.243878 0.449783 
0.0888224 -1.23158 -2.00382 0.0528656 -1.26336 -1.88862 0.0094516 -1.28441 -1.78487 
-0.050359 -1.28789 -1.68301 -0.113398 -1.26361 -1.59544 -0.173143 -1.21645 -1.51399 
-0.224787 -1.14782 -1.46097 -0.271719 -1.07383 -1.4322 -0.312949 -1.00833 -1.43912 
-0.33973 -0.953255 -1.47457 -0.337804 -0.911646 -1.54405 -0.325717 -0.871919 -1.64485 
4.90875 -0.667698 -1.43446 4.93699 -0.727144 -1.41503 4.97495 -0.788399 -1.39415 
5.00497 -0.848175 -1.37446 5.01857 -0.9049 -1.3572 5.0372 -0.962559 -1.3392 
5.05083 -1.01918 -1.32197 5.08136 -1.07715 -1.30273 5.12386 -1.1274 -1.28452 
5.17176 -1.16182 -1.27023 5.21908 -1.1993 -1.25514 5.27001 -1.22074 -1.24422 
5.32272 -1.23424 -1.23535 5.37477 -1.25574 -1.23203 5.4271 -1.28601 -1.24167 
5.48794 -1.29351 -1.28006 5.54879 -1.30606 -1.32478 5.60975 -1.31304 -1.36332 
5.67404 -1.29007 -1.38677 5.74013 -1.25403 -1.40601 5.80691 -1.21998 -1.43234 
5.87325 -1.203 -1.47709 5.93492 -1.21189 -1.52276 5.99551 -1.22051 -1.56087 
6.05724 -1.20891 -1.58138 6.11652 -1.1982 -1.58641 6.1766 -1.17889 -1.58606 
6.23521 -1.16609 -1.58403 6.29531 -1.14667 -1.5837 6.35431 -1.13214 -1.58211 
6.41654 -1.10328 -1.58424 6.47878 -1.07432 -1.5864 6.5374 -1.05594 -1.5782 
6.59613 -1.0188 -1.55981 6.64521 -0.964426 -1.52402 6.67923 -0.903687 -1.48372 
6.72831 -0.849309 -1.44793 6.78704 -0.812176 -1.42954 6.84568 -0.793702 -1.42136 
6.90831 -0.763011 -1.42397 6.972 -0.722595 -1.42147 7.03256 -0.686019 -1.40275 
7.08748 -0.659411 -1.35859 7.14204 -0.623899 -1.3015 7.19293 -0.590931 -1.23633 
7.23484 -0.536407 -1.1652 7.25247 -0.459318 -1.07184 7.27072 -0.364816 -0.934377 
5.22095 0.590702 -1.31004 5.27909 0.631639 -1.2696 5.33907 0.685756 -1.22494 
5.40013 0.739699 -1.18788 5.46324 0.787653 -1.17211 5.52734 0.829895 -1.17009 
5.58929 0.862583 -1.16559 5.64626 0.883203 -1.14273 5.70226 0.914596 -1.09981 
5.75607 0.941275 -1.04803 5.81164 0.970739 -1.00461 5.86568 0.978259 -0.978345 
5.91932 0.973955 -0.964245 5.97538 0.975382 -0.959254 6.03464 0.991034 -0.957955 
6.08999 0.994363 -0.945836 6.14186 0.992226 -0.917066 6.19129 0.994355 -0.866549 
6.24001 0.99838 -0.808893 6.2894 1.0003 -0.758322 6.34045 0.994513 -0.728604 
6.39073 0.975275 -0.710627 6.43849 0.939719 -0.696037 6.48946 0.918493 -0.685166 
6.54254 0.906612 -0.67672 6.59559 0.894626 -0.668248 6.64613 0.87147 -0.656876 
6.69094 0.822805 -0.638882 6.73363 0.764691 -0.618437 6.77842 0.715931 -0.600419 
6.82842 0.690856 -0.588559 6.87665 0.666111 -0.576963 6.90916 0.621505 -0.553564 
6.92344 0.574175 -0.515703 6.95237 0.536976 -0.458677 6.99456 0.510862 -0.403482 
7.03931 0.456604 -0.360743 4.63499 0.190449 -1.27705 4.65709 0.246001 -1.25963 
4.6996 0.295453 -1.19991 4.41847 -0.430269 -0.991994 4.46289 -0.389964 -0.85995 
4.50114 -0.382228 -0.727085 4.53934 -0.384793 -0.606777 4.57595 -0.409501 -0.503577 
4.61389 -0.438399 -0.414521 4.65602 -0.458693 -0.342941 4.69631 -0.497311 -0.281848 
4.7369 -0.549644 -0.240049 4.7806 -0.598242 -0.214452 4.82751 -0.63251 -0.192574 
4.87092 -0.677382 -0.160333 4.91298 -0.718157 -0.113912 4.95827 -0.744516 -0.0712338 
5.00284 -0.774119 -0.0277127 5.0527 -0.795278 -0.00923768 5.10463 -0.822334 -0.0120963 
5.15577 -0.867973 -0.0329745 5.20948 -0.897185 -0.0505061 5.26255 -0.909066 -0.0420605 
5.31287 -0.913066 -0.00518534 5.36072 -0.928037 0.0345373 5.40633 -0.973146 0.0516075 
5.45641 -1.01851 0.0382697 5.51361 -1.03723 0.0103919 5.56551 -1.06943 0.00125733 
5.61756 -1.09093 0.00457852 5.67067 -1.1026 0.0129701 5.72416 -1.11266 0.0209417 
5.77766 -1.12261 0.0288864 5.83119 -1.13246 0.0368042 5.88511 -1.14058 0.044275 
5.94114 -1.13926 0.0492933 6.00042 -1.1235 0.0505651 6.05619 -1.11835 0.0622102 
6.11061 -1.1091 0.0880249 6.1662 -1.07954 0.131422 6.22001 -1.05286 0.183198 
6.2767 -1.02346 0.219016 6.33504 -1.00684 0.227683 6.39901 -0.980241 0.210909 
6.46406 -0.943819 0.199195 6.52601 -0.911131 0.203693 6.5834 -0.888686 0.226083 
6.64469 -0.853899 0.237648 6.70946 -0.813655 0.232564 6.77667 -0.777678 0.205733 
6.84596 -0.747585 0.157576 6.91593 -0.719492 0.102306 6.98521 -0.6894 0.0541494 
7.05234 -0.653299 0.0272758 7.11633 -0.612876 0.0143357 7.16981 -0.56863 0.00703995 
7.20589 -0.519276 0.00436401 7.24274 -0.468199 0.00899834 7.25437 -0.41056 0.0170913 
7.25319 -0.356146 0.00167877 7.28245 -0.314872 -0.0380224 7.31068 -0.284621 -0.121084 
7.33304 -0.259579 -0.229001 7.35376 -0.244851 -0.372829 7.35671 -0.243306 -0.550712 
7.288 -0.11466 -0.562581 7.25011 0.011766 -0.369948 7.1584 0.274693 -0.359963 
7.20761 0.203065 -0.35054 7.23281 0.155353 -0.285764 -0.509588 0.300926 -1.04567 
-0.474043 0.382159 -0.925992 -0.448321 0.465216 -0.807778 -0.460322 0.551553 -0.709565 
-0.465254 0.630964 -0.631915 -0.449105 0.697109 -0.587138 -0.41331 0.755863 -0.553843 
-0.379198 0.811082 -0.535177 -0.329541 0.863486 -0.506493 -0.27218 0.904601 -0.473906 
-0.218314 0.937058 -0.416028 -0.162513 0.987715 -0.347622 -0.106342 1.05009 -0.267035 
-0.0505646 1.10064 -0.198602 0.00365873 1.12915 -0.147311 0.061298 1.15272 -0.125213 
0.116698 1.15625 -0.113146 0.17034 1.15195 -0.0990462 0.224376 1.15946 -0.0727822 
0.279944 1.18893 -0.029361 0.334438 1.21361 0.0153128 0.392489 1.23902 0.0369341 
0.452856 1.24955 0.0243285 0.517127 1.27243 0.000888521 0.579263 1.30141 -0.00128284 
0.63396 1.32612 0.0279399 0.679716 1.36941 0.0588114 0.704513 1.4227 0.0693947 
0.731746 1.47172 0.0582315 0.785497 1.51031 0.0293717 0.852773 1.54066 -0.0190528 
0.922224 1.56695 -0.073865 0.98966 1.58377 -0.126198 1.05319 1.58826 -0.167709 
1.12063 1.60507 -0.220041 1.19084 1.62924 -0.281903 1.26172 1.65131 -0.350841 
1.33011 1.6623 -0.416905 1.39246 1.65142 -0.469669 1.45371 1.6407 -0.514856 
1.51711 1.64458 -0.556207 1.57834 1.63376 -0.601367 1.63955 1.62284 -0.64651 
1.70183 1.62678 -0.680258 1.75533 1.61683 -0.672313 1.80077 1.59109 -0.629796 
1.84903 1.57795 -0.590547 1.90213 1.56617 -0.582129 1.95836 1.54823 -0.602587 
2.01567 1.53002 -0.630594 2.07333 1.52343 -0.646377 2.13034 1.52408 -0.648805 
2.17851 1.49035 -0.634689 2.22738 1.45473 -0.627702 2.28688 1.45132 -0.651931 
2.35158 1.44586 -0.713713 -0.502254 0.206129 -0.956495 -0.487734 0.192229 -0.773457 
-0.484706 0.171706 -0.625716 -0.463781 0.141614 -0.496754 -0.426753 0.105888 -0.359516 
7.15983 0.178983 -0.0341165 7.09515 0.224804 0.0781513 7.03775 0.267827 0.137805 
7.04658 0.351573 -0.1605 7.01508 0.33795 0.0025732 2.67306 1.36296 -0.698123 
2.61726 1.38283 -0.678166 2.56874 1.3999 -0.710813 2.48109 1.46066 -0.805878 
2.47123 1.41677 -0.794487 6.92072 0.313648 0.221857 6.85584 0.313249 0.27755 
6.78841 0.296437 0.329881 6.71956 0.268274 0.377537 6.64934 0.244105 0.4394 
6.57996 0.233255 0.513058 6.51421 0.240404 0.597445 6.45632 0.227417 0.672809 
6.41311 0.196247 0.731507 6.3582 0.156223 0.75294 6.29737 0.109742 0.736966 
6.24138 0.0627963 0.675239 0.254743 -1.05401 -0.00389849 0.195091 -1.0261 0.0520551 
0.138854 -1.00816 0.0725132 0.084665 -0.996209 0.0716715 -0.626088 -0.310626 -0.374918 
-0.571774 -0.301365 -0.349117 -0.51222 -0.270133 -0.344439 -0.461048 -0.227467 -0.351513 
-0.435955 -0.177356 -0.360612 -0.424311 -0.114017 -0.336083 -0.408412 -0.0349828 -0.279504 
-0.306961 0.148796 -0.0818623 -0.249511 0.211132 0.0220496 -0.200201 0.238205 0.109335 
-0.152819 0.249504 0.185422 -0.104755 0.255628 0.250144 -0.0560297 0.25965 0.307791 
-0.00662146 0.261675 0.358335 0.0421027 0.265698 0.415981 0.0908268 0.269723 0.473637 
0.140235 0.271749 0.524181 0.191668 0.267681 0.553452 0.244081 0.257901 0.568974 
0.29437 0.238663 0.58695 0.340055 0.209001 0.622865 0.38652 0.197917 0.676811 
0.432301 0.188833 0.737871 0.475915 0.165056 0.795111 0.524428 0.147983 0.827758 
0.574307 0.126919 0.846209 0.622019 0.0911644 0.860851 2.46618 -0.316002 0.495877 
2.40099 -0.358071 0.501435 2.47679 -0.178058 0.597206 2.42378 -0.105436 0.66442 
2.36626 -0.0652537 0.721001 2.30506 -0.0547336 0.758528 2.23461 -0.0814322 0.770847 
2.25686 -0.272409 0.65281 2.35734 -0.450863 0.554236 2.34746 -0.503736 0.566222 
2.30724 -0.551967 0.572043 2.25472 -0.594917 0.581008 2.10244 -0.509484 0.619611 
2.08565 -0.42129 0.668541 2.08761 -0.346084 0.724865 2.09622 -0.279978 0.755398 
2.11471 -0.211297 0.764917 
LINES 36 677
7 36 37 38 39 40 41 35 
43 35 42 43 44 45 46 47 48 49 50 51 52 53 54 55 56 57 58 59 60 61 62 63 64 65 66 67 68 69 70 71 72 73 74 75 76 77 78 79 80 81 82 17 
28 35 83 84 85 86 87 88 89 90 91 92 93 94 95 96 97 98 99 100 101 102 103 104 105 106 107 108 31 
14 34 109 110 111 112 113 114 115 116 117 118 119 120 33 
23 34 121 122 123 124 125 126 127 128 129 130 131 132 133 134 135 136 137 138 139 140 141 30 
19 34 142 143 144 145 146 147 148 149 150 151 152 153 154 155 156 157 158 33 
12 33 159 160 161 162 163 164 165 166 167 168 33 
7 32 169 170 171 172 173 26 
4 31 174 175 27 
35 31 176 177 178 179 180 181 182 183 184 185 186 187 188 189 190 191 192 193 194 195 196 197 198 199 200 201 202 203 204 205 206 207 208 18 
9 30 209 210 211 212 213 214 215 27 
50 30 216 217 218 219 220 221 222 223 224 225 226 227 228 229 230 231 232 233 234 235 236 237 238 239 240 241 242 243 244 245 246 247 248 249 250 251 252 253 254 255 256 257 258 259 260 261 262 263 8 
12 29 269 270 271 272 273 274 275 276 277 278 28 
29 27 279 280 281 282 283 284 285 286 287 288 289 290 291 292 293 294 295 296 297 298 299 300 301 302 303 304 305 4 
50 25 318 319 320 321 322 323 324 325 326 327 328 329 330 331 332 333 334 335 336 337 338 339 340 341 342 343 344 345 346 347 348 349 350 351 352 353 354 355 356 357 358 359 360 361 362 363 364 365 20 
39 23 366 367 368 369 370 371 372 373 374 375 376 377 378 379 380 381 382 383 384 385 386 387 388 389 390 391 392 393 394 395 396 397 398 399 400 401 402 15 
5 22 403 404 405 19 
64 21 406 407 408 409 410 411 412 413 414 415 416 417 418 419 420 421 422 423 424 425 426 427 428 429 430 431 432 433 434 435 436 437 438 439 440 441 442 443 444 445 446 447 448 449 450 451 452 453 454 455 456 457 458 459 460 461 462 463 464 465 466 467 20 
4 20 468 469 16 
5 15 470 471 472 16 
58 17 473 474 475 476 477 478 479 480 481 482 483 484 485 486 487 488 489 490 491 492 493 494 495 496 497 498 499 500 501 502 503 504 505 506 507 508 509 510 511 512 513 514 515 516 517 518 519 520 521 522 523 524 525 526 527 528 12 
7 17 529 530 531 532 533 5 
5 16 534 535 536 11 
4 15 537 538 11 
5 14 539 540 541 13 
3 13 542 12 
3 13 543 12 
14 11 544 545 546 547 548 549 550 551 552 553 554 555 6 
6 10 556 557 558 559 7 
9 9 560 561 562 563 564 565 566 5 
22 5 567 568 569 570 571 572 573 574 575 576 577 578 579 580 581 582 583 584 585 586 0 
4 4 587 588 3 
7 4 589 590 591 592 593 1 
3 3 594 1 
20 26 264 265 266 267 268 24 317 316 315 314 313 312 311 310 309 308 307 306 26 
12 3 595 596 597 598 2 599 600 601 602 603 1 

POINT_DATA 604
SCALARS DY_raw double
LOOKUP_TABLE default
1487.94 2014.26 1700.38 1462.6 2072.57 1579.54 1027.24 2295.46 1865.59 
2537.23 1165.71 1052.16 1924.74 1889.71 1648.38 947.683 920.596 1538.6 
2177.72 965.919 732.298 791.274 888.616 1006.66 1851.07 824.68 1310.12 
1305.83 901.541 822.644 1375.6 1312.82 1997.48 956.307 1401.59 1555.5 
2013.17 1800.98 1800.98 1709.04 1528.44 1496.9 1666.24 1605.22 1884.29 
2175.41 2085.18 2555.37 2555.37 2561.79 2297.17 2023.91 1931.71 1761.39 
1523.66 1457.8 1471.53 1555.64 1555.64 1533.86 1361.06 1442.89 1419.43 
1332.55 1394.95 1414.54 1483.44 1556.71 1513.79 1491.04 1569.36 1484.42 
1463.97 1502.57 1594.07 1691.26 1903.9 1771.6 1571.69 1585.44 1615.84 
1746.16 1619.63 1677.18 1823.98 1732.19 1945.94 2053.13 1675.42 1543.91 
1805.8 1889.36 2329.12 2082.91 1891.7 1739.33 1756.08 1939.16 1939.16 
1868.69 1880.72 1880.72 1717.73 1606.19 1392.61 1403.56 1351.76 1167.02 
1206.22 1401.59 1700.15 1951.07 1752.97 2173.71 2173.71 2347.11 2981.11 
2597.3 2076.67 1666.2 1299.38 1416.47 1460 1408.21 1774.25 1646.88 
1693.61 1653.64 1755.65 1550.34 1735.72 2037.34 2066.12 2276.39 2289.14 
2157.22 1878.99 2032.2 1742.78 1653.94 1496.54 1418.6 1665.32 1915.94 
2144.72 2253.52 2036.14 2125.04 2373.82 2232.35 2027.93 2027.93 1693.66 
1693.66 1587.13 1332.11 1112.8 1011.89 951.069 1069.86 1263.64 1331.18 
1272.47 1372.72 1261.41 1185.69 1152.25 1066.15 970.024 1696 1548.55 
1481.38 1483.05 1458.32 1484.22 1366.77 1388.03 1417.54 1537.42 1419.5 
1511.71 1426.04 1540.01 1469.94 1547.72 1599.36 1653.46 1745.08 1870.92 
1943.77 2226.42 2000.67 2096.31 2208.73 2031.56 2183.57 2185.15 1904.82 
1904.82 1706.97 1758.08 1886.99 1622.61 1455.19 1455.19 1431.24 1488.87 
1635.14 2165.99 1606.55 1581.71 1733.25 1352.39 1363.53 1255.25 1382.24 
1680.2 1519.99 1342.75 1357.85 1418.1 1303.43 1265 1343.61 1455.74 
1455.74 1452.77 1586.16 1687.29 1709.25 1641.86 1800.6 1702.65 1733.09 
1784.63 1733.08 1858.13 1835.4 1656.66 1783.22 1688.55 1821.67 1939.14 
1861.43 2119.24 2141.73 2170.78 2584.33 2357.66 2419.75 2303.86 2078.03 
2071.37 2140.78 2025.65 1796.41 1614.86 1614.86 1240.53 1240.53 1130.92 
1214.04 1240.33 1710.36 1510.3 1486.54 1667 1662.09 1792.31 836.948 
790.577 797.817 802.664 780.802 903.281 812.04 906.29 852.231 855.475 
1497.86 1653.43 1584.5 1619.31 1378.62 1285.7 1470.45 1332.48 1459.01 
1661.23 1762.2 1887.2 1779.57 1893.83 2304.6 2317.34 2215.54 2240.44 
1957.5 2051.99 2098.34 2108.85 1986.72 1966.26 1982.16 2349.91 2150.11 
1434 1477.22 1442.56 1427.04 1484.09 1547.17 1594.9 1557.97 1500.57 
1560.04 1611 1703.03 824.68 804.244 846.073 823.2 1003.06 1003.06 
1053.34 1098.37 959.166 921.65 847.263 836.1 740.434 740.434 744.63 
738.947 808.838 775.239 879.027 824.424 929.564 952.931 808.51 793.565 
793.565 818.219 846.96 917.47 936.731 940.193 870.626 948.036 970.746 
1019.37 1062.96 1053.24 1025.56 902.79 807.298 836.753 756.369 567.684 
654.701 603.623 588.515 591.057 571.213 691.036 819.912 870.209 1086.61 
1106.07 969.658 1096.11 1113.94 1016.97 1071.32 1398.94 1411.43 1018.19 
1013.23 1013.23 826.976 815.346 815.346 1044.03 1187.28 1176.71 1176.71 
1161.96 1177.85 1177.85 1244.22 1223.46 1184.84 1204.56 1217.46 1412.36 
1313.91 1259.28 1054.39 1187.75 1243.79 1129.86 1043.53 786.393 875.291 
870.545 705.438 783.572 718.852 715.287 864.453 947.085 1204.04 1194.13 
1124.13 1078.73 899.204 838.07 912.399 860.885 926.886 926.886 946.54 
909.179 951.184 914.179 913.717 982.062 967.82 856.589 849.287 931.724 
931.724 966.763 1022.36 980.298 980.298 943.356 879.561 879.561 831.265 
862.516 954.539 1159.59 1171.52 1161.51 1231.2 1100.96 944.713 873.426 
939.208 961.259 878.77 870.957 981.622 791.184 855.779 941.203 892.379 
994.442 1031.68 1087.77 1099.2 1010.54 947.942 829.045 780.286 690.68 
867.292 900.099 879.467 914.299 960.804 1817.42 1990.22 1650.39 1895.74 
1980.24 2023.34 1924.51 1742.26 1619 1508.62 1707.43 2093.07 2254.02 
2729.56 2753.38 2502.42 2502.42 2457.19 2375.73 2375.73 2118.77 1960.53 
2156.6 1851.35 2164.24 2270.31 2531.18 2884.41 3216.98 2746.86 2796.54 
2989.16 2694.14 2666.64 2658.47 2200.6 1794.7 1867.64 1639.65 1747.32 
1670.28 1706.81 1827.12 1831.33 2192.89 2192.89 2562.91 3481.61 3210.92 
2728.61 2284.07 2284.07 1907.04 1887.69 1775.75 1972.33 1514.14 1364.24 
1387.83 1386.89 1518.53 925.51 984.949 1011.85 1098.73 1138.06 1936.71 
1897.56 1979.93 2277.05 1889.54 1224.19 1189.22 1155.56 1190.21 1394.42 
1312.37 1108.41 1053.06 1164.15 1302.36 1245.81 1020.99 1290.04 1554.51 
1658.08 1787.57 2126.05 1745.23 1516.74 1311.73 1273.05 1203.14 1328.67 
1709.82 1864.55 1947.04 1759.86 2092.54 1967.94 1922.22 2097.3 2035.78 
2044.92 1890.99 1790.44 1723.28 1840.1 1706.67 1762.04 1762.04 1626.87 
1507.24 1487.94 1869.25 1462.6 2409.54 2456.32 2298 2143.65 2057.03 
1642.87 1346.54 1375.84 1476.38 1483.55 1781.1 1895.64 1838.5 1798.16 
1936.8 
FIELD FieldData 7
DY_minmax 1 604 double
0.315814 0.496435 0.388719 0.307118 0.516447 0.34725 0.157711 0.592938 0.445416 
0.67591 0.205232 0.166261 0.465715 0.453693 0.370872 0.130408 0.121113 0.3332 
0.552531 0.136666 0.0564923 0.0767319 0.110138 0.150648 0.440431 0.088196 0.254789 
0.253316 0.114573 0.0874974 0.27726 0.255718 0.490678 0.133368 0.286181 0.338999 
0.496063 0.423241 0.423241 0.391692 0.329713 0.31889 0.377003 0.356061 0.451833 
0.55174 0.520773 0.682134 0.682134 0.684339 0.593524 0.499746 0.468105 0.409656 
0.32807 0.30547 0.310183 0.339045 0.339045 0.331572 0.272271 0.300354 0.292304 
0.262488 0.283902 0.290623 0.314271 0.339414 0.324684 0.316877 0.343754 0.314605 
0.307589 0.320833 0.352235 0.38559 0.458562 0.413161 0.344556 0.349274 0.359706 
0.40443 0.361008 0.380757 0.431135 0.399636 0.472988 0.509775 0.380153 0.335021 
0.424897 0.453572 0.604489 0.519995 0.454377 0.402087 0.407834 0.470664 0.470664 
0.446479 0.450607 0.450607 0.394672 0.356393 0.283098 0.286858 0.269079 0.20568 
0.219133 0.286181 0.388641 0.474751 0.406768 0.551158 0.551158 0.610663 0.82824 
0.696523 0.517855 0.37699 0.251102 0.291287 0.306226 0.288453 0.414069 0.37036 
0.386397 0.372678 0.407686 0.337229 0.400848 0.504358 0.514233 0.586394 0.590771 
0.545496 0.450012 0.502593 0.403269 0.372781 0.318763 0.292019 0.376688 0.462696 
0.541207 0.578544 0.503945 0.534453 0.619829 0.571281 0.501129 0.501129 0.386411 
0.386411 0.349855 0.262336 0.187072 0.152442 0.13157 0.172336 0.238838 0.262017 
0.241867 0.276271 0.238074 0.212088 0.200613 0.171065 0.138075 0.387217 0.336614 
0.313563 0.314135 0.30565 0.314538 0.274232 0.281525 0.291653 0.332795 0.292327 
0.323972 0.294572 0.333684 0.309636 0.33633 0.354052 0.372618 0.404059 0.447246 
0.472245 0.569245 0.491773 0.524593 0.563175 0.502375 0.554541 0.555082 0.45888 
0.45888 0.39098 0.408521 0.452759 0.36203 0.304575 0.304575 0.296354 0.316131 
0.36633 0.548507 0.356517 0.347993 0.399998 0.269295 0.273118 0.23596 0.279541 
0.381794 0.326814 0.265986 0.271169 0.291847 0.252494 0.239307 0.266282 0.304763 
0.304763 0.303743 0.349522 0.384228 0.391764 0.368635 0.423112 0.389498 0.399943 
0.41763 0.399942 0.442857 0.435055 0.373714 0.417146 0.384658 0.430342 0.470658 
0.443987 0.532462 0.540181 0.550152 0.692072 0.614286 0.635594 0.595822 0.518321 
0.516036 0.539854 0.500344 0.421675 0.35937 0.35937 0.230906 0.230906 0.193293 
0.221818 0.23084 0.392143 0.323487 0.315332 0.377263 0.375579 0.420268 0.0924062 
0.0764924 0.0789773 0.0806404 0.073138 0.11517 0.0838584 0.116203 0.0976509 0.0987642 
0.319218 0.372606 0.348951 0.360898 0.278296 0.246408 0.309811 0.262461 0.305887 
0.375285 0.409934 0.452833 0.415895 0.455108 0.596075 0.600447 0.565511 0.574057 
0.476956 0.509383 0.52529 0.528897 0.486984 0.479962 0.485421 0.611626 0.543056 
0.297303 0.312136 0.300242 0.294913 0.314494 0.336139 0.352519 0.339848 0.320149 
0.340556 0.358045 0.389629 0.088196 0.0811827 0.0955378 0.087688 0.149412 0.149412 
0.166666 0.182123 0.134349 0.121474 0.0959461 0.0921151 0.0592844 0.0592844 0.0607244 
0.0587743 0.0827595 0.0712288 0.106847 0.0881082 0.12419 0.132209 0.0826467 0.0775179 
0.0775179 0.0859786 0.0958421 0.12004 0.12665 0.127838 0.103964 0.130529 0.138323 
0.15501 0.16997 0.166635 0.157135 0.115002 0.0822309 0.0923393 0.064753 0 
0.0298627 0.0123337 0.00714903 0.00802133 0.00121138 0.042332 0.0865599 0.103821 0.178085 
0.184764 0.13795 0.181347 0.187464 0.154186 0.172837 0.285271 0.289557 0.154605 
0.152902 0.152902 0.0889838 0.0849927 0.0849927 0.163473 0.212633 0.209007 0.209007 
0.203943 0.209395 0.209395 0.232175 0.225048 0.211796 0.218564 0.22299 0.289878 
0.256089 0.237343 0.167028 0.212796 0.232025 0.192928 0.163301 0.0750566 0.105565 
0.103936 0.0472744 0.0740886 0.051878 0.0506545 0.101845 0.130203 0.218383 0.214984 
0.19096 0.175381 0.113771 0.0927913 0.118299 0.100621 0.123271 0.123271 0.130016 
0.117195 0.13161 0.11891 0.118752 0.142207 0.137319 0.0991464 0.0966407 0.124932 
0.124932 0.136956 0.156035 0.141601 0.141601 0.128923 0.10703 0.10703 0.0904558 
0.101181 0.132761 0.203129 0.207225 0.20379 0.227705 0.18301 0.129389 0.104925 
0.1275 0.135067 0.106759 0.104077 0.142056 0.0767008 0.0988685 0.128185 0.111429 
0.146455 0.159234 0.178484 0.182405 0.151981 0.130497 0.089694 0.0729609 0.04221 
0.10282 0.114078 0.106998 0.118952 0.134911 0.428885 0.488187 0.371563 0.455762 
0.48476 0.499551 0.465636 0.403091 0.36079 0.32291 0.391138 0.523483 0.578717 
0.741913 0.750087 0.663962 0.663962 0.64844 0.620487 0.620487 0.532302 0.477998 
0.545284 0.440528 0.547905 0.584308 0.673832 0.795053 0.909186 0.74785 0.7649 
0.831002 0.729757 0.72032 0.717515 0.560384 0.421087 0.44612 0.367879 0.404827 
0.378389 0.390926 0.432214 0.433657 0.557739 0.557739 0.684723 1 0.907106 
0.741588 0.589031 0.589031 0.459639 0.453 0.414584 0.482047 0.324806 0.273363 
0.281459 0.281135 0.326312 0.122799 0.143197 0.15243 0.182243 0.195744 0.469824 
0.456389 0.484656 0.586621 0.453636 0.225302 0.213299 0.201749 0.213639 0.28372 
0.255561 0.185568 0.166572 0.204697 0.252128 0.232719 0.155567 0.2479 0.338658 
0.374203 0.418641 0.5348 0.404109 0.325698 0.255342 0.242068 0.218077 0.261155 
0.391958 0.445058 0.473367 0.409131 0.523299 0.480542 0.464851 0.524935 0.50382 
0.506958 0.454133 0.419626 0.396576 0.436667 0.390878 0.40988 0.40988 0.363493 
0.322438 0.315814 0.446672 0.307118 0.632087 0.648141 0.593809 0.540842 0.511113 
0.368983 0.267288 0.277343 0.311846 0.314307 0.41642 0.455729 0.43612 0.422277 
0.469855 
WidthEq 1 604 double
2.90488 2.47869 2.89469 3.29501 2.44558 3.80031 2.13383 1 2.57416 
1.07138 1.778 2.71558 3.25893 3.4421 2.69912 2.75258 2.84887 5.33107 
3.6491 2.95052 3.99775 3.8661 3.31572 2.7945 4.18256 4.30479 5.15627 
5.2768 3.08476 2.1989 4.43208 5.19408 3.7603 5.70076 3.90314 4.18448 
1.99725 3.03442 3.03442 3.57278 4.21576 4.34329 3.83483 4.00401 3.21499 
2.71947 2.59931 1.95505 1.95505 1.84229 1.87489 2.02423 2.23831 2.77654 
3.0181 3.32198 3.69866 3.69386 3.69386 3.75381 4.05796 3.96876 4.08019 
4.39816 4.36176 4.53688 4.58736 4.5426 4.72765 4.83647 4.70515 5.02572 