# vtk DataFile Version 3.0
vtk output
ASCII
DATASET POLYDATA
POINTS 697 float
2.47573 0.685519 1.11385 1.09157 -0.855745 1.61606 2.4525 1.37446 0.563292 
0.829587 0.816676 0.703028 0.647191 -1.02323 1.24166 2.10043 -1.34979 1.35959 
3.15873 -0.837377 0.946711 -0.100858 -0.461676 0.856689 2.87957 -1.42909 0.873374 
3.30258 -1.12958 0.339857 5.41484 -0.0973558 -0.00162725 -0.0495255 0.477645 -0.252924 
3.56663 -0.555386 -0.482222 1.00302 1.25755 -0.675087 4.86683 0.102504 -0.416164 
5.02109 0.00456778 -0.240883 5.86828 -0.524607 -0.0775991 6.18896 -0.61464 -0.0462892 
5.27485 -0.545004 -0.0805145 6.22323 -0.778082 0.00231684 -0.485021 -0.451954 -0.333439 
4.81309 0.23176 -0.524507 4.55235 -0.146767 -0.729797 1.4657 1.25163 -1.08339 
-0.167458 0.107229 -0.979703 6.98446 -0.345711 -0.947464 -0.178117 -0.0539995 -1.14092 
4.59071 -0.86805 -0.82974 6.90486 0.245335 -1.33107 3.46063 -0.262578 -1.23337 
-0.305306 -1.00034 -1.14239 3.33446 -0.889038 -1.25944 6.78793 0.0402063 -1.68947 
3.24132 -0.40277 -1.61242 5.5329 -1.41154 -1.35067 -0.100119 -1.40101 -1.36891 
3.12896 -0.76719 -1.87176 0.933346 -2.05444 -1.36961 2.81725 -0.413087 -2.03275 
5.07269 -0.315544 -2.36116 6.54483 -0.791382 -2.07393 5.99949 -1.15403 -1.97542 
2.77951 -0.783873 -2.13272 0.814775 -0.558013 -2.2287 0.801234 -0.662792 -2.19807 
1.25509 -1.51543 -2.14887 5.99807 -0.893931 -2.46898 5.38708 -0.986145 -2.65952 
5.39075 -0.914694 -2.61099 5.38271 -0.841897 -2.56303 5.34778 -0.766114 -2.51636 
5.3008 -0.690704 -2.46975 5.2509 -0.626695 -2.42755 5.20093 -0.580506 -2.39248 
5.16173 -0.522037 -2.37474 5.13155 -0.438952 -2.36413 6.05022 -0.892742 -2.39904 
6.10184 -0.898559 -2.33477 6.15641 -0.887384 -2.29091 6.20992 -0.890201 -2.25839 
6.26616 -0.871947 -2.23203 6.32134 -0.856058 -2.18954 6.3754 -0.845856 -2.13767 
6.4296 -0.837539 -2.09297 6.48557 -0.824339 -2.07285 1.30055 -1.46749 -2.1623 
1.32118 -1.41669 -2.17693 1.33209 -1.36697 -2.19913 1.35291 -1.32429 -2.23453 
1.39957 -1.30048 -2.28717 1.45631 -1.29457 -2.34212 1.51672 -1.27233 -2.39408 
1.57815 -1.23433 -2.42751 1.63958 -1.19051 -2.4472 1.70069 -1.14624 -2.45931 
1.76044 -1.10949 -2.4615 1.8179 -1.08473 -2.44476 1.87567 -1.04878 -2.40814 
1.93269 -1.01576 -2.36293 1.99167 -0.970408 -2.32906 2.05098 -0.931328 -2.31651 
2.10862 -0.910945 -2.31391 2.16678 -0.88949 -2.31935 2.22284 -0.884305 -2.32003 
2.27765 -0.88874 -2.31791 2.33224 -0.89491 -2.31527 2.38682 -0.901184 -2.3126 
2.44129 -0.905366 -2.30283 2.49556 -0.905264 -2.27888 2.54973 -0.897157 -2.23412 
2.60504 -0.877334 -2.18506 2.66256 -0.843337 -2.14787 2.71999 -0.818783 -2.13107 
5.07867 -0.186541 -2.3388 5.08687 -0.101661 -2.32195 5.10723 -0.0427892 -2.32043 
5.15431 0.00659024 -2.3219 5.21184 0.0478557 -2.31001 5.26911 0.0807323 -2.2725 
5.32824 0.130131 -2.23208 5.38869 0.186846 -2.20153 5.44947 0.23729 -2.19229 
5.50923 0.274038 -2.19448 5.567 0.292521 -2.19905 5.6254 0.315823 -2.20503 
5.68292 0.332362 -2.20904 5.74109 0.353826 -2.21448 5.79738 0.36085 -2.2157 
5.85366 0.367778 -2.21689 5.91158 0.387394 -2.22179 5.96761 0.39237 -2.22241 
6.02219 0.386096 -2.21975 6.0753 0.368468 -2.21376 6.1263 0.334561 -2.20302 
6.17793 0.305474 -2.19369 6.2287 0.269728 -2.1824 6.28033 0.240641 -2.17307 
6.33132 0.206629 -2.1623 6.38417 0.187058 -2.15574 6.43703 0.167487 -2.14919 
6.48802 0.133475 -2.13842 6.53965 0.104388 -2.12908 6.59031 0.0707337 -2.11069 
6.6415 0.0499045 -2.07291 6.69118 0.0349604 -1.99055 6.74076 0.0395685 -1.85987 
0.808005 -0.610402 -2.21339 2.78734 -0.712899 -2.08398 2.80541 -0.653495 -2.0703 
2.83712 -0.603972 -2.0844 2.84379 -0.549494 -2.09261 2.82498 -0.483771 -2.07362 
2.82619 -0.813309 -2.02297 2.87475 -0.83986 -1.94493 2.92723 -0.850371 -1.90823 
2.98279 -0.851121 -1.89173 3.04698 -0.830486 -1.87946 5.95276 -1.21835 -2.01898 
5.91915 -1.27618 -2.04108 5.87111 -1.3123 -2.03117 5.81459 -1.32439 -1.99758 
5.75453 -1.34686 -1.95326 5.69457 -1.37142 -1.91604 5.63794 -1.3801 -1.87057 
5.58973 -1.39119 -1.77023 5.56116 -1.40033 -1.59036 4.9685 -0.294121 -2.27791 
4.89551 -0.2675 -2.19881 4.83704 -0.241927 -2.1269 4.77959 -0.228903 -2.05746 
4.71891 -0.240711 -1.97768 4.65687 -0.260044 -1.88797 4.59562 -0.267524 -1.78631 
4.53623 -0.25849 -1.68174 4.47695 -0.253005 -1.54139 4.43423 -0.234026 -1.34684 
4.45268 -0.186338 -1.07102 3.19958 -0.671387 -1.88537 3.22828 -0.588668 -1.84943 
3.2367 -0.500737 -1.75162 2.87651 -0.380226 -2.03381 2.93223 -0.368874 -2.01315 
2.98495 -0.372015 -1.9651 3.03535 -0.387254 -1.89808 3.08748 -0.386169 -1.82812 
3.14061 -0.377407 -1.76039 3.19251 -0.378174 -1.68989 2.76918 -0.356471 -2.05014 
2.71967 -0.311011 -2.06426 2.66705 -0.289591 -2.07135 2.61421 -0.269915 -2.07793 
2.56321 -0.235903 -2.08871 2.51168 -0.209012 -2.10512 2.461 -0.181377 -2.13718 
2.40854 -0.176187 -2.18582 2.35494 -0.182807 -2.23874 2.30078 -0.190819 -2.28353 
2.24504 -0.202276 -2.30416 2.187 -0.225727 -2.30585 2.12949 -0.242161 -2.30188 
2.07134 -0.26352 -2.29647 2.01529 -0.268705 -2.29579 1.96048 -0.264175 -2.29794 
1.90613 -0.256157 -2.30112 1.85303 -0.238529 -2.30711 1.80178 -0.206461 -2.31731 
1.74867 -0.188833 -2.3233 1.69434 -0.180721 -2.3265 1.63977 -0.174342 -2.3292 
1.5852 -0.168068 -2.33186 1.53053 -0.159598 -2.32745 1.47587 -0.145214 -2.30934 
1.42212 -0.115033 -2.2727 1.37013 -0.0683371 -2.23316 1.3164 -0.0380612 -2.19654 
1.26197 -0.021839 -2.17897 1.20868 0.000181388 -2.1708 1.15735 0.0403601 -2.16023 
1.10507 0.0818854 -2.1269 1.05333 0.130534 -2.08793 0.999729 0.16474 -2.04475 
0.946219 0.196759 -2.00865 0.894242 0.243557 -1.96914 0.840386 0.275822 -1.92538 
0.785407 0.296478 -1.88596 0.730525 0.309128 -1.86734 0.675735 0.319585 -1.85579 
0.620839 0.33213 -1.83714 0.565609 0.350842 -1.79715 0.510034 0.36981 -1.7495 
0.453099 0.375329 -1.70565 0.393164 0.348888 -1.67561 0.3322 0.308645 -1.65696 
0.272334 0.273989 -1.64766 0.214431 0.253655 -1.64255 0.15636 0.220765 -1.62602 
0.106758 0.181399 -1.59202 0.0715492 0.146934 -1.52835 0.0208565 0.122456 -1.43697 
-0.0402833 0.109572 -1.31054 -0.103656 0.105258 -1.15577 0.99411 -2.05076 -1.47018 
1.05135 -2.06264 -1.53531 1.10659 -2.07543 -1.56161 1.16105 -2.08554 -1.56554 
1.21416 -2.10317 -1.55955 1.26539 -2.13533 -1.54932 1.31815 -2.15272 -1.53569 
1.37081 -2.16801 -1.51496 1.42172 -2.19391 -1.48341 1.47471 -2.20955 -1.47028 
1.52892 -2.22159 -1.47365 1.58234 -2.2455 -1.48898 1.63404 -2.27989 -1.49352 
1.68861 -2.28616 -1.49086 1.74596 -2.26223 -1.47387 1.80135 -2.2447 -1.43187 
1.85542 -2.2345 -1.37999 1.90938 -2.22802 -1.33476 1.96377 -2.22409 -1.30421 
2.0194 -2.21055 -1.27647 2.07691 -2.17664 -1.23925 2.13379 -2.14756 -1.20062 
2.19187 -2.11798 -1.18528 2.24996 -2.10577 -1.21117 2.31035 -2.08168 -1.25596 
2.37154 -2.04551 -1.28885 2.43109 -2.00458 -1.27683 2.48845 -1.97181 -1.23928 
2.54745 -1.92635 -1.20544 2.60675 -1.88726 -1.19288 2.66441 -1.86679 -1.19031 
2.72282 -1.84339 -1.19632 2.7806 -1.8249 -1.20089 2.84024 -1.78814 -1.20309 
2.89912 -1.73738 -1.19398 2.94798 -1.67746 -1.16454 2.98171 -1.61362 -1.12876 
3.03048 -1.55359 -1.09936 3.08768 -1.50076 -1.09088 3.13687 -1.45117 -1.09701 
3.16933 -1.40173 -1.11107 3.2051 -1.35268 -1.12496 3.22572 -1.30188 -1.1396 
3.24624 -1.25107 -1.15424 3.27998 -1.20178 -1.16824 3.29858 -1.15075 -1.18297 
3.30727 -1.09858 -1.19819 3.31415 -1.04621 -1.2135 3.32092 -0.993817 -1.22881 
3.32769 -0.941427 -1.24413 3.1904 -0.814647 -1.70435 3.2418 -0.844797 -1.54991 
3.28851 -0.867402 -1.40356 -0.107201 -1.34703 -1.3849 -0.129545 -1.28932 -1.39449 
-0.14913 -1.22812 -1.38448 -0.187982 -1.16333 -1.33719 -0.242718 -1.09659 -1.24955 
5.44833 -1.41045 -1.28791 5.37971 -1.4146 -1.21821 5.32136 -1.40265 -1.15825 
5.26603 -1.38316 -1.11592 5.21248 -1.35727 -1.09345 5.16081 -1.31684 -1.07523 
5.10717 -1.28876 -1.04569 5.05231 -1.27009 -1.0134 4.99767 -1.2556 -0.99531 
4.94434 -1.23379 -0.987089 4.8929 -1.19745 -0.983106 4.83972 -1.17159 -0.968348 
4.78677 -1.14401 -0.954096 4.7366 -1.09202 -0.939257 4.68654 -1.03413 -0.910713 
4.63666 -0.986957 -0.871281 4.6005 -0.928686 -0.842641 5.59365 -1.45572 -1.29557 
5.65135 -1.45633 -1.24819 5.70859 -1.42589 -1.19966 5.76264 -1.41512 -1.14538 
5.81495 -1.42145 -1.0964 5.87108 -1.40691 -1.07667 5.92679 -1.40149 -1.06971 
5.98183 -1.40418 -1.06809 6.03789 -1.39899 -1.06877 6.09581 -1.37938 -1.07367 
6.15211 -1.37234 -1.07489 6.20853 -1.36138 -1.06955 6.26785 -1.3222 -1.05702 
6.3283 -1.26559 -1.02644 6.38864 -1.20678 -0.988775 6.44788 -1.15947 -0.955475 
6.50558 -1.13288 -0.939268 6.56524 -1.09601 -0.941494 6.62443 -1.05152 -0.953698 
6.67383 -1.00413 -0.966897 6.70628 -0.952618 -0.973843 6.74365 -0.897511 -0.966331 
6.77546 -0.835531 -0.937762 6.8221 -0.771097 -0.894242 6.86874 -0.706663 -0.850721 
6.90055 -0.64468 -0.822142 6.93803 -0.593744 -0.828852 6.96889 -0.552438 -0.871431 
7.00338 -0.519859 -0.942267 7.01078 -0.477935 -0.993106 6.99229 -0.418486 -0.995436 
3.29963 -0.350998 -1.54956 3.35463 -0.318982 -1.46548 3.40785 -0.291952 -1.35681 
6.8464 0.142771 -1.51027 6.83467 0.000372746 -1.60754 6.8797 -0.0413445 -1.53281 
6.91482 -0.0840015 -1.46568 6.9331 -0.126801 -1.40648 6.95458 -0.167889 -1.34002 
6.96091 -0.207234 -1.27428 6.96715 -0.24657 -1.20856 6.9866 -0.287426 -1.14219 
6.99059 -0.320269 -1.05525 3.3955 -0.79244 -1.0946 3.46799 -0.677907 -0.836568 
-0.381404 -0.894167 -0.963696 -0.429604 -0.789319 -0.80736 -0.452283 -0.686434 -0.662938 
-0.47662 -0.575455 -0.508048 -0.26883 -0.962946 -1.28926 -0.23971 -0.93329 -1.40566 
-0.246195 -0.896075 -1.48363 -0.248908 -0.850149 -1.5255 -0.243836 -0.799643 -1.54801 
-0.237282 -0.74515 -1.55622 -0.230831 -0.686489 -1.55022 -0.224701 -0.621557 -1.52291 
-0.218678 -0.554529 -1.48847 -0.212548 -0.489597 -1.46116 -0.206098 -0.430936 -1.45516 
-0.199541 -0.374364 -1.45626 -0.193197 -0.313611 -1.44315 -0.187494 -0.240316 -1.38741 
-0.182539 -0.152383 -1.28193 3.50459 -0.185368 -1.14733 3.52373 -0.107379 -1.06959 
3.53104 -0.0280306 -0.992437 3.53439 0.0538493 -0.908372 3.52592 0.135011 -0.831988 
[...]
POINT_DATA 697
SCALARS DY_raw double
LOOKUP_TABLE default
1848.49 1916.77 1932.38 1072.01 1476.76 1903.92 1723.95 1596.83 1276.16 
2058.08 2195.82 1290.67 1787.84 2033.65 2121.39 1884.5 1603.88 1721.03 
2405.67 2019.87 1298.5 3233.74 2009.11 1601.4 1096.76 2392.67 1094.29 
2073.26 2523.02 1560.52 1270.67 1523.17 1484.35 1728.91 1565.68 1477.45 
1278.12 1340.42 1624.19 1546.43 2008.07 2648.6 1227.94 2078.75 1572.29 
1382.05 1366.11 1412.76 1483.63 1563.86 1776.52 1831.08 1975.8 1928.32 
1752.71 1697.22 1500.3 1655.85 1759.21 1759.21 1778.32 1570.2 1671.77 
1698.42 1802.85 1607.78 1711.28 1749.17 1818.3 1803.31 1702.2 1582.99 
1565.02 1565.02 1581.15 1457.91 1516.61 1334.97 1429.91 1362.97 1199.07 
1266.6 1218.51 1213.22 1213.22 1231.68 1211.86 1211.86 1281.62 1233.57 
1313.14 1087.75 1227.13 1522.01 1600.05 1575.84 1669.26 1726.86 1743.1 
1913.77 1805.07 1649.78 1847.31 1750 1750 1774.42 1656.27 1711 
1628.92 1511.7 1511.7 1510.35 1728.14 1842.91 1712.11 1801.41 1776.96 
1776.96 1840.66 1753.71 1753.71 1623.75 1683.14 1463.69 1716.29 1646.41 
1869.33 1246.49 1462.22 1462.22 1490.36 1589.62 1238.58 1249.74 1286.69 
1315.04 1272.46 2145.2 1643.29 1465.32 1438.06 1288.06 1390.35 1375.58 
1382.67 1455.1 1223.17 1241.7 1261.35 1370.77 1448.04 1482.53 1611.06 
1643.61 1778.28 1913.29 2087.95 1428.46 1476.27 1559.17 1772.88 1772.88 
1808.67 1615.15 1693.62 1498.56 1645.34 1608.86 1746.69 1669.71 1918.8 
1828.48 1720.48 1720.48 1480.89 1302.32 1201.88 1218.27 1247.6 1169.72 
1246.39 1300.04 1300.04 1418.11 1418.11 1545.14 1543.95 1543.95 1491.21 
1423.4 1593.48 1520.37 1415.05 1387.6 1525.78 1532.29 1435.44 1362.15 
1640.86 1443.57 1324.92 1467.92 1321.33 1055.62 953.046 1128.16 978.788 
943.378 942.579 1021.25 1086.93 1044.98 1132.67 1084.36 1070.41 1077.46 
1048.93 1027.95 972.6 1107.12 1100.03 1267.75 1138.8 1138.8 1193.19 
1292.31 1342.18 1240.41 1338.01 1427.7 1601.44 1397.34 1422.4 1422.4 
1279.11 1279.11 1412.09 1427.81 1788.75 1752.14 1676.09 1821.21 1667.34 
1713.09 1612.27 1488.41 1294.9 1472.34 1700.78 1752.91 1921.65 1621.13 
1621.13 1504.28 1459.24 1427.14 1495.95 1638.52 1714.32 1623.99 1767.52 
1793.01 1790.11 1790.11 1784.42 1662.87 1662.87 1506.05 1506.05 1465.64 
1523.17 1337.6 1421.84 1421.8 1263.55 1263.55 1119.11 1183.03 1230.21 
1470.02 1621.88 1758.37 1636.96 1733.2 1583.28 1523.58 1649.12 1725.58 
1645.74 1645.74 1798.72 1738.12 1981.91 1873.23 1946.2 2002.72 1352.08 
1421.46 1456.29 1443.35 1441.16 1400.3 1489.34 1605.43 1539.09 1539.09 
1528.78 1339.97 1317.65 1353.2 1382.57 1475.1 1392.19 1352.97 1320.5 
1334.87 1334.33 1434.39 1403.78 1644.82 1659.48 1632.06 1707.87 1795.93 
1981.47 1862.91 2229.85 1618.06 1690.76 1586.31 2025.4 1413.3 1530.72 
1574.15 1767.77 1813.53 1764.05 1994.23 1985.37 1967.32 1624.93 1446.34 
1471.52 1448.86 1293.31 1272.21 1390.55 1301.97 1222.7 1363.85 1363.85 
1398.46 1398.46 1454.29 1412.61 1491.2 1355.01 1176.91 1176.91 1042.3 
1007.14 1645.26 1638.14 1611.29 1572.72 1788.12 1699.15 1892.71 1893.84 
1893.84 1714 1714 1631.2 1593.89 1777.44 2059.27 1980.63 1776.01 
1898.68 1619.07 1676.51 1621.57 1621.57 1830.54 1845.1 1845.1 1788.35 
1701.82 1739.36 1476.55 1320.72 1320.72 1217.61 1327.49 1327.49 1464.29 
1652.38 1539.68 1403.4 1403.4 1290.93 1167.69 1260.99 1216.5 1209.69 
1244.16 1431.13 1577.51 1603.03 1627.17 1758.5 1727.8 1737.78 1961.86 
1912.46 1884.62 2009.94 1930.62 1764.16 1698.44 1586.17 1475.69 1533.99 
1841.38 2210.47 2330.38 2197.86 2252.2 2227.21 2224.63 2224.63 2341.61 
2319.41 2291.53 2406.41 1059.27 1069.02 1172.48 1402.09 1417.79 1558.44 
1557.77 1475.48 1391.11 1365.48 1329.65 2422.2 2452.87 2714.61 2769.05 
2352.36 2218.93 2218.93 2101.72 2215.11 2371.61 2604.88 2695.2 2616.05 
2199.3 2027.67 1216.7 1212.52 1279.74 1506.01 1415.79 1434.24 1538.05 
1646.75 1775.49 1775.49 1847.84 1904.15 1814.82 1902.09 2001.96 2013.14 
1917.33 2265.4 1432.89 1564.39 1411.26 1391.9 1399.46 1417.9 1567.33 
1918.05 1780.31 2323.68 2178.87 2076.66 1901.5 2047.42 2056.87 1883.05 
1859.31 1759.51 2333.41 2253.41 2104.95 1990.63 1733.75 1838.29 1632.63 
1632.63 1600.69 1613.31 1598.91 2107.38 2254.57 2410.35 2416.82 2345.23 
2345.23 2116.05 2195.82 2194.27 2466.71 2487.39 2460.16 2466.96 2222.29 
1925.34 1737.93 1455.31 1287.05 1164.99 1171.15 1119.72 1102.09 1118.06 
1285.13 1395.74 1397.84 1516.51 1490.03 1565.85 1241.5 1263.48 1204.22 
1175.88 1158.85 1337.04 2042.5 1852.41 1783.45 1417.94 1465.71 1269.55 
1381.46 1220.14 1165.84 1589.48 1660.46 1749.4 2015.19 2138.02 2138.02 
2022.56 2127.39 2042.46 1774.79 1786.87 1699.93 1580.95 1709.5 1591.99 
1580.31 1690.85 1399.68 1487.87 1442.73 1306.34 1406.47 1393.47 1392.29 
1464.5 1448.49 1412.39 1469.01 1684.42 1820.3 1300.44 1242.33 1363.91 
1363.91 1368 1368 1503.12 1413.2 1413.2 1366.08 1535.27 1517.45 
1408.36 1228.22 1424.29 1436.77 1616.23 1754.98 1692.49 1692.49 1618.68 
1873.4 1621.25 1776.61 1649.1 1721.04 1557.6 1554.9 1482.57 1354.94 
1454.84 1478.66 1546.71 1576.89 1832.45 2041.33 2038.44 2038.44 1631.71 
1540.54 1697.72 1721.79 1758.98 1870.15 1698.49 1723.88 1699.23 1690.51 
1279.78 1384.26 1224.72 1270.8 1364.94 1566.56 1551.61 1551.61 1488.45 
1663.42 1577.25 1503.66 1503.66 1685.21 1633.78 1816.62 1809.11 1823.11 
1476.76 1491.7 1346.89 1472.08 1484.13 1481.77 1687.74 1218.23 1279.68 
1354.96 1531.7 1610.6 1699.25 1808.09 1835.9 1835.9 1911.36 1779.26 
1597.45 1597.45 1584.9 1606.94 1659.71 1775.19 1961.77 1961.77 1990.16 
1886.85 1845.97 1685.21 1685.21 1583.42 1609.15 1598.53 1655.13 1738.57 
1932.38 1660.84 1788.97 1788.97 1681.55 1727.92 1727.92 1785.14 1785.14 
1764.67 1911.18 2005.62 1866.75 
FIELD FieldData 7
DY_minmax 1 697 double
0.395392 0.425195 0.432007 0.0564897 0.233146 0.419586 0.341037 0.285554 0.145595 
0.486872 0.54699 0.151927 0.368923 0.476208 0.514503 0.411111 0.28863 0.339764 
0.638582 0.470192 0.155345 1 0.465496 0.287549 0.0672951 0.632907 0.0662155 
0.493498 0.689798 0.269707 0.143198 0.253402 0.236461 0.343202 0.271959 0.233451 
0.146449 0.173642 0.297496 0.263557 0.465043 0.744609 0.124549 0.495892 0.274842 
0.191812 0.184856 0.205214 0.236149 0.271165 0.363982 0.387795 0.450961 0.430236 
0.353589 0.32937 0.243423 0.311312 0.356425 0.356425 0.364769 0.273931 0.318263 
0.329894 0.375473 0.290331 0.335506 0.352045 0.382216 0.375674 0.331546 0.279513 
0.271671 0.271671 0.278711 0.224919 0.250543 0.171261 0.212701 0.183482 0.111947 
0.141421 0.120432 0.118122 0.118122 0.12618 0.117531 0.117531 0.147979 0.127006 
0.161733 0.0633628 0.124196 0.252898 0.286959 0.276392 0.317166 0.342307 0.349395 
0.423887 0.376443 0.308666 0.394881 0.352405 0.352405 0.363066 0.311497 0.335384 
0.299562 0.248399 0.248399 0.247809 0.342865 0.392957 0.335871 0.374846 0.364172 
0.364172 0.391976 0.354027 0.354027 0.297304 0.323226 0.227445 0.337692 0.307195 
0.40449 0.132644 0.226803 0.226803 0.239083 0.282408 0.129194 0.134062 0.150192 
0.162565 0.14398 0.524895 0.305832 0.228154 0.216259 0.150787 0.195433 0.188989 
0.192083 0.223695 0.122468 0.130555 0.139132 0.18689 0.220613 0.235668 0.291765 
0.305971 0.364752 0.423677 0.49991 0.212069 0.232933 0.269116 0.362394 0.362394 
0.378012 0.29355 0.327801 0.242665 0.306726 0.290806 0.35096 0.317363 0.426082 
0.386662 0.339521 0.339521 0.234952 0.157015 0.113176 0.120326 0.133128 0.0991397 
0.132602 0.156017 0.156017 0.207552 0.207552 0.262993 0.262474 0.262474 0.239455 
0.209858 0.284094 0.252182 0.206213 0.194236 0.254545 0.257385 0.215114 0.183127 
0.304773 0.218662 0.166878 0.229292 0.165311 0.0493382 0.00456822 0.0809998 0.0158037 
0.000348743 0 0.0343366 0.0630031 0.0446954 0.0829662 0.0618821 0.0557918 0.0588702 
0.0464161 0.0372626 0.0131029 0.0718175 0.0687216 0.141923 0.085642 0.085642 0.109383 
0.152644 0.174408 0.12999 0.172588 0.211734 0.287568 0.198485 0.209421 0.209421 
0.146884 0.146884 0.204924 0.211784 0.369322 0.35334 0.320146 0.383486 0.316329 
0.336296 0.292295 0.238232 0.153774 0.231217 0.330926 0.353676 0.427323 0.296159 
0.296159 0.245161 0.2255 0.21149 0.241525 0.303752 0.336834 0.297408 0.360053 
0.371179 0.369912 0.369912 0.367428 0.314378 0.314378 0.245934 0.245934 0.228293 
0.253402 0.172412 0.209178 0.209159 0.140092 0.140092 0.0770501 0.104948 0.125538 
0.230207 0.296487 0.356061 0.30307 0.345075 0.279638 0.253583 0.308377 0.341749 
0.306901 0.306901 0.37367 0.347223 0.453624 0.406193 0.438039 0.462711 0.178732 
0.209012 0.224215 0.218568 0.217612 0.199777 0.23864 0.289307 0.260354 0.260354 
0.255855 0.173444 0.163702 0.17922 0.192039 0.232422 0.196235 0.179117 0.164947 
0.171218 0.170982 0.214657 0.201295 0.306502 0.3129 0.300931 0.334017 0.372453 
0.453433 0.401689 0.561841 0.294821 0.32655 0.280963 0.472606 0.205452 0.256701 
0.275657 0.360161 0.380136 0.358538 0.459005 0.455137 0.447258 0.297819 0.21987 
0.23086 0.220973 0.153078 0.14387 0.195522 0.156859 0.122263 0.183867 0.183867 
0.198976 0.198976 0.223341 0.20515 0.239452 0.18001 0.102274 0.102274 0.0435228 
0.0281795 0.306691 0.303584 0.291866 0.27503 0.369047 0.330213 0.414695 0.415187 
0.415187 0.336693 0.336693 0.300555 0.284273 0.364385 0.48739 0.453067 0.363759 
0.417298 0.295261 0.32033 0.296352 0.296352 0.38756 0.393914 0.393914 0.369143 
0.331379 0.347765 0.233058 0.165044 0.165044 0.120042 0.167996 0.167996 0.227705 
0.3098 0.260612 0.201129 0.201129 0.152043 0.0982509 0.138972 0.119554 0.116585 
0.13163 0.213232 0.277123 0.28826 0.298796 0.356117 0.342719 0.347073 0.444875 
0.423315 0.411164 0.465861 0.43124 0.358588 0.329902 0.280899 0.232682 0.258129 
0.392291 0.553384 0.605721 0.547878 0.571595 0.560691 0.559562 0.559562 0.610619 
0.600933 0.588761 0.638904 0.0509301 0.0551851 0.100342 0.200557 0.207412 0.2688 
0.268506 0.232588 0.195767 0.18458 0.16894 0.645793 0.659181 0.773418 0.79718 
0.615311 0.557077 0.557077 0.50592 0.555411 0.623714 0.725527 0.764948 0.730404 
0.548509 0.473598 0.119642 0.117818 0.147156 0.245916 0.206539 0.214591 0.2599 
0.307344 0.363533 0.363533 0.395111 0.419687 0.380697 0.41879 0.462376 0.467258 
0.42544 0.577357 0.214001 0.271395 0.204559 0.196109 0.199408 0.20746 0.272679 
0.425756 0.365634 0.602796 0.539591 0.494979 0.418529 0.482219 0.486344 0.410478 
0.400118 0.356556 0.607042 0.572125 0.507327 0.45743 0.345314 0.390943 0.301178 
0.301178 0.28724 0.292745 0.286463 0.508389 0.572632 0.640623 0.643448 0.612202 
0.612202 0.512172 0.54699 0.546314 0.665223 0.67425 0.662362 0.665329 0.558541 
0.428937 0.347141 0.223785 0.150347 0.0970747 0.0997608 0.0773151 0.0696207 0.0765894 
0.14951 0.197788 0.198702 0.250496 0.238939 0.272032 0.130468 0.14006 0.114197 
0.101825 0.0943956 0.172165 0.480072 0.397103 0.367006 0.207476 0.228324 0.142708 
0.191554 0.121143 0.0974463 0.282348 0.313327 0.352144 0.468151 0.521763 0.521763 
0.471367 0.517121 0.480053 0.363228 0.368501 0.330551 0.278624 0.334729 0.283441 
0.278345 0.326592 0.199506 0.238 0.218294 0.158768 0.202471 0.196794 0.19628 
0.227798 0.220809 0.205054 0.229768 0.323784 0.383089 0.156193 0.130831 0.183896 
0.183896 0.185681 0.185681 0.244652 0.205406 0.205406 0.184842 0.258686 0.250907 
0.203294 0.124672 0.210246 0.215693 0.294019 0.354579 0.327308 0.327308 0.295089 
0.406267 0.296214 0.364021 0.30837 0.339767 0.268433 0.267255 0.235686 0.17998 
0.223583 0.233976 0.263681 0.27685 0.388392 0.47956 0.4783 0.4783 0.300777 
0.260987 0.329587 0.340093 0.356325 0.404849 0.329927 0.341005 0.33025 0.326441 
0.147176 0.192778 0.123143 0.143253 0.184344 0.272342 0.265818 0.265818 0.238252 
0.314619 0.277009 0.244891 0.244891 0.324128 0.301681 0.381483 0.378207 0.384318 
0.233146 0.239667 0.176467 0.231107 0.236366 0.235335 0.325231 0.120311 0.147131 
0.179987 0.257129 0.291565 0.330256 0.377759 0.389897 0.389897 0.422833 0.365179 
0.285826 0.285826 0.280347 0.289966 0.312999 0.363403 0.444838 0.444838 0.457228 
0.412138 0.394294 0.32413 0.32413 0.279701 0.29093 0.286297 0.310999 0.347416 
0.432007 0.313494 0.369415 0.369415 0.322529 0.342771 0.342771 0.367745 0.367745 
0.358809 0.422755 0.463974 0.403363 
WidthEq 1 697 double
1.93382 1.84522 2.25301 2.58426 2.19065 1.82038 2.75565 2.26045 3.67455 
2.96221 2.67784 4.49257 3.8491 1.94207 2.18174 2.42789 4.05614 3.89236 
2.22948 2.70881 4.48518 1 3.22568 3.70839 5.58262 4.19214 5.23298 
3.50916 3.26808 4.53031 4.72745 5.02803 5.65017 4.14098 4.2996 2.18328 
3.97806 2.62911 3.28123 4.33689 3.34959 2.59299 4.37671 2.93476 2.78841 
3.27015 3.87859 2.34353 2.38741 3.06574 3.53343 3.77405 3.81051 3.78585 
3.97703 4.06922 3.829 3.58739 3.29389 3.29389 3.28198 3.67762 3.58013 
3.80751 3.63983 3.71395 3.63292 3.49672 3.43523 3.41253 3.41622 3.3546 
3.20878 3.20878 3.08958 3.18811 3.1927 3.39705 3.44666 3.54483 4.24114 
4.20355 4.51194 4.52378 4.52378 4.14851 3.92388 3.92388 3.81329 3.8778 
3.82333 4.2054 4.33155 4.18994 3.94489 3.85086 3.43693 3.14882 3.16325 
3.08248 3.0598 3.34642 3.22857 3.34873 3.34873 3.34088 3.43054 3.4357 
3.52396 3.63323 3.63323 3.67715 3.48796 3.42319 3.49376 3.5391 3.61514 
3.61514 3.57638 3.77464 3.77464 4.00352 4.25614 4.47801 4.45207 5.10171 
3.19634 4.48046 3.92935 3.92935 3.71766 3.36956 4.47256 4.2857 4.13033 
4.13472 4.08435 3.24522 4.10809 4.49316 4.6162 4.73438 4.71675 4.66665 
4.32376 4.07363 5.15733 5.21021 5.01932 4.48165 4.17454 3.83531 3.7337 
3.73648 3.79681 3.99344 3.9262 3.58461 3.71753 4.06851 3.03726 3.03726 
3.01028 3.3015 3.33775 4.15947 4.20719 3.06051 2.85179 2.80193 2.67003 
2.8183 3.28994 3.28994 3.74993 4.20556 4.27706 4.26797 4.13331 4.10143 
3.80288 3.64914 3.64914 3.47066 3.47066 3.29451 3.28204 3.28204 3.33828 
3.34704 3.22325 3.28712 3.39541 3.40327 3.21723 3.17862 3.11365 3.09011 
2.93267 3.1208 3.2769 3.264 3.51348 4.02693 4.26761 3.96798 4.38924 
4.48006 4.56839 4.488 4.28056 4.14727 4.03412 3.85686 3.6252 3.46972 
3.47931 3.87791 4.40121 4.49555 5.20306 3.47395 3.7915 3.7915 3.7391 
3.53151 3.35513 3.36065 3.19726 2.95693 2.82666 2.66734 2.22855 2.22855 
2.0829 2.0829 1.95193 2.02892 2.01617 2.1944 2.62108 2.52591 2.99664 
2.85642 3.15413 3.23567 3.32092 3.21688 2.90906 2.79229 2.6491 2.9395 
2.9395 3.19332 3.42884 3.62269 3.6753 3.46817 3.39963 3.52895 3.37441 
3.17973 3.16494 3.16494 3.28006 3.63257 3.63257 4.34209 4.34209 4.66952 
5.02803 4.19188 4.42617 4.94711 3.86895 3.86895 4.69436 4.85843 4.82796 
4.14054 3.89827 3.70286 3.96801 3.87685 4.12428 4.21811 4.06198 3.87881 
3.82805 3.82805 3.44545 3.41834 3.25793 3.37688 3.46038 3.58734 4.33305 
4.29519 4.28899 4.31456 4.23794 4.27447 4.06037 4.18091 4.16227 4.16227 
4.32405 4.30375 4.54633 4.40794 4.03509 4.08224 4.3415 4.53726 4.70049 
4.64168 4.46751 4.45068 4.42385 4.08255 4.37309 4.68893 4.63638 4.28592 
4.47856 4.55154 4.38537 4.08248 4.13962 4.41439 4.4783 6.11894 6.15175 
5.94104 5.55001 5.53788 5.60219 5.02344 5.06339 5.03763 4.59705 4.50733 
4.23349 4.18623 4.59906 4.79743 4.27022 3.97226 3.60987 3.27911 3.27911 
3.25142 3.25142 3.31785 3.41642 3.39021 3.53138 3.89406 3.89406 4.54865 
5.20022 4.42844 3.79972 3.96593 3.27525 2.82009 2.95479 2.50142 2.38335 
2.38335 2.59403 2.59403 2.84069 3.2021 3.12466 2.88129 2.8635 3.0107 
2.77994 2.96518 2.8048 3.251 3.251 3.16373 3.05418 3.05418 3.00366 
2.78828 2.90467 3.08784 3.23117 3.23117 3.37627 3.42979 3.42979 3.4385 
3.24046 3.56114 3.87694 3.87694 4.19638 4.91777 4.83848 5.26293 5.52215 
5.42259 4.6346 4.7096 4.39885 4.34432 3.75536 3.96895 4.06207 3.85375 
3.99664 4.0118 3.70583 3.59864 3.64907 3.53093 3.58867 4.20227 4.49733 
4.05279 3.18332 2.51316 2.15392 2.07467 2.07342 2.21392 2.21392 2.29436 
2.34267 2.35906 2.27618 5.68571 5.37026 4.60634 3.51717 3.32275 3.03982 
3.14187 3.21694 3.90132 4.23554 4.48626 4.24467 3.90617 3.40558 3.12115 
3.50539 3.23106 3.23106 2.76946 2.30861 2.06073 1.89693 1.94094 2.36345 
2.9694 3.24262 5.19508 5.19093 4.63007 4.2891 4.25372 4.07154 3.48783 
3.3563 2.91711 2.91711 2.8114 2.774 3.11167 3.07136 3.13002 2.66758 
2.50182 1.89532 3.70943 3.08023 2.97189 2.85728 2.8307 2.7234 2.66996 
3.08778 3.72125 2.12343 2.0439 1.95652 2.2554 2.21447 2.43958 2.9519 
3.24267 3.62317 2.30247 2.28022 2.33415 2.40146 2.70712 2.9232 4.11495 
4.11495 4.16931 4.06055 4.07363 3.04546 2.85155 2.61995 2.45205 2.49555 
2.49555 2.73522 2.67784 2.27276 2.13812 2.16773 2.34604 2.35763 2.59227 
2.45498 2.61777 3.3484 3.8209 4.14912 4.09177 4.08246 3.92027 3.66632 
3.3728 2.93103 2.85254 2.6569 2.89454 2.91892 4.00121 4.0388 4.26578 
4.2276 4.27977 4.23898 2.89876 2.88918 2.71501 2.86646 2.97485 3.23183 
3.40519 3.79695 3.87264 4.0093 3.64358 3.0829 2.4933 2.38463 2.38463 
2.42136 2.33543 2.4229 2.67941 2.70727 3.67643 3.98025 3.4212 3.11981 
2.98815 2.77762 3.13578 2.9547 2.95391 2.97213 2.96666 2.85971 2.81034 
2.71715 2.55957 2.51166 2.35465 2.06289 1.9341 4.38052 3.92695 3.27772 
3.27772 2.82218 2.82218 2.3027 2.32535 2.32535 2.42535 2.11604 2.22045 
2.47221 2.54069 2.25535 2.30759 2.07117 1.87467 1.9054 1.9054 1.88923 
1.67365 1.86015 1.82073 1.90469 1.89208 2.01683 2.01824 2.02003 2.04847 
1.96995 1.8851 1.74462 1.67122 1.45955 1.49158 1.6044 1.6044 2.79419 
3.48886 3.24463 3.07414 2.8258 2.60043 2.65496 2.70621 2.66774 2.76127 
2.58713 2.4447 2.68267 2.5954 2.45229 2.2475 2.20587 2.20587 2.13911 
2.06536 2.00028 2.03287 2.03287 1.89794 1.94138 1.80002 1.90381 1.9294 
2.19065 2.12504 2.17512 2.1497 2.15773 2.21439 2.04313 2.72843 2.69163 
2.57457 2.17062 2.136 1.97125 1.79653 1.76604 1.76604 1.7301 1.93395 
2.12892 2.12892 2.04738 1.96505 1.94582 1.82547 1.69165 1.69165 1.63317 
1.70551 1.70293 1.70734 1.70734 1.74482 1.84952 1.98341 2.0176 2.01162 
2.25301 2.5939 2.33248 2.33248 2.33466 2.20907 2.20907 2.10097 2.10097 
2.04787 1.86783 1.76851 1.89801 
rRFP 1 697 double
3120.51 3080.35 3265.2 3415.35 3236.93 3069.09 3493.04 3268.57 3909.57 
3586.67 3457.77 4280.37 3988.69 3124.25 3232.89 3344.47 4082.54 4008.3 
3254.53 3471.81 4277.02 2697.22 3706.1 3924.91 4774.48 4144.19 4615.99 
3834.6 3725.32 4297.48 4386.84 4523.09 4805.1 4121 4192.9 3233.59 
4047.15 3435.68 3731.28 4209.8 3762.27 3419.31 4227.85 3574.23 3507.89 
3726.26 4002.06 3306.23 3326.12 3633.6 3845.6 3954.67 3971.2 3960.02 
4046.68 4088.47 3979.58 3870.06 3737.02 3737.02 3731.62 3910.96 3866.77 
3969.84 3893.83 3927.43 3890.7 3828.96 3801.09 3790.8 3792.47 3764.54 
3698.44 3698.44 3644.41 3689.07 3691.15 3783.78 3806.27 3850.77 4166.4 
4149.36 4289.15 4294.52 4294.52 4124.41 4022.59 4022.59 3972.46 4001.7 
3977.01 4150.2 4207.38 4143.19 4032.11 3989.49 3801.86 3671.26 3677.8 
3641.19 3630.91 3760.83 3707.41 3761.88 3761.88 3758.32 3798.96 3801.3 
3841.31 3890.84 3890.84 3910.75 3824.99 3795.63 3827.62 3848.17 3882.64 
3882.64 3865.07 3954.94 3954.94 4058.69 4173.2 4273.77 4262.01 4556.49 
3692.8 4274.88 4025.07 4025.07 3929.11 3771.32 4271.3 4186.6 4116.17 
4118.16 4095.33 3714.96 4106.09 4280.64 4336.41 4389.98 4381.99 4359.28 
4203.85 4090.47 4581.7 4605.67 4519.14 4275.42 4136.21 3982.44 3936.38 
3937.64 3964.99 4054.12 4023.64 3868.8 3929.05 4088.15 3620.69 3620.69 
3608.46 3740.47 3756.9 4129.38 4151.01 3631.23 3536.62 3514.02 3454.23 
3521.44 3735.23 3735.23 3943.74 4150.27 4182.68 4178.56 4117.52 4103.07 
3967.74 3898.05 3898.05 3817.15 3817.15 3737.3 3731.65 3731.65 3757.14 
3761.11 3705 3733.95 3783.04 3786.6 3702.27 3684.77 3655.32 3644.65 
3573.28 3658.56 3729.32 3723.47 3836.56 4069.3 4178.4 4042.58 4233.53 
4274.7 4314.74 4278.3 4184.27 4123.85 4072.56 3992.21 3887.2 3816.72 
3821.07 4001.75 4238.96 4281.72 4602.43 3818.64 3962.58 3962.58 3938.83 
3844.73 3764.78 3767.28 3693.22 3584.28 3525.23 3453.01 3254.11 3254.11 
3188.09 3188.09 3128.72 3163.62 3157.84 3238.63 3432.04 3388.9 3602.28 
3538.72 3673.67 3710.63 3749.27 3702.11 3562.58 3509.65 3444.74 3576.38 
3576.38 3691.43 3798.19 3886.06 3909.91 3816.02 3784.95 3843.57 3773.52 
3685.27 3678.57 3678.57 3730.75 3890.54 3890.54 4212.16 4212.16 4360.58 
4523.09 4144.07 4250.27 4486.41 3997.69 3997.69 4371.84 4446.21 4432.4 
4120.8 4010.98 3922.4 4042.59 4001.27 4113.43 4155.96 4085.19 4002.16 
3979.15 3979.15 3805.72 3793.43 3720.72 3774.64 3812.49 3870.04 4208.06 
4190.9 4188.09 4199.68 4164.95 4181.51 4084.46 4139.1 4130.65 4130.65 