# vtk DataFile Version 3.0
vtk output
ASCII
DATASET POLYDATA
POINTS 468 float
4.7518 -0.671172 2.10381 3.89394 -0.569434 1.99094 5.14869 -0.344914 1.90159 
5.44094 -0.245188 1.84214 5.28756 -0.498422 1.85058 4.966 -0.924443 1.86183 
5.24933 0.464978 1.38849 0.535305 -0.50233 1.02881 4.22879 -1.28676 1.24813 
5.53586 -0.583872 0.931244 5.30669 0.00679365 0.353636 -0.163924 0.423775 0.337792 
2.12495 -1.42116 0.557107 -0.448868 0.405646 -0.00861456 2.0681 -1.34587 0.349261 
3.50674 -0.878091 0.387219 2.05171 0.683931 0.0233219 2.8535 -0.37801 0.0253656 
3.73594 -0.999108 0.204679 -0.728523 -0.197587 -0.252006 0.0206221 -1.28108 -0.150783 
4.21618 -0.174741 -0.0242554 5.11675 0.0929246 0.00105014 5.08518 -0.686755 0.0474437 
4.85486 -0.929365 0.0516613 3.84025 0.140621 -0.261625 4.66436 0.144428 -0.223667 
4.79654 -0.0306308 -0.206796 5.10429 -0.0731264 -0.189926 4.92871 -0.20569 -0.189926 
1.54039 0.99606 -0.621305 2.499 -1.46019 -0.626706 -0.844941 -0.499781 -1.04122 
1.57276 0.740214 -1.13901 1.76476 0.607607 -1.38943 -0.374703 -1.21387 -1.37677 
2.17557 -1.76204 -1.22494 1.39374 -1.82185 -1.45809 -0.0190018 -0.315831 -2.01718 
1.05504 0.269734 -2.20394 0.967249 0.203452 -2.20394 0.747152 -0.600361 -2.36539 
1.63476 -0.224264 -2.54793 1.67605 -0.252555 -2.4477 1.7373 -0.268614 -2.37702 
1.80164 -0.285902 -2.34326 1.85466 -0.313166 -2.32426 1.91145 -0.336861 -2.29789 
1.96164 -0.363409 -2.24937 2.01698 -0.385357 -2.19344 2.06674 -0.411517 -2.13753 
2.12089 -0.435082 -2.089 2.16113 -0.468424 -2.03308 2.19332 -0.507852 -1.97716 
2.2244 -0.548831 -1.92863 2.25642 -0.591236 -1.90226 2.28912 -0.634547 -1.89065 
2.32182 -0.677858 -1.87905 2.35383 -0.720263 -1.85268 2.38457 -0.760789 -1.79676 
2.41573 -0.798857 -1.71868 2.45418 -0.83 -1.62585 2.50541 -0.852913 -1.54777 
2.54532 -0.885803 -1.48446 2.57901 -0.923835 -1.42857 2.61747 -0.951422 -1.3508 
2.66292 -0.943509 -1.24516 2.69149 -0.893467 -1.12062 2.7232 -0.844363 -0.98843 
2.7599 -0.801694 -0.855625 2.79907 -0.762302 -0.729925 2.84459 -0.731314 -0.610858 
2.89873 -0.711743 -0.505534 2.93622 -0.670305 -0.398612 2.94722 -0.596988 -0.283743 
2.92567 -0.50017 -0.138375 0.714105 -0.560158 -2.40654 0.670684 -0.525651 -2.42553 
0.606182 -0.504927 -2.42236 0.540907 -0.483363 -2.40442 0.49449 -0.448272 -2.39387 
0.447985 -0.413248 -2.38331 0.381082 -0.392912 -2.36537 0.303719 -0.378339 -2.32528 
0.224132 -0.364023 -2.27041 0.143771 -0.348865 -2.20077 0.0627268 -0.332801 -2.11636 
1.01114 0.236593 -2.20394 -0.039356 -0.262485 -2.0214 -0.0411946 -0.195161 -2.02562 
-0.0433754 -0.127382 -2.02245 -0.0651865 -0.0722897 -1.99712 -0.0901608 -0.0160278 -1.93488 
-0.105962 0.0500082 -1.84308 -0.133942 0.106849 -1.75128 -0.168525 0.155856 -1.68903 
-0.202938 0.201434 -1.66371 -0.238228 0.244789 -1.65314 -0.282213 0.279878 -1.63505 
-0.341736 0.290605 -1.59389 -0.395951 0.274519 -1.5434 -0.450203 0.255281 -1.50017 
-0.511453 0.245128 -1.4801 -0.562851 0.221925 -1.47362 -0.607839 0.190232 -1.47376 
-0.650639 0.155643 -1.47362 -0.687306 0.11293 -1.4727 -0.713771 0.0567052 -1.47047 
-0.743276 0.00450664 -1.46864 -0.768515 -0.0533415 -1.46626 -0.796707 -0.107097 -1.46426 
-0.813245 -0.173267 -1.46097 -0.816085 -0.241001 -1.44951 -0.806759 -0.299688 -1.41576 
-0.811519 -0.364878 -1.33769 -0.826648 -0.432914 -1.20791 -0.0382396 -0.381628 -2.01404 
-0.0665854 -0.435363 -2.01205 -0.0918249 -0.493211 -2.00967 -0.121606 -0.545043 -2.00044 
-0.147939 -0.601444 -1.97591 -0.179431 -0.65101 -1.92976 -0.207067 -0.705684 -1.87567 
-0.237808 -0.756245 -1.82199 -0.2591 -0.819323 -1.77453 -0.280673 -0.882027 -1.71968 
-0.310249 -0.934131 -1.66584 -0.330657 -0.998378 -1.61084 -0.345063 -1.07057 -1.55507 
-0.359403 -1.14286 -1.47701 1.32642 -1.82396 -1.46108 1.27413 -1.84599 -1.46215 
1.22785 -1.87597 -1.46246 1.17639 -1.89909 -1.45599 1.11514 -1.90924 -1.43592 
1.0608 -1.92854 -1.39268 1.00495 -1.94586 -1.3422 0.934014 -1.94318 -1.29364 
0.857409 -1.93299 -1.25325 0.785303 -1.92877 -1.20485 0.721897 -1.93607 -1.1479 
0.649128 -1.93078 -1.08473 0.571898 -1.91638 -1.02233 0.503692 -1.89432 -0.974839 
0.456845 -1.85884 -0.956902 0.412139 -1.82602 -0.983274 0.349945 -1.80854 -1.03181 
0.287838 -1.79099 -1.08034 0.244673 -1.757 -1.10671 0.208715 -1.71615 -1.11832 
0.164523 -1.6808 -1.12253 0.100363 -1.66053 -1.12675 0.0362029 -1.64026 -1.13097 
-0.00790153 -1.60484 -1.13519 -0.0426609 -1.56237 -1.1394 -0.0773321 -1.51984 -1.14362 
-0.119888 -1.48326 -1.14784 -0.174544 -1.45581 -1.15206 -0.2171 -1.41923 -1.15627 
-0.251683 -1.37663 -1.16049 -0.284472 -1.33338 -1.1721 -0.316146 -1.29143 -1.20586 
-0.346109 -1.25174 -1.27654 2.19296 -1.69379 -1.16146 2.22544 -1.64554 -1.09606 
2.26503 -1.6067 -1.02974 2.30544 -1.56893 -0.955894 2.34563 -1.53089 -0.874636 
2.38665 -1.49394 -0.785861 2.4351 -1.46684 -0.703548 -0.446318 -1.18713 -1.25543 
-0.505411 -1.15165 -1.14149 -0.566479 -1.11908 -1.0423 -0.613572 -1.07667 -0.950512 
-0.651499 -1.02947 -0.880868 -0.685135 -0.981883 -0.840777 -0.708665 -0.930936 -0.844994 
-0.717964 -0.873513 -0.893521 -0.736865 -0.825478 -0.964212 -0.755767 -0.777441 -1.03489 
-0.76575 -0.719112 -1.06865 -0.789192 -0.668098 -1.07287 -0.820093 -0.620582 -1.05493 
-0.842672 -0.567492 -1.04439 1.72629 0.653808 -1.34452 1.66884 0.69923 -1.26082 
1.50432 0.76115 -1.27224 1.43205 0.773241 -1.35805 1.35614 0.783824 -1.37955 
1.27915 0.797783 -1.34931 1.2094 0.818675 -1.30182 1.15318 0.8468 -1.26158 
1.09189 0.856474 -1.24273 1.03242 0.847174 -1.23748 0.962452 0.848745 -1.23339 
0.886807 0.857657 -1.21515 0.814708 0.861874 -1.16675 0.750269 0.855944 -1.08765 
0.675425 0.863795 -0.980164 0.59533 0.878601 -0.865915 0.521237 0.885458 -0.773185 
0.459675 0.875717 -0.730869 0.397811 0.866378 -0.748016 0.341516 0.849661 -0.79418 
0.281087 0.83842 -0.840862 0.223831 0.822977 -0.864853 0.162784 0.812554 -0.874474 
0.110161 0.790975 -0.868157 0.0569129 0.770223 -0.847065 -0.00536358 0.761429 -0.80484 
-0.0588151 0.740947 -0.754047 -0.105988 0.712149 -0.709894 -0.152201 0.682079 -0.687904 
-0.20504 0.660787 -0.674182 -0.272226 0.658495 -0.65487 -0.334713 0.64998 -0.60524 
-0.373314 0.609762 -0.520362 -0.408538 0.564009 -0.390407 -0.43269 0.497054 -0.216543 
1.5991 0.814604 -0.95167 1.60085 0.888043 -0.800077 1.5753 0.946202 -0.69587 
-0.895877 -0.470471 -0.874501 -0.897531 -0.422991 -0.728905 -0.88621 -0.353495 -0.606354 
-0.863605 -0.292506 -0.505034 -0.816224 -0.263984 -0.408014 -0.770154 -0.233726 -0.326006 
5.19013 -0.0477219 0.0794795 4.89437 -0.160214 -0.194308 4.853 -0.105421 -0.199589 
5.02708 -0.0657138 -0.253394 4.93075 -0.0524127 -0.258674 5.11034 0.0101258 -0.0907488 
4.8714 0.026194 -0.177097 4.93153 0.0608334 -0.131865 4.99215 0.075214 -0.0779257 
5.04956 0.0906269 -0.0316399 4.72598 -0.0931589 -0.302813 4.67369 -0.13819 -0.361907 
4.62735 -0.171478 -0.369433 4.57443 -0.192846 -0.333434 4.51065 -0.19965 -0.283959 
4.44881 -0.209016 -0.234247 4.3767 -0.204792 -0.185845 4.2975 -0.19117 -0.116063 
4.74007 0.0441591 -0.214004 4.6987 0.0989526 -0.219284 3.90877 0.140959 -0.25847 
3.96784 0.1508 -0.256337 4.02801 0.142412 -0.253033 4.08056 0.115784 -0.248964 
4.13677 0.0896467 -0.244755 4.17898 0.0535181 -0.233149 4.21091 0.0110473 -0.206777 
4.23085 -0.0383436 -0.15825 4.2284 -0.103211 -0.0949469 4.89752 -0.894601 0.0515049 
4.93426 -0.851975 0.0505908 4.96188 -0.797286 0.0485142 4.99861 -0.75466 0.0476001 
5.04135 -0.719984 0.0474521 5.18717 0.0859864 0.167719 4.17674 -0.213775 -0.120272 
4.13586 -0.250908 -0.186744 4.09211 -0.284239 -0.216443 4.04017 -0.306725 -0.224902 
3.97162 -0.307209 -0.228049 3.89597 -0.298296 -0.232102 3.81992 -0.288842 -0.228775 
3.74912 -0.286351 -0.209923 3.68646 -0.294628 -0.167748 3.61545 -0.291859 -0.119195 
3.54478 -0.289544 -0.0780412 3.48321 -0.299268 -0.0580121 3.41426 -0.299219 -0.0537786 
3.34536 -0.29925 -0.0495377 3.28524 -0.310891 -0.0367558 3.22166 -0.317965 -0.0169824 
3.16257 -0.331327 -0.00774773 3.09535 -0.340356 -0.00288703 3.00599 -0.359269 0.00527561 
0.0656775 -1.30225 -0.0062403 0.0754138 -1.35365 0.101372 0.0869628 -1.4071 0.172055 
0.138848 -1.43053 0.213047 0.202826 -1.43078 0.245744 0.255144 -1.40914 0.269127 
0.307287 -1.38693 0.299897 0.373844 -1.38381 0.347361 0.447094 -1.38954 0.403121 
0.520752 -1.39583 0.451491 0.589093 -1.39506 0.484329 0.647172 -1.38071 0.515858 
0.706501 -1.36801 0.562399 0.755293 -1.34136 0.615037 0.799518 -1.30866 0.659651 
0.85037 -1.28473 0.690256 0.91516 -1.27927 0.722641 0.97333 -1.26503 0.769034 
1.00805 -1.21974 0.819877 1.05118 -1.18559 0.86435 1.11037 -1.17271 0.888589 
1.16825 -1.1581 0.897806 1.23074 -1.14958 0.900178 1.28902 -1.13549 0.902015 
1.35034 -1.12544 0.90424 1.40146 -1.10187 0.905162 1.44652 -1.07026 0.90531 
1.49048 -1.03721 0.905318 1.53437 -1.00407 0.905318 1.57827 -0.970927 0.905318 
1.62216 -0.937786 0.905318 1.66605 -0.904645 0.905318 1.70995 -0.871504 0.905318 
1.75384 -0.838363 0.905318 1.7978 -0.80531 0.905327 1.84286 -0.773705 0.905475 
1.89391 -0.750049 0.906389 1.95407 -0.738456 0.908466 2.00513 -0.7148 0.90938 
2.05025 -0.683283 0.909536 2.09571 -0.652219 0.902304 2.1478 -0.62993 0.881064 
2.21001 -0.62105 0.838831 2.26346 -0.600567 0.788038 2.31057 -0.571682 0.743877 
2.35596 -0.54053 0.714351 2.40239 -0.510738 0.684956 2.45584 -0.490255 0.634173 
2.51942 -0.483188 0.562387 2.57534 -0.465629 0.463605 2.63051 -0.440642 0.345769 
2.71297 -0.412591 0.19556 -0.719041 -0.118868 -0.226681 -0.710178 -0.0393307 -0.186581 
-0.700564 0.0392131 -0.138943 -0.684539 0.109266 -0.097929 -0.657226 0.164368 -0.0777596 
-0.631164 0.221126 -0.0726039 -0.594579 0.264064 -0.0710667 -0.551624 0.300706 -0.0614159 
-0.504225 0.344538 -0.0396241 -0.659717 -0.200827 -0.107463 -0.597172 -0.212354 0.000149535 
-0.54681 -0.235924 0.078229 -0.491724 -0.257353 0.141532 -0.44299 -0.282153 0.219602 
-0.389787 -0.304291 0.290293 -0.348253 -0.335951 0.353596 -0.304574 -0.367415 0.402123 
-0.241182 -0.383284 0.458038 -0.169809 -0.393126 0.513962 -0.104868 -0.407826 0.569878 
-0.0515963 -0.432047 0.618404 0.0134322 -0.446681 0.674319 0.0860248 -0.454753 0.737614 
0.158634 -0.459827 0.808157 0.225324 -0.456878 0.877934 0.283171 -0.442401 0.939161 
0.349354 -0.441983 0.986774 0.414592 -0.456894 1.013 0.469429 -0.483355 1.0246 
3.67135 -0.97845 0.207849 3.62425 -0.942453 0.233174 3.57544 -0.904189 0.295421 
2.77994 -0.257406 0.0554141 2.75159 -0.171536 0.0674043 2.73565 -0.110859 0.0480777 
2.72716 -0.051471 0.0106106 2.70646 -0.0040842 -0.0526926 2.67838 0.0363109 -0.130762 
2.64962 0.0747679 -0.223608 2.62179 0.114643 -0.309066 2.60057 0.159507 -0.394523 
2.58449 0.208964 -0.472603 2.54999 0.245932 -0.535906 2.51952 0.291637 -0.540124 
2.46034 0.322074 -0.477867 2.39207 0.350629 -0.363914 2.34103 0.392199 -0.249961 
2.29239 0.433438 -0.158172 2.23423 0.465359 -0.0885274 2.18894 0.505568 -0.0336596 
2.1523 0.550889 0.00643203 2.11814 0.595948 0.0243691 2.08476 0.640166 0.0275395 
5.35661 -0.176619 0.397386 5.39518 -0.269392 0.425769 5.42867 -0.32006 0.439719 
5.45977 -0.364783 0.453654 5.48183 -0.413846 0.489882 5.48966 -0.470277 0.577907 
5.50821 -0.522294 0.730537 5.27137 0.198708 0.474415 5.2431 0.309452 0.620922 
5.23428 0.393254 0.795531 5.23297 0.460086 0.986853 5.23472 0.480765 1.18626 
2.09636 -1.38329 0.456873 -0.358155 0.398335 0.0901351 -0.280088 0.393882 0.183179 
-0.214178 0.398991 0.265173 5.48704 -0.65364 0.967926 5.46149 -0.726407 1.00836 
5.44551 -0.798778 1.05416 5.42272 -0.859996 1.10639 5.37622 -0.889686 1.18778 
5.31066 -0.894121 1.30388 5.24566 -0.899305 1.44978 5.17771 -0.900661 1.58787 
5.11894 -0.915222 1.70491 5.05499 -0.929466 1.79197 5.431 0.00687852 0.701599 
5.51013 0.000701519 0.949424 5.562 -0.0210174 1.06645 5.61655 -0.0449249 1.10992 
5.65663 -0.0812437 1.1363 5.67956 -0.128374 1.18482 5.68706 -0.18644 1.24074 
5.69739 -0.243085 1.28928 5.69539 -0.311748 1.30825 5.68526 -0.386408 1.30493 
5.66875 -0.455695 1.27376 5.6412 -0.511611 1.21152 5.60554 -0.563336 1.09418 
4.29432 -1.28227 1.31776 4.35219 -1.26764 1.37898 4.4195 -1.26552 1.43397 
4.492 -1.27027 1.48219 4.55815 -1.2666 1.53703 4.6092 -1.24294 1.58996 
4.65943 -1.21819 1.63534 4.71828 -1.20487 1.66697 4.7679 -1.17931 1.69742 
4.80975 -1.14345 1.74172 4.84418 -1.09766 1.79252 4.87043 -1.0389 1.8347 
4.91074 -0.985672 1.85559 4.92542 -0.849246 1.90238 4.88569 -0.791217 1.95146 
4.83325 -0.735974 2.01993 5.25251 -0.453197 1.85856 5.2092 -0.403504 1.87579 
5.39635 -0.212693 1.83808 5.3377 -0.203291 1.83479 5.27983 -0.214588 1.83528 
5.21916 -0.226474 1.8431 5.17443 -0.266164 1.86575 4.81649 -0.622428 2.10134 
4.86585 -0.58119 2.11595 4.90159 -0.534991 2.13459 4.92223 -0.470934 2.12914 
4.94443 -0.408953 2.09169 4.98534 -0.369604 2.03421 5.04957 -0.348057 1.969 
3.96255 -0.569029 1.9941 4.02316 -0.558025 1.99623 4.09259 -0.558711 2.00692 
4.16728 -0.566351 2.03314 4.24093 -0.572632 2.08151 4.30831 -0.570598 2.13652 
4.36687 -0.556874 2.18296 4.43445 -0.555109 2.20827 4.50263 -0.554317 2.21881 
4.56194 -0.544908 2.21603 4.62325 -0.556887 2.1998 4.68034 -0.601656 2.16061 

LINES 40 545
35 42 43 44 45 46 47 48 49 50 51 52 53 54 55 56 57 58 59 60 61 62 63 64 65 66 67 68 69 70 71 72 73 74 75 17 
13 41 76 77 78 79 80 81 82 83 84 85 86 38 
3 40 87 39 
30 38 88 89 90 91 92 93 94 95 96 97 98 99 100 101 102 103 104 105 106 107 108 109 110 111 112 113 114 115 32 
16 38 116 117 118 119 120 121 122 123 124 125 126 127 128 129 35 
35 37 130 131 132 133 134 135 136 137 138 139 140 141 142 143 144 145 146 147 148 149 150 151 152 153 154 155 156 157 158 159 160 161 162 35 
9 36 163 164 165 166 167 168 169 31 
16 35 170 171 172 173 174 175 176 177 178 179 180 181 182 183 32 
4 34 184 185 33 
35 33 186 187 188 189 190 191 192 193 194 195 196 197 198 199 200 201 202 203 204 205 206 207 208 209 210 211 212 213 214 215 216 217 218 13 
5 33 219 220 221 30 
8 32 222 223 224 225 226 227 19 
3 10 228 28 
4 29 229 230 27 
4 28 231 232 27 
3 28 233 22 
6 27 234 235 236 237 22 
10 27 238 239 240 241 242 243 244 245 21 
4 27 246 247 26 
11 25 248 249 250 251 252 253 254 255 256 21 
7 24 257 258 259 260 261 23 
3 22 262 10 
21 21 263 264 265 266 267 268 269 270 271 272 273 274 275 276 277 278 279 280 281 17 
54 20 282 283 284 285 286 287 288 289 290 291 292 293 294 295 296 297 298 299 300 301 302 303 304 305 306 307 308 309 310 311 312 313 314 315 316 317 318 319 320 321 322 323 324 325 326 327 328 329 330 331 332 333 17 
11 19 334 335 336 337 338 339 340 341 342 13 
22 19 343 344 345 346 347 348 349 350 351 352 353 354 355 356 357 358 359 360 361 362 7 
5 18 363 364 365 15 
23 17 366 367 368 369 370 371 372 373 374 375 376 377 378 379 380 381 382 383 384 385 386 16 
9 10 387 388 389 390 391 392 393 9 
7 10 394 395 396 397 398 6 
3 14 399 12 
5 13 400 401 402 11 
12 9 403 404 405 406 407 408 409 410 411 412 5 
15 10 413 414 415 416 417 418 419 420 421 422 423 424 425 9 
15 8 426 427 428 429 430 431 432 433 434 435 436 437 438 5 
5 5 439 440 441 0 
4 4 442 443 2 
7 3 444 445 446 447 448 2 
9 0 449 450 451 452 453 454 455 2 
14 1 456 457 458 459 460 461 462 463 464 465 466 467 0 

POINT_DATA 468
SCALARS DY_raw double
LOOKUP_TABLE default
1517.86 1442.32 1691.7 1916.63 1951.21 1472.99 1917.54 1510.68 1342.32 
1196.07 1259.73 1620.13 1618.78 1236.03 1361.5 1801.09 2461.31 1393.08 
1303.7 986.863 1220.51 1594.67 1189.07 1335.85 1421.04 1598.99 1653.99 
1097.62 846.914 959.204 1862.52 1222.65 1284.23 1139.4 923.047 1220.34 
841.519 1467.62 1390.62 1214.36 1083.05 1137.57 1213.02 950.978 1273.38 
1099.95 993.457 1101.13 1063.93 1031.63 1251.4 1022.68 1038 1130.13 
1173.1 1173.1 1239.49 1048.26 1048.26 1082.16 1117.17 1373.23 1175.3 
1113.69 1178.9 1175.41 1075.84 1092.14 1145.68 1113.68 1055.55 1103.57 
1179.05 1229.23 1258.76 1295.6 1117.27 1239.42 1198.29 1311 1526.04 
1271.2 1244.66 1183.6 1316.22 1170.63 1142.56 1083.05 1362.22 1362.22 
1409.12 1119.31 1232.73 1069.99 1112.2 1194.57 1097.66 1097.66 1079.61 
1111.82 1101.14 1310.84 1216.13 1161.55 1146.21 1146.21 1141.91 1285.13 
1311.89 1311.89 1372.77 1333.44 1258.38 1179.77 1431.08 1403.68 1300.93 
1261.7 1301.08 1209.77 1201.6 1196.02 1284.21 1248.88 1253.68 1206.72 
1258.36 1194.12 1075.98 1037.4 1467.62 1256.52 1172.05 1172.05 1090.3 
1149.09 1218.7 1425.42 1492.28 1315.74 1256.42 1408.9 1412.4 1378.14 
1392.48 1296.46 1363.13 1216.2 1191.86 1270.96 1270.96 1301.24 1494.39 
1494.39 1389.66 1400.68 1400.68 1405.49 1442.41 1442.41 1520.53 1370.29 
1243.7 859.591 900.059 885.406 928.23 1080.28 1153.82 1190.77 1292.86 
1355.93 1386.73 1480.39 1472.68 1560.33 1560.33 1618.38 1541 1510.1 
1257.67 1257.67 1246.86 1284.23 910.425 1062.62 1081.81 1080.39 1092.15 
1410.04 1438.99 1440.29 1332.84 1214.53 1197.11 1177.64 1459.75 1369.69 
1317.64 1248.04 978.537 1072.96 1043.25 1119.32 1071.15 1304.8 1283.6 
1381.56 1435.08 1420.8 1526.12 1374.24 1411.73 1411.73 1314.64 1582.18 
1559.77 1494.16 1385.32 1240.25 1390.15 1690.45 1386.69 1386.42 1229.75 
1093.55 983.188 1054.34 1179.26 991.998 1042.78 917.335 962.718 1078.76 
1170.43 1312.34 1415.72 1262.45 924.698 992.355 1119.39 1283.85 1418.87 
1533.62 1336.67 1720.49 1344.84 1489.89 1418.45 1312.02 1261.18 1309.86 
1304.89 1304.89 1332.77 1579.55 1597.1 1421.04 1310.89 1261.33 1261.33 
1214.07 1288.75 1448.95 1242.53 1338.73 1316.08 1355.67 1190.98 1270.17 
1198.05 1111.33 1186.29 1187.21 1187.41 1308.76 1230.77 1412.73 1412.73 
1417.92 1352.18 1443.45 1453.7 1530.34 1438.3 1350.79 1147.2 1042.86 
1042.86 1009.95 1206.01 1330.88 1169.03 1133.97 1235.51 1283.14 1131.25 
1161.69 1128.6 1105.3 1219.71 1291.4 1291.4 1355.14 1355.14 1278.61 
1404.85 1404.85 1455.43 1339.51 1339.51 1355.6 1395.39 1395.39 1477.05 
1579.16 1579.16 1842.22 1842.22 1982.48 2058.49 2058.49 1672.93 1696.09 
1557.15 1590.87 1576.04 1413.54 1618.17 1512.83 1548.54 1689.84 1538.94 
1377.97 918.978 1059.55 1204.82 1208.64 1397.38 1397.38 1127.54 1214.79 
1242.09 1011.94 987.956 1145.94 1171.16 1390.73 1505.21 1416.02 1353.55 
1579.4 1187.6 1268.76 1292.48 1294.5 1599.03 1666.45 1827.9 1674.69 
1677.4 1528.07 1408.55 1168.73 1297.68 1410.83 1562.92 1550.87 1663.5 
1440.2 1272.38 1126.91 1066.13 1101.68 1151.51 1065.52 1051.25 1286.8 
1193.41 1429.71 1453.74 1360.38 1494.01 1673.14 1673.14 2143.95 2143.95 
1228.98 1180.54 1245.48 1162.99 991.3 1018.1 1076.66 1567.75 1572.62 
1535.69 1564.59 1691.93 1321.98 1197.93 1134.28 1242.12 1220.49 1214.84 
1320.58 1287.59 1441.05 1555.28 1629.93 1562.64 1570.36 1550.15 1497.26 
1731.41 1867.86 1651.04 1594.04 1681.49 1716.73 1609.62 1599.48 1634.86 
1544.79 1414.3 1304.57 1316.51 1327.94 1245.05 1347.42 1246.16 1319.22 
1398.09 1398.09 1628.16 1742.16 1701.21 1624.7 1450.12 1573.89 1554.82 
1507.88 1798.89 1736.35 1916.63 1842.25 1788.13 1713.29 1713.04 1547.91 
1565.07 1535.39 1549.72 1699.88 1733.28 1743.73 1325.04 1322.75 1219.31 
1371 1439.9 1472 1540.74 1540.74 1518.89 1558.95 1552.16 1560.17 

FIELD FieldData 7
DY_minmax 1 468 double
0.417548 0.370911 0.524874 0.663736 0.685082 0.389845 0.664297 0.413116 0.309177 
0.218885 0.25819 0.480685 0.479852 0.243559 0.321018 0.592405 1 0.340513 
0.285336 0.0897302 0.233974 0.464966 0.214566 0.305185 0.357775 0.467637 0.501591 
0.158108 0.00333102 0.0726547 0.630329 0.235296 0.273317 0.183898 0.0503326 0.233873 
0 0.386531 0.338994 0.230179 0.14911 0.182773 0.22935 0.0675761 0.266614 
0.159549 0.0938014 0.160273 0.137308 0.117368 0.253048 0.111845 0.121301 0.178177 
0.204706 0.204706 0.245691 0.127635 0.127635 0.148563 0.17018 0.328257 0.206065 
0.168031 0.208285 0.20613 0.144661 0.154725 0.187776 0.168024 0.132135 0.161782 
0.208377 0.23936 0.257591 0.280336 0.170237 0.245647 0.220255 0.289842 0.4226 
0.265271 0.248883 0.211187 0.293064 0.203182 0.185851 0.14911 0.321464 0.321464 
0.350419 0.171496 0.241521 0.141051 0.16711 0.217961 0.15813 0.15813 0.146992 
0.166876 0.160279 0.289743 0.231275 0.197573 0.188103 0.188103 0.185449 0.273872 
0.290393 0.290393 0.327975 0.303692 0.257356 0.208821 0.363977 0.347058 0.283624 
0.259408 0.283718 0.227347 0.222304 0.218854 0.2733 0.251491 0.254455 0.22546 
0.257343 0.217684 0.144746 0.120929 0.386531 0.256206 0.20406 0.20406 0.153589 
0.189886 0.232858 0.360478 0.401754 0.292766 0.256147 0.35028 0.352444 0.331291 
0.340145 0.280864 0.322026 0.231312 0.216291 0.265123 0.265123 0.283814 0.40306 
0.40306 0.338402 0.345204 0.345204 0.348174 0.370971 0.370971 0.419199 0.326445 
0.248294 0.0111574 0.0361409 0.0270946 0.0535322 0.147404 0.192803 0.215614 0.278642 
0.31758 0.336592 0.394415 0.389659 0.44377 0.44377 0.479605 0.431832 0.412759 
0.256919 0.256919 0.250244 0.273317 0.0425405 0.136497 0.148347 0.14747 0.15473 
0.350984 0.368858 0.369659 0.303324 0.230287 0.219526 0.207507 0.381676 0.326074 
0.293938 0.25097 0.0845899 0.142886 0.124543 0.171505 0.141768 0.286012 0.272927 
0.333405 0.36644 0.357626 0.422646 0.328882 0.35203 0.35203 0.292087 0.457259 
0.443422 0.402915 0.335723 0.246161 0.338707 0.524098 0.33657 0.336399 0.239681 
0.155592 0.0874617 0.131388 0.208512 0.0929005 0.124252 0.0468062 0.0748241 0.146462 
0.20306 0.290669 0.354493 0.259867 0.0513517 0.093121 0.17155 0.273078 0.356433 
0.427277 0.305689 0.542645 0.310729 0.400282 0.356174 0.290471 0.259084 0.289136 
0.28607 0.28607 0.303279 0.455637 0.466466 0.357775 0.289773 0.259179 0.259179 
0.229997 0.276106 0.375005 0.247569 0.306958 0.292978 0.317419 0.215746 0.264635 
0.22011 0.166571 0.212852 0.213419 0.213542 0.288456 0.240309 0.352648 0.352648 
0.355852 0.315263 0.371608 0.377941 0.425256 0.368429 0.314407 0.188717 0.124299 
0.124299 0.103984 0.225021 0.302115 0.202195 0.180547 0.243237 0.272639 0.17887 
0.197662 0.177231 0.162848 0.233483 0.277742 0.277742 0.317091 0.317091 0.269846 
0.347779 0.347779 0.379007 0.307441 0.307441 0.317374 0.341938 0.341938 0.392351 
0.455395 0.455395 0.617798 0.617798 0.704386 0.751316 0.751316 0.513286 0.527579 
0.441806 0.462625 0.45347 0.353143 0.479476 0.414444 0.436491 0.52372 0.430561 
0.331189 0.0478205 0.134603 0.224288 0.226647 0.343167 0.343167 0.176579 0.230446 
0.2473 0.105214 0.090405 0.187938 0.203508 0.339062 0.409736 0.354678 0.316112 
0.45554 0.213658 0.263766 0.27841 0.279653 0.467658 0.509283 0.608954 0.514372 
0.516042 0.423851 0.350066 0.202005 0.281617 0.351475 0.445369 0.43793 0.507463 
0.369604 0.265999 0.17619 0.138669 0.160612 0.191377 0.138293 0.129478 0.274898 
0.217244 0.363126 0.377966 0.320328 0.402828 0.51341 0.51341 0.804076 0.804076 
0.239206 0.2093 0.249393 0.198462 0.0924698 0.109015 0.145165 0.44835 0.451358 
0.428554 0.446399 0.525013 0.296619 0.220033 0.180741 0.24732 0.233961 0.230473 
0.295753 0.275387 0.370132 0.440652 0.486738 0.445192 0.449959 0.437481 0.404834 
0.549387 0.633627 0.499768 0.464577 0.518571 0.540324 0.474197 0.467939 0.489779 
0.434176 0.353613 0.285872 0.29324 0.3003 0.249124 0.312326 0.249808 0.294914 
0.343606 0.343606 0.485642 0.556024 0.530742 0.48351 0.375729 0.452137 0.440366 
0.41139 0.591046 0.552439 0.663736 0.617814 0.584405 0.538203 0.538048 0.436099 
0.446694 0.428369 0.437215 0.529919 0.550544 0.556992 0.298511 0.297096 0.233237 
0.32688 0.369419 0.389237 0.431675 0.431675 0.418185 0.442914 0.438722 0.443667 

WidthEq 1 468 double
1.59249 1.41527 1.95843 1.57917 1.56535 1.66019 1.44412 1.25367 1.33549 
2.72838 3.2612 1.37477 1.62281 2.28757 1.9627 1.19252 1.13689 2.1284 
1.67969 2.54479 1.14375 1.30957 2.70515 2.03244 1.60521 1.32308 1 
2.18973 2.36427 1.89809 2.09846 2.44819 2.94084 3.79938 3.78074 2.67297 
3.01074 1.92413 2.2072 1.76673 2.15083 1.48462 1.77357 2.55975 2.20204 
2.51882 2.68203 2.56844 2.63375 2.72389 2.43084 2.81051 2.7888 2.67693 
2.56439 2.56439 2.51736 2.68848 2.68848 2.59865 2.70995 2.55534 3.07517 
3.30995 3.05835 3.20476 3.13166 2.92748 2.95823 2.89857 2.54433 2.63451 
2.46697 2.30856 2.2372 2.21095 1.97339 2.30823 2.31805 2.25887 1.8634 
2.0561 1.8643 1.94652 1.81154 2.22462 2.48644 2.15083 2.1762 2.1762 
2.03355 2.30341 2.11474 2.63695 2.75305 2.61457 3.00069 3.00069 3.00158 
2.81351 2.6868 2.37217 2.38676 2.33777 2.29286 2.29286 2.22413 1.95265 
1.90222 1.90222 1.82171 1.81158 1.8477 1.9102 1.86911 2.16567 2.34955 
2.17782 2.05615 2.07082 2.04025 2.07864 2.13763 2.16918 2.50678 2.73937 
2.60644 2.66589 2.75911 2.73504 1.92413 2.19827 2.28331 2.28331 2.32829 
1.97336 1.80377 1.60644 1.50304 1.41534 1.46997 1.38174 1.47179 1.60046 
1.6628 1.73573 1.61555 1.81887 1.77952 1.65735 1.65735 1.59474 1.48337 
1.48337 1.52248 1.54199 1.54199 1.61775 1.67763 1.67763 1.88622 1.97334 
2.25934 3.12073 3.18071 3.00049 2.83575 2.75592 2.55526 2.52404 2.58119 
2.47036 2.54527 2.3273 2.34634 2.20957 2.20957 2.06296 2.13088 2.10329 
2.5725 2.5725 2.72106 2.94084 4.33787 4.1119 3.46559 3.00502 2.74814 
2.10025 2.10871 2.07722 2.13396 2.22214 2.21724 2.23329 2.05644 2.26356 
2.55658 2.74103 3.60352 3.4874 3.36452 2.64058 2.67045 2.10644 1.92631 
1.91267 1.83775 1.91305 1.83593 1.95356 2.07711 2.07711 2.14629 1.90041 
1.87095 1.80416 1.87254 3.63354 3.04004 2.30598 2.75768 2.536 2.48866 
2.53401 2.53638 2.54112 3.00009 2.20907 2.23183 2.10651 2.18849 2.66356 
2.07616 1.96764 1.91153 2.43024 1.98039 1.5575 1.32023 1.07182 1.10054 
1.18099 1.48319 1.35008 1.70037 1.35952 1.57332 1.77241 1.84043 1.67714 
1.6376 1.6376 1.58273 1.4083 1.4071 1.60521 1.96049 2.11826 2.11826 
2.26243 3.03705 1.33355 1.50155 1.30591 1.23631 1.32872 1.36032 1.43563 
1.55642 1.66337 1.61828 1.44586 1.44397 1.28439 1.2726 1.20405 1.20405 
1.393 1.63386 1.84542 1.21395 1.56483 1.80536 1.94792 2.06877 2.05656 
2.05656 1.95093 1.71289 1.55248 1.57516 1.50589 1.49908 1.53546 1.61801 
1.7124 1.71151 1.78813 1.73893 1.69746 1.69746 1.58544 1.58544 1.56215 
1.41766 1.41766 1.33576 1.29807 1.29807 1.35901 1.38204 1.38204 1.38846 
1.37602 1.37602 1.29457 1.29457 1.22386 1.14276 1.14276 1.26473 1.50033 
1.58229 1.90947 2.04028 2.17251 2.10662 2.21624 2.13581 1.84038 1.8275 
2.0341 2.47809 2.42675 2.1609 1.96731 1.76953 1.76953 2.17368 2.19377 
2.22887 2.28977 1.96232 1.74992 1.66372 1.515 1.47614 1.53051 1.60451 
1.45115 1.69678 1.63139 1.56618 1.5105 1.35464 1.39549 1.35776 1.52379 
1.5655 1.63898 1.54156 1.91809 1.66394 1.62201 1.91847 1.9163 1.76191 
2.00261 2.05954 2.57258 2.33696 2.63771 3.42115 3.54829 3.90879 3.34478 
3.48992 2.43271 2.30545 2.60075 2.45785 2.19348 2.19348 1.51145 1.51145 
3.16172 3.19191 2.97622 2.99811 2.86897 2.79731 2.84184 2.78247 2.47724 
2.38969 1.99887 1.81417 1.99352 2.3594 2.40325 2.02903 2.65998 2.61602 
2.63329 2.98278 2.82574 2.66562 2.33197 1.97274 1.72955 1.69225 2.85283 
2.50603 2.19961 2.26997 2.21675 2.12724 1.94526 1.92946 2.01603 2.01421 
2.11571 2.20308 2.39306 1.79451 2.05989 2.06155 1.98135 2.04603 2.00051 
1.85305 1.85305 1.61701 1.32516 1.29508 1.33441 1.57099 1.60343 1.52305 
1.54451 1.73752 1.82845 1.57917 1.72313 1.87244 2.00074 2.01604 1.55918 
1.53646 1.52766 1.53009 1.55065 1.62567 1.76519 1.4751 1.39577 1.44895 
1.29676 1.30154 1.35427 1.39367 1.39367 1.41101 1.39059 1.44076 1.51829 

rRFP 1 468 double
3249.3 3137.42 3480.33 3240.89 3232.17 3292.04 3155.63 3035.4 3087.05 
3966.41 4302.79 3111.85 3268.44 3688.12 3483.02 2996.79 2961.67 3587.63 
3304.35 3850.51 2966 3070.69 3951.75 3527.05 3257.33 3079.22 2875.25 
3626.35 3736.54 3442.23 3568.73 3789.52 4100.54 4642.56 4630.79 3931.43 
4144.67 3458.67 3637.38 3359.3 3601.79 3181.2 3363.62 3859.95 3634.12 
3834.11 3937.15 3865.44 3906.67 3963.58 3778.57 4018.26 4004.56 3933.93 
3862.88 3862.88 3833.19 3941.22 3941.22 3884.51 3954.78 3857.17 4185.35 
4333.57 4174.73 4267.16 4221.01 4092.11 4111.52 4073.86 3850.22 3907.15 
3801.38 3701.37 3656.32 3639.75 3489.77 3701.16 3707.36 3670 3420.33 
3541.99 3420.9 3472.81 3387.59 3648.38 3813.67 3601.79 3617.81 3617.81 
3527.75 3698.12 3579.01 3908.69 3981.99 3894.56 4138.33 4138.33 4138.89 
4020.16 3940.16 3741.53 3750.74 3719.81 3691.46 3691.46 3648.07 3476.68 
3444.84 3444.84 3394.01 3387.62 3410.42 3449.88 3423.94 3611.16 3727.25 
3618.83 3542.02 3551.28 3531.98 3556.22 3593.46 3613.38 3826.51 3973.35 
3889.43 3926.96 3985.81 3970.62 3458.67 3631.74 3685.43 3685.43 3713.83 
3489.75 3382.69 3258.11 3192.83 3137.46 3171.95 3116.25 3173.1 3254.33 
3293.69 3339.73 3263.86 3392.22 3367.38 3290.25 3290.25 3250.72 3180.41 
3180.41 3205.1 3217.42 3217.42 3265.25 3303.05 3303.05 3434.74 3489.74 
3670.3 4214.11 4251.98 4138.2 4034.2 3983.8 3857.12 3837.41 3873.49 
3803.52 3850.81 3713.2 3725.22 3638.88 3638.88 3546.32 3589.2 3571.78 
3868 3868 3961.79 4100.54 4982.52 4839.86 4431.83 4141.06 3978.89 
3569.86 3575.2 3555.32 3591.14 3646.81 3643.72 3653.85 3542.2 3672.96 
3857.95 3974.4 4518.91 4445.6 4368.02 3910.98 3929.84 3573.77 3460.05 
3451.44 3404.14 3451.68 3402.99 3477.25 3555.25 3555.25 3598.93 3443.7 
3425.1 3382.93 3426.1 4537.86 4163.17 3699.74 3984.91 3844.96 3815.07 
3843.7 3845.2 3848.19 4137.95 3638.56 3652.93 3573.81 3625.57 3925.49 
3554.65 3486.14 3450.72 3778.19 3494.19 3227.21 3077.42 2920.59 2938.72 
2989.51 3180.3 3096.26 3317.41 3102.22 3237.2 3362.89 3405.83 3302.74 
3277.78 3277.78 3243.14 3133.02 3132.26 3257.33 3481.63 3581.23 3581.23 
3672.25 4161.28 3085.83 3191.89 3068.38 3024.44 3082.78 3102.73 3150.27 
3226.53 3294.05 3265.58 3156.73 3155.54 3054.79 3047.35 3004.07 3004.07 
3123.36 3275.42 3408.98 3010.32 3231.84 3383.69 3473.69 3549.99 3542.28 
3542.28 3475.59 3325.31 3224.04 3238.36 3194.63 3190.33 3213.3 3265.41 
3325 3324.44 3372.81 3341.75 3315.57 3315.57 3244.85 3244.85 3230.15 
3138.93 3138.93 3087.22 3063.43 3063.43 3101.9 3116.44 3116.44 3120.49 
3112.64 3112.64 3061.22 3061.22 3016.58 2965.38 2965.38 3042.38 3191.12 
3242.86 3449.42 3532 3615.48 3573.88 3643.09 3592.31 3405.8 3397.67 
3528.1 3808.4 3775.99 3608.15 3485.93 3361.07 3361.07 3616.22 3628.9 
3651.06 3689.51 3482.78 3348.69 3294.27 3200.38 3175.85 3210.17 3256.89 
3160.07 3315.14 3273.86 3232.69 3197.54 3099.14 3124.93 3101.11 3205.93 
3232.26 3278.65 3217.15 3454.86 3294.41 3267.94 3455.1 3453.73 3356.26 
3508.22 3544.16 3868.05 3719.3 3909.17 4403.77 4484.04 4711.63 4355.56 
4447.19 3779.75 3699.41 3885.84 3795.62 3628.72 3628.72 3198.14 3198.14 