# vtk DataFile Version 3.0
vtk output
ASCII
DATASET POLYDATA
POINTS 374 float
0.912259 0.938631 0.783135 1.04441 0.591938 0.620758 0.153321 0.64898 0.68662 
0.727421 1.64605 0.287636 4.19171 0.12227 0.0222304 -0.259389 1.15657 0.036949 
-0.18787 0.922119 -0.00180017 1.33486 -0.49601 0.149585 2.23411 1.16164 -0.509968 
2.29844 0.100761 -0.695793 2.63237 0.180732 -0.870791 2.4303 0.0863407 -1.04279 
2.20754 0.0868155 -1.36241 -0.657546 0.564149 -1.66774 1.80074 0.245914 -2.02841 
1.42496 -1.05858 -1.80316 -0.662968 0.386653 -2.04667 0.257042 0.588508 -2.60428 
1.4867 0.000926227 -2.57445 0.920708 0.576811 -2.81571 1.18931 0.210472 -2.78367 
-0.8425 -1.8514 -2.30768 1.14873 -0.148589 -2.9298 -0.137927 -0.976705 -2.90225 
-0.454224 -1.34465 -2.82117 -0.467124 -1.39737 -2.81226 -0.480131 -1.45006 -2.80334 
-0.494291 -1.50122 -2.78704 -0.517016 -1.54774 -2.75569 -0.554458 -1.58682 -2.70167 
-0.588172 -1.62561 -2.64049 -0.638429 -1.66022 -2.57855 -0.698972 -1.69348 -2.52347 
-0.758799 -1.72568 -2.4611 -0.807187 -1.76076 -2.39925 -0.829954 -1.80355 -2.3459 
-0.109625 -0.927875 -2.91187 -0.0587458 -0.884746 -2.92252 -0.00610335 -0.842062 -2.93326 
0.0337439 -0.796147 -2.94341 0.0883721 -0.753964 -2.95424 0.152571 -0.714197 -2.9655 
0.216769 -0.67443 -2.97677 0.271397 -0.632247 -2.9876 0.311341 -0.586357 -2.99775 
0.365969 -0.544174 -3.00858 0.430274 -0.504434 -3.01985 0.496342 -0.465139 -3.0312 
0.563099 -0.424891 -3.03524 0.630623 -0.384322 -3.02436 0.697201 -0.351827 -2.98966 
0.758495 -0.342333 -2.94358 0.819179 -0.333925 -2.90481 0.88393 -0.304685 -2.89202 
0.950235 -0.266287 -2.89574 1.01638 -0.227125 -2.90708 1.08256 -0.187857 -2.91844 
1.11044 -0.0829475 -2.93636 1.0842 -0.0191081 -2.93614 1.08551 0.0402525 -2.92253 
1.10207 0.0994827 -2.88763 1.13316 0.157521 -2.83874 1.20674 -0.173577 -2.76561 
1.27055 -0.169243 -2.63632 1.33799 -0.142611 -2.54822 1.40082 -0.121082 -2.48903 
1.45308 -0.0855894 -2.46861 1.47723 -0.0413916 -2.49973 1.14845 0.274684 -2.7898 
1.10528 0.329427 -2.79434 1.05853 0.369686 -2.79642 1.01486 0.425246 -2.80104 
0.97065 0.495109 -2.80773 1.25914 0.246454 -2.69715 1.31787 0.242667 -2.63387 
1.36444 0.196177 -2.60079 1.40593 0.133156 -2.58736 1.44632 0.067094 -2.58091 
0.838591 0.583073 -2.81731 0.773458 0.591107 -2.83561 0.715026 0.59762 -2.87679 
0.657542 0.602581 -2.91782 0.599189 0.59949 -2.93503 0.538598 0.578823 -2.90436 
0.479808 0.561308 -2.85177 0.427032 0.567175 -2.79564 0.373058 0.573204 -2.74695 
0.312756 0.567678 -2.68098 1.00557 0.637821 -2.83186 1.07896 0.685799 -2.8376 
1.14746 0.727505 -2.82697 1.21407 0.759961 -2.79227 1.27547 0.768469 -2.73854 
1.33423 0.764789 -2.67527 1.38974 0.747833 -2.60975 1.43826 0.703729 -2.54712 
1.48276 0.646028 -2.49718 1.5256 0.584308 -2.46152 1.56841 0.522482 -2.42585 
1.61305 0.463912 -2.36827 1.65952 0.4086 -2.28877 1.7072 0.355455 -2.19469 
1.75427 0.301228 -2.10789 1.56384 0.0597309 -2.45437 1.64159 0.119621 -2.32699 
1.72055 0.181682 -2.185 0.231343 0.657362 -2.52221 0.216597 0.733592 -2.44964 
0.221259 0.801605 -2.385 0.226181 0.867541 -2.32758 0.218139 0.936697 -2.26957 
0.22299 1.0026 -2.21214 0.226581 1.07006 -2.14733 0.206334 1.14478 -2.07408 
0.175962 1.22453 -1.98572 0.146067 1.30529 -1.89002 0.126507 1.38395 -1.77987 
0.118202 1.44629 -1.67572 0.0865792 1.48127 -1.58812 0.0361409 1.48931 -1.54001 
-0.0229297 1.46629 -1.50912 -0.0758608 1.42823 -1.48401 -0.113855 1.38568 -1.45198 
-0.165279 1.34516 -1.42664 -0.215443 1.30309 -1.40869 -0.241768 1.25377 -1.39916 
-0.256751 1.20157 -1.39015 -0.272237 1.14827 -1.38845 -0.29851 1.09521 -1.40092 
-0.341905 1.04152 -1.44191 -0.373052 0.979775 -1.51279 -0.397066 0.911276 -1.61332 
-0.421796 0.841718 -1.72115 -0.456041 0.778279 -1.80655 -0.510971 0.727498 -1.84702 
-0.561745 0.684342 -1.83637 -0.587609 0.639854 -1.79754 -0.611646 0.598622 -1.73681 
-0.649021 0.472564 -1.85772 1.39412 -1.11172 -1.82274 1.33771 -1.16089 -1.85581 
1.26925 -1.20826 -1.89567 1.19892 -1.25515 -1.93543 1.12909 -1.30093 -1.96788 
1.05876 -1.34782 -2.00764 0.990188 -1.39516 -2.04749 0.931905 -1.44386 -2.08047 
0.889524 -1.49409 -2.09952 0.832459 -1.54061 -2.1179 0.764606 -1.58689 -2.15045 
0.696143 -1.63426 -2.1903 0.637966 -1.68298 -2.22329 0.598064 -1.7326 -2.23512 
0.554479 -1.77881 -2.23214 0.518274 -1.82564 -2.22215 0.475298 -1.87077 -2.21186 
0.437224 -1.91713 -2.20179 0.382808 -1.95936 -2.19098 0.320373 -1.99958 -2.17979 
0.265252 -2.04287 -2.17627 0.22408 -2.09093 -2.18072 0.167625 -2.13637 -2.19179 
0.102736 -2.17709 -2.18785 0.0377304 -2.21345 -2.1695 -0.0231853 -2.23685 -2.13088 
-0.0794867 -2.24279 -2.08774 -0.13535 -2.24975 -2.02945 -0.186999 -2.24089 -1.96634 
-0.237563 -2.229 -1.89626 -0.288452 -2.21844 -1.82595 -0.329442 -2.16743 -1.76249 
-0.365719 -2.09716 -1.70228 -0.403455 -2.03285 -1.64106 -0.4452 -1.98398 -1.58472 
-0.482237 -1.92211 -1.53823 -0.507756 -1.85423 -1.50111 -0.515182 -1.78658 -1.45043 
-0.526265 -1.71541 -1.38494 -0.528645 -1.64273 -1.29787 -0.535315 -1.56772 -1.20325 
-0.523605 -1.49364 -1.0875 -0.499023 -1.42032 -0.957683 -0.460524 -1.34928 -0.821167 
-0.397541 -1.28826 -0.707746 -0.325877 -1.23623 -0.623779 -0.256538 -1.19761 -0.560156 
-0.19171 -1.17648 -0.501084 -0.126734 -1.15334 -0.449829 -0.066957 -1.14864 -0.410423 
-0.0115593 -1.15622 -0.398895 0.0439269 -1.15923 -0.410594 0.101725 -1.14998 -0.439332 
0.157186 -1.15309 -0.451013 0.212131 -1.16251 -0.439162 0.269086 -1.16935 -0.397817 
0.326651 -1.17509 -0.349157 0.384058 -1.18007 -0.308125 0.44241 -1.17698 -0.290912 
0.505465 -1.15187 -0.292389 0.568362 -1.12599 -0.301482 0.628161 -1.11278 -0.308436 
0.692123 -1.08395 -0.310539 0.75922 -1.04513 -0.299367 0.826227 -1.01088 -0.264967 
0.890315 -0.98997 -0.220814 0.957241 -0.955589 -0.186427 1.02353 -0.913357 -0.168177 
1.08046 -0.866911 -0.149773 1.1221 -0.814013 -0.116028 1.16817 -0.759758 -0.0678221 
1.20013 -0.700628 -0.011646 1.23291 -0.64039 0.0442977 1.28437 -0.576852 0.0981817 
1.84771 0.192661 -1.94927 1.89804 0.151718 -1.86472 1.95489 0.136052 -1.77697 
2.01183 0.121504 -1.69439 2.0669 0.0952216 -1.60241 2.13099 0.0854973 -1.4936 
-0.652244 0.556476 -1.46415 -0.650923 0.573642 -1.26393 -0.661517 0.597633 -1.06373 
-0.646801 0.612692 -0.871828 -0.587496 0.656973 -0.703014 -0.512606 0.712811 -0.567274 
-0.438576 0.759672 -0.447668 -0.36717 0.792655 -0.325771 -0.284831 0.847674 -0.175508 
2.29463 0.0887228 -1.29733 2.36915 0.102167 -1.19283 2.23245 0.0911014 -1.02699 
2.49037 0.0936638 -1.01131 2.55878 0.129415 -0.954713 2.37559 0.106664 -0.870923 
2.64318 0.233976 -0.879608 2.64254 0.290002 -0.887881 2.61523 0.350905 -0.894656 
2.57404 0.405148 -0.899282 2.52742 0.445333 -0.901366 2.48436 0.500048 -0.905906 
2.44601 0.564979 -0.904841 2.41909 0.631355 -0.889921 2.41047 0.69694 -0.85387 
2.39745 0.764876 -0.810274 2.38883 0.830462 -0.774222 2.36269 0.898446 -0.749584 
2.32689 0.972 -0.709943 2.28606 1.05784 -0.629125 2.6771 0.130996 -0.859614 
2.72896 0.107517 -0.83791 2.78541 0.0986242 -0.796216 2.84289 0.0925621 -0.747503 
2.89934 0.0836688 -0.70581 2.95178 0.0611801 -0.676784 2.99726 0.0116492 -0.650676 
3.04057 -0.0481161 -0.615348 3.08389 -0.107881 -0.580021 3.13056 -0.155336 -0.539287 
3.18254 -0.179685 -0.509947 3.23497 -0.202183 -0.48092 3.28309 -0.239515 -0.464362 
3.33418 -0.263304 -0.457571 3.38702 -0.278499 -0.459721 3.44136 -0.289012 -0.455175 
3.49971 -0.285921 -0.437962 3.56581 -0.255382 -0.402935 3.63356 -0.220926 -0.353593 
3.69839 -0.199791 -0.294512 3.76495 -0.172494 -0.228984 3.82916 -0.14862 -0.155224 
3.88827 -0.104944 -0.0764857 3.93386 -0.0500493 -0.0132998 3.99272 -0.000374786 0.0270035 
4.05886 0.0426213 0.0376357 4.12553 0.0830019 0.0335878 2.2217 0.0542237 -0.582279 
2.15569 0.019141 -0.488902 2.09489 -0.0137792 -0.423833 2.04284 -0.0513164 -0.381348 
2.00543 -0.0928893 -0.341991 1.95634 -0.129035 -0.287441 1.90785 -0.164094 -0.225577 
1.87176 -0.203521 -0.171625 1.82084 -0.242922 -0.138979 1.7687 -0.284494 -0.120933 
1.72885 -0.330409 -0.110784 1.67425 -0.372487 -0.0999747 1.61039 -0.410377 -0.0890157 
1.54766 -0.437172 -0.0722819 1.48879 -0.446471 -0.0359316 1.42086 -0.466715 0.0403663 
2.23337 1.23394 -0.583272 2.22495 1.29029 -0.658577 2.1933 1.34655 -0.719403 
2.15285 1.40868 -0.750309 2.11441 1.47808 -0.734876 2.07766 1.55065 -0.697507 
2.04049 1.62148 -0.659853 1.99912 1.67937 -0.642467 1.95255 1.71882 -0.636928 
1.90717 1.76312 -0.632209 1.86195 1.80386 -0.604436 1.82099 1.85499 -0.540997 
1.77891 1.89593 -0.445883 1.73681 1.93678 -0.350753 1.69539 1.98605 -0.286999 
1.64735 2.01526 -0.257277 1.59516 2.03176 -0.247857 1.54234 2.04706 -0.245725 
1.49141 2.07008 -0.244898 1.44169 2.09805 -0.244908 1.38486 2.09698 -0.240008 
1.32925 2.10085 -0.235943 1.27552 2.11245 -0.233185 1.22116 2.12286 -0.237714 
1.16323 2.12153 -0.255224 1.0995 2.10066 -0.291886 1.03634 2.08355 -0.336682 
0.972132 2.06073 -0.373013 0.91165 2.04707 -0.380971 0.852102 2.02209 -0.34974 
0.805384 1.99102 -0.273603 0.786801 1.95596 -0.169153 0.778072 1.9183 -0.0651374 
0.76149 1.87891 0.0172402 0.738073 1.83752 0.0779437 0.742339 1.78914 0.137376 
0.733811 1.74399 0.197406 0.713436 1.7006 0.250637 2.16599 1.13857 -0.33805 
2.10984 1.13022 -0.174322 2.0606 1.13678 -0.0309239 2.00722 1.12798 0.0925622 
1.95251 1.11873 0.188673 1.90442 1.13932 0.264762 1.85968 1.175 0.330823 
1.80725 1.18066 0.394471 1.75307 1.1806 0.451597 1.69559 1.16982 0.49556 
1.63929 1.16389 0.538712 1.57883 1.14234 0.577016 1.51897 1.12188 0.622625 
1.46207 1.11487 0.658473 1.40395 1.1029 0.695158 1.34625 1.09546 0.716101 
1.28633 1.08033 0.730865 1.22682 1.06974 0.729886 1.1655 1.05311 0.722451 
1.1071 1.04982 0.705272 1.04959 1.04691 0.702984 0.989257 1.02152 0.71931 
0.938814 0.984072 0.751624 1.2953 -0.395763 0.26573 1.26068 -0.307757 0.368251 
1.2266 -0.228857 0.442021 1.19306 -0.15446 0.493876 1.16986 -0.0851944 0.530596 
1.17339 -0.0214388 0.573422 1.18661 0.0398758 0.615814 1.18953 0.102546 0.651336 
1.16451 0.168555 0.666153 1.12672 0.23531 0.6669 1.08656 0.301423 0.660423 
1.04816 0.367091 0.653866 1.02131 0.429845 0.646778 1.02069 0.485977 0.638487 
1.03161 0.539193 0.629665 -0.111884 0.862253 0.161068 -0.0498827 0.82036 0.297376 
0.00612088 0.793627 0.396871 0.0562559 0.75114 0.484165 0.104393 0.699847 0.577945 
-0.218673 1.0177 0.0191253 -0.233094 1.09044 0.0320575 
LINES 25 425
13 24 25 26 27 28 29 30 31 32 33 34 35 21 
23 23 36 37 38 39 40 41 42 43 44 45 46 47 48 49 50 51 52 53 54 55 56 22 
7 22 57 58 59 60 61 20 
8 22 62 63 64 65 66 67 18 
7 20 68 69 70 71 72 19 
7 20 73 74 75 76 77 18 
17 19 88 89 90 91 92 93 94 95 96 97 98 99 100 101 102 14 
5 18 103 104 105 14 
3 16 138 13 
76 15 139 140 141 142 143 144 145 146 147 148 149 150 151 152 153 154 155 156 157 158 159 160 161 162 163 164 165 166 167 168 169 170 171 172 173 174 175 176 177 178 179 180 181 182 183 184 185 186 187 188 189 190 191 192 193 194 195 196 197 198 199 200 201 202 203 204 205 206 207 208 209 210 211 212 7 
8 14 213 214 215 216 217 218 12 
11 13 219 220 221 222 223 224 225 226 227 6 
4 12 228 229 11 
3 12 230 9 
4 11 231 232 10 
3 11 233 9 
16 10 234 235 236 237 238 239 240 241 242 243 244 245 246 247 8 
29 10 248 249 250 251 252 253 254 255 256 257 258 259 260 261 262 263 264 265 266 267 268 269 270 271 272 273 274 4 
18 9 275 276 277 278 279 280 281 282 283 284 285 286 287 288 289 290 7 
40 8 291 292 293 294 295 296 297 298 299 300 301 302 303 304 305 306 307 308 309 310 311 312 313 314 315 316 317 318 319 320 321 322 323 324 325 326 327 328 3 
25 8 329 330 331 332 333 334 335 336 337 338 339 340 341 342 343 344 345 346 347 348 349 350 351 0 
17 7 352 353 354 355 356 357 358 359 360 361 362 363 364 365 366 1 
7 6 367 368 369 370 371 2 
4 6 372 373 5 
45 19 78 79 80 81 82 83 84 85 86 87 17 106 107 108 109 110 111 112 113 114 115 116 117 118 119 120 121 122 123 124 125 126 127 128 129 130 131 132 133 134 135 136 137 13 

POINT_DATA 374
SCALARS DY_raw double
LOOKUP_TABLE default
668.735 912.221 595.624 568.948 706.737 903.48 410.976 629.191 578.157 
660.475 752.058 773.691 669.941 297.057 500.411 652.459 300.633 528.911 
485.871 533.481 627.816 315.664 517.279 704.707 744.825 744.825 620.309 
687.078 555.233 542.431 583.095 530.284 405.005 385.36 336.935 296.418 
721.278 715.704 690.168 638.81 597.656 599.962 617.735 645.139 660.321 
664.245 622.57 622.57 647.525 628.26 669.568 597.936 590.386 525.262 
542.187 542.187 517.279 523.554 530.944 574.046 545.215 584.821 645.092 
535.941 559.582 529.011 545.297 535.565 657.682 690.509 638.744 571.266 
525.465 661.805 655.569 546.046 541.593 509.411 571.106 576.619 542.717 
606.35 607.603 660.769 572.022 546.178 483.732 512.459 580.913 584.84 
545.098 517.186 535.832 541.442 630.404 609.339 569.683 607.872 604.873 
626.981 742.856 500.66 553.33 522.681 438.072 368.524 496.946 573.231 
594.403 539.794 507.611 543.188 584.946 599.937 578.809 615.825 522.404 
485.841 433.886 455.301 397.736 378.269 399.975 399.975 463.282 483.082 
483.082 490.191 493.655 459.413 470.036 407.428 427.998 450.26 435.241 
392.803 379.691 348.467 280.124 487.116 442.971 421.266 407.827 360.474 
388.286 426.628 441.914 489.541 507.359 507.359 523.969 473.7 453.833 
476.216 500.27 522.201 621.182 649.619 631.828 532.678 497.503 509.737 
452.702 444.858 408.052 436.601 504.67 593.616 552.073 631.023 689.064 
508.119 566.221 505.808 460.837 414.81 396.055 426.971 466.496 523.165 
564.247 475.487 453.817 480.846 443.666 437.542 415.176 393.081 415.154 
463.547 443.407 420.59 355.137 345.672 374.936 360.58 381.43 423.933 
432.201 432.201 451.742 424.882 424.882 442.638 472.246 510.445 541.262 
612.085 698.9 753.789 660.086 596.066 555.967 485.55 435.666 512.477 
402.345 457.054 566.117 335.601 369.507 367.975 347.401 335.59 352.421 
414.988 435.178 402.394 762.209 832.189 747.499 643.659 645.511 768.437 
850.93 850.93 842.425 837.873 782.057 815.823 796.369 849.427 687.62 
834.836 854.889 810.263 667.107 547.859 824.11 873.236 929.345 783.143 
850.779 895.784 792.608 719.412 728.561 682.766 682.766 707.449 669.157 
669.157 604.012 604.012 606.412 608.7 664.081 638.154 657.15 689.678 
691.457 703.243 707.553 613.895 668.484 557.604 525.354 511.627 514.439 
572.363 623.939 678.746 663.572 703.293 629.924 589.198 532.994 491.477 
475.901 511.695 552.269 575.553 596.1 618.701 671.545 767.37 786.3 
750.983 812.287 643.262 559.244 645.23 502.73 468.152 562.722 433.871 
433.871 474.522 456.406 456.406 465.455 478.229 478.229 524.979 474.366 
474.366 435.163 386.705 373.937 370.251 394.647 419.646 491.814 498.079 
510.626 557.871 553.002 561.138 561.138 539.474 578.629 646.697 615.61 
458.115 495.556 531.153 601.604 617.659 721.829 651.068 679.961 771.12 
738.561 846.464 833.685 833.685 730.706 744.406 657.568 657.923 636.667 
668.735 703.439 687.214 544.5 465.524 472.29 527.746 643.267 765.239 
679.98 735.534 735.534 704.272 715.783 715.783 794.377 420.488 429.63 
409.069 445.605 483.007 478.085 537.162 
FIELD FieldData 7
DY_minmax 1 374 double
0.59858 0.973624 0.485968 0.444878 0.657115 0.96016 0.201552 0.537671 0.459063 
0.585858 0.726924 0.760245 0.600439 0.0260827 0.339309 0.57351 0.0315899 0.383209 
0.316914 0.390248 0.535554 0.0547423 0.365291 0.653989 0.715783 0.715783 0.523989 
0.626835 0.423752 0.404033 0.466669 0.385324 0.192355 0.162096 0.087507 0.0250972 
0.679513 0.670927 0.631595 0.552486 0.489097 0.492649 0.520025 0.562236 0.585621 
0.591664 0.527473 0.527473 0.565911 0.536237 0.599864 0.489528 0.477899 0.377589 
0.403659 0.403659 0.365291 0.374957 0.38634 0.452731 0.408322 0.469328 0.562164 
0.394037 0.430451 0.383363 0.408449 0.393457 0.581556 0.63212 0.552386 0.448449 
0.3779 0.587907 0.578301 0.409602 0.402743 0.353173 0.448202 0.456694 0.404474 
0.502488 0.504419 0.58631 0.449613 0.409805 0.313618 0.357868 0.463307 0.469357 
0.408141 0.365149 0.39387 0.402511 0.53954 0.507092 0.44601 0.504833 0.500214 
0.534267 0.71275 0.339693 0.420821 0.373612 0.243288 0.136163 0.333973 0.451476 
0.484086 0.399972 0.350399 0.4052 0.469519 0.492611 0.460066 0.517084 0.373186 
0.316867 0.236841 0.269826 0.181158 0.151173 0.184607 0.184607 0.28212 0.312618 
0.312618 0.323568 0.328903 0.276161 0.292524 0.196088 0.227771 0.262062 0.238928 
0.17356 0.153364 0.105268 0 0.318832 0.250834 0.217403 0.196702 0.123764 
0.166603 0.225661 0.249207 0.322567 0.350012 0.350012 0.375596 0.298166 0.267565 
0.302042 0.339092 0.372873 0.525334 0.569135 0.541733 0.389011 0.334831 0.353675 
0.265823 0.253742 0.197049 0.241023 0.34587 0.482875 0.418886 0.540493 0.629894 
0.351183 0.440677 0.347622 0.278354 0.207459 0.178569 0.226189 0.28707 0.374358 
0.437637 0.30092 0.26754 0.309174 0.251905 0.242472 0.208021 0.173989 0.207988 
0.282528 0.251506 0.216362 0.115544 0.100964 0.14604 0.123927 0.156042 0.221509 
0.234245 0.234245 0.264345 0.222973 0.222973 0.250322 0.295927 0.354765 0.402233 
0.511322 0.645045 0.72959 0.585259 0.486648 0.424883 0.316419 0.239583 0.357895 
0.188258 0.272526 0.440517 0.0854519 0.137677 0.135318 0.103627 0.0854349 0.11136 
0.207732 0.238831 0.188333 0.74256 0.85035 0.719901 0.559955 0.562808 0.752153 
0.879218 0.879218 0.866117 0.859106 0.773132 0.825142 0.795177 0.876902 0.627669 
0.854427 0.885315 0.816578 0.596073 0.412395 0.837907 0.913576 1 0.774804 
0.878984 0.948306 0.789384 0.67664 0.690731 0.620193 0.620193 0.658212 0.599231 
0.599231 0.498887 0.498887 0.502584 0.506108 0.591412 0.551477 0.580736 0.630839 
0.63358 0.651734 0.658372 0.51411 0.598194 0.427405 0.377729 0.356586 0.360918 
0.450138 0.529581 0.614002 0.590628 0.65181 0.5388 0.476069 0.389497 0.325548 
0.301557 0.356691 0.419188 0.455051 0.4867 0.521512 0.602909 0.750508 0.779668 
0.725268 0.819696 0.559344 0.429931 0.562376 0.342882 0.289621 0.435289 0.236818 
0.236818 0.299433 0.271529 0.271529 0.285467 0.305143 0.305143 0.377152 0.299193 
0.299193 0.238808 0.164168 0.1445 0.138823 0.1764 0.214907 0.326068 0.335718 
0.355044 0.427815 0.420317 0.432849 0.432849 0.399479 0.45979 0.564635 0.516752 
0.274161 0.331832 0.386662 0.495178 0.519907 0.680362 0.571367 0.615873 0.756285 
0.706134 0.872339 0.852654 0.852654 0.694035 0.715138 0.581379 0.581927 0.549186 
0.59858 0.652036 0.627043 0.407221 0.285574 0.295996 0.381415 0.559353 0.747227 
0.615901 0.701471 0.701471 0.653319 0.67105 0.67105 0.792109 0.216204 0.230285 
0.198615 0.254891 0.312502 0.30492 0.395917 
WidthEq 1 374 double
2.18669 1.24183 1.60441 1.35419 1.37654 1.20941 3.24792 2.04099 2.61243 
2.29021 1.64351 1.76908 2.00745 3.73404 2.68354 1.36604 2.59078 2.45675 
1.83304 2.04061 1.77239 3.018 1.78993 1.26277 1.26526 1.26526 1.65399 
1.4858 1.96605 2.02648 2.00467 2.29846 2.89723 3.18291 3.47979 3.47015 
1.218 1.15363 1.17491 1.12605 1.1624 1.10274 1.2339 1.38101 1.3165 
1.31475 1.44714 1.44714 1.3958 1.45974 1.31974 1.32461 1.42651 1.66331 
1.68352 1.68352 1.78993 1.83218 1.84596 1.81012 1.78246 1.77138 1.4848 
1.48498 1.50829 1.77606 1.91478 2.01349 1.78681 1.6822 1.59349 1.70954 
1.99266 1.74641 1.6964 1.76024 1.78661 1.86608 1.93506 1.79875 1.73588 
1.63565 1.67985 1.63546 1.84357 2.16632 2.35904 2.37495 1.87743 1.74766 
1.65171 1.63756 1.67908 1.65558 1.64747 1.73133 1.86515 1.84391 1.89072 
1.83161 1.66609 2.36884 2.31008 2.05109 2.27811 2.72941 2.58709 2.46767 
2.29296 2.31511 2.20615 2.16331 2.05252 1.92537 2.072 2.03454 2.40261 
2.81103 3.16354 3.02017 3.31691 3.22367 3.01777 3.01777 2.60844 2.52215 
2.52215 2.48533 2.43791 2.5584 2.33106 2.393 1.96794 1.77485 1.712 
2.20088 2.8026 3.2066 3.32304 2.17347 2.50652 2.74564 2.49494 2.84077 
2.52552 2.38028 2.37511 2.13006 2.01278 2.01278 1.84227 2.05152 2.11079 
2.00221 2.02076 1.93668 1.651 1.70282 1.66413 1.85373 2.03969 2.07873 
2.14529 2.14458 2.05779 1.70695 1.60286 1.46846 1.47327 1.37718 1.37158 
1.74076 1.70558 1.93485 2.22611 2.65103 2.93693 2.85765 2.75275 2.47298 
2.32379 2.5695 2.71346 2.21941 2.1086 2.29568 2.42212 2.55897 2.51695 
2.4395 2.43335 2.47439 2.57118 2.69097 2.62555 2.94246 2.90398 2.73429 
2.55384 2.55384 2.44395 2.37782 2.37782 2.31962 2.38017 2.35294 2.23477 
2.04881 1.84385 1.77571 1.9115 2.11954 2.26523 2.68739 2.71029 2.62772 
2.64786 2.51759 2.22734 3.92089 3.82256 3.90318 4.19056 4.45238 4.0088 
3.35059 3.07611 3.18092 1.86577 1.75343 1.99396 1.69095 1.72002 1.90621 
1.34963 1.34963 1.2859 1.22082 1.28426 1.22666 1.34081 1.41116 1.64932 
1.51935 1.61822 1.8088 2.22743 2.67988 1.26257 1.24582 1.09452 1.06861 
1.03432 1 1.12471 1.16069 1.21016 1.25976 1.25976 1.09999 1.08852 
1.08852 1.13795 1.13795 1.20448 1.17849 1.1611 1.22795 1.308 1.37025 
1.46044 1.52746 1.5005 1.60965 1.48558 2.68892 2.75539 2.66844 2.43882 
2.27293 2.08265 1.95019 1.99426 1.97541 2.24712 2.33856 2.39653 2.43144 
2.263 2.13088 2.11724 2.49139 2.1891 1.86845 1.64873 1.50435 1.59283 
1.8183 1.76801 2.0592 2.21661 1.99474 2.33778 2.58139 2.50321 3.2784 
3.2784 3.20353 3.17409 3.17409 2.88074 2.78526 2.78526 2.63478 2.87283 
2.87283 3.07718 3.32983 3.55428 3.8404 3.82229 3.5368 3.13733 3.15766 
3.21189 3.0196 2.88757 2.5044 2.5044 2.77888 2.62658 2.40537 2.55826 
2.80155 2.65563 2.45484 2.20373 2.15267 1.92228 2.00984 1.90847 1.8659 
1.81322 1.66165 1.71399 1.71399 1.964 2.02789 2.12605 2.27936 2.30499 
2.18669 1.71342 1.55095 1.92421 2.40186 2.72697 2.58661 2.25566 1.91763 
2.0682 1.79431 1.79431 1.87201 1.85898 1.85898 1.65577 3.32286 3.30171 
3.14481 2.57296 2.13638 3.06756 2.58016 
rRFP 1 374 double
3227.68 2813.02 2972.14 2862.33 2872.14 2798.79 3693.41 3163.74 3414.52 
3273.11 2989.3 3044.41 3149.02 3906.75 3445.73 2867.53 3405.02 3346.2 
3072.48 3163.57 3045.86 3592.51 3053.56 2822.21 2823.3 2823.3 2993.9 
2920.09 3130.85 3157.37 3147.8 3276.73 3539.51 3664.88 3795.17 3790.94 
2802.56 2774.31 2783.65 2762.21 2778.16 2751.98 2809.54 2874.1 2845.79 
2845.02 2903.12 2903.12 2880.59 2908.65 2847.21 2849.35 2894.07 2997.99 
3006.86 3006.86 3053.56 3072.1 3078.15 3062.42 3050.28 3045.42 2919.65 
2919.73 2929.96 3047.47 3108.35 3151.67 3052.19 3006.28 2967.35 3018.28 
3142.53 3034.46 3012.51 3040.53 3052.1 3086.98 3117.25 3057.43 3029.84 
2985.85 3005.25 2985.77 3077.1 3218.74 3303.32 3310.3 3091.96 3035.01 
2992.9 2986.69 3004.91 2994.6 2991.04 3027.84 3086.57 3077.25 3097.79 
3071.85 2999.21 3307.62 3281.83 3168.17 3267.8 3465.86 3403.4 3350.99 
3274.32 3284.04 3236.22 3217.42 3168.8 3113 3177.35 3160.91 3322.44 
3501.68 3656.38 3593.46 3723.69 3682.77 3592.41 3592.41 3412.77 3374.9 
3374.9 3358.74 3337.93 3390.81 3291.04 3318.22 3131.68 3046.94 3019.36 
3233.91 3497.98 3675.28 3726.38 3221.88 3368.04 3472.98 3362.96 3514.73 
3376.38 3312.64 3310.37 3202.83 3151.36 3151.36 3076.53 3168.36 3194.37 
3146.72 3154.86 3117.96 2992.59 3015.33 2998.35 3081.56 3163.17 3180.3 
3209.51 3209.2 3171.11 3017.14 2971.46 2912.48 2914.59 2872.42 2869.96 
3031.98 3016.54 3117.16 3244.98 3431.46 3556.93 3522.14 3476.1 3353.32 
3287.85 3395.68 3458.86 3242.04 3193.41 3275.51 3331 3391.06 3372.62 
3338.63 3335.93 3353.94 3396.42 3448.99 3420.28 3559.36 3542.47 3468 
3388.81 3388.81 3340.58 3311.56 3311.56 3286.02 3312.59 3300.64 3248.78 
3167.17 3077.22 3047.32 3106.91 3198.21 3262.15 3447.42 3457.47 3421.23 
3430.07 3372.9 3245.52 3988.75 3945.6 3980.98 4107.1 4222 4027.33 
3738.47 3618.01 3664.01 3086.84 3037.54 3143.1 3010.12 3022.88 3104.59 
2860.33 2860.33 2832.36 2803.8 2831.64 2806.36 2856.46 2887.33 2991.85 
2934.81 2978.2 3061.84 3245.56 3444.12 2822.12 2814.77 2748.37 2737 
2721.95 2706.89 2761.62 2777.41 2799.12 2820.89 2820.89 2750.77 2745.74 
2745.74 2767.43 2767.43 2796.63 2785.22 2777.59 2806.93 2842.06 2869.38 
2908.96 2938.37 2926.54 2974.44 2919.99 3448.09 3477.26 3439.1 3338.33 
3265.53 3182.02 3123.89 3143.23 3134.96 3254.2 3294.33 3319.77 3335.09 
3261.17 3203.19 3197.2 3361.4 3228.74 3088.02 2991.59 2928.23 2967.06 
3066.01 3043.94 3171.73 3240.81 3143.44 3293.99 3400.9 3366.59 3706.79 
3706.79 3673.93 3661.01 3661.01 3532.27 3490.37 3490.37 3424.33 3528.8 
3528.8 3618.48 3729.36 3827.86 3953.43 3945.48 3820.19 3644.88 3653.8 
3677.6 3593.21 3535.27 3367.11 3367.11 3487.57 3420.73 3323.65 3390.75 
3497.52 3433.48 3345.36 3235.16 3212.75 3111.64 3150.07 3105.58 3086.9 
3063.78 2997.26 3020.23 3020.23 3129.95 3157.99 3201.07 3268.35 3279.6 
3227.68 3019.98 2948.68 3112.49 3322.11 3464.79 3403.19 3257.95 3109.6 
3175.68 3055.48 3055.48 3089.58 3083.86 3083.86 2994.68 3726.3 3717.02 
3648.16 3397.2 3205.6 3614.26 3400.36 
rGFP 1 374 double
3768.23 3438.74 3261.54 3076.38 3278.77 3398.59 3640.73 3590.09 3816.31 
3818.54 3541.93 3674.64 3650.79 3415.14 3648.79 3197.2 3084.79 3605.32 
3196.54 3394.54 3418.65 3258.59 3231.81 3195.8 3248.31 3248.31 3331.9 
3326.78 3397.53 3405.14 3474.83 3524.75 3479.31 3532.48 3478.38 3334.53 
3184.43 3131.57 3116.8 3025.25 3000.63 2967.52 3068.14 3196.86 3175.23 
3179.23 3206.86 3206.86 3209.73 3223.01 3189.57 3097.95 3148.11 3179.59 
3218.7 3218.7 3231.81 3265.16 3286.02 3345.01 3277.74 3341.86 3263.75 
3101.78 3149.93 3245.47 3350.04 3384.27 3481.07 3467.49 3323.75 3282.52 
3352.99 3461.7 3418.02 3267.09 3273.53 3256.52 3411.04 3343.11 3248.01 
3297.69 3326.6 3386.58 3360.48 3489.11 3447.06 3522.98 3396.54 3328.02 
3206.26 3152.84 3205.62 3202.32 3344.49 3360.88 3368.46 3426.78 3449.56 
3454.3 3543.58 3491.9 3584.15 3377.98 3303.89 3311.77 3591.56 3720.46 
3668.86 3555.6 3425.78 3481 3506.53 3461.02 3505.21 3558.84 3561.05 
3671.63 3678.53 3681 3625.17 3525.33 3512.95 3512.95 3514.36 3524.32 
3524.32 3524.2 3509.4 3481.28 3401.6 3280.89 3148.19 3105.06 3051.05 
3170.43 3370.04 3423.31 3236.78 3364.65 3416.23 3462.56 3323.42 3329.94 
3286.54 3321.41 3355.51 3348.67 3327.12 3327.12 3271.21 3277.72 3263.86 
3259.4 3316.84 3317.25 3331.49 3412.1 3357.36 3293.36 3320.67 3365.52 
3277.09 3259.95 3145.6 3051.17 3114.83 3177.62 3119.27 3174.95 3251.02 
3190.43 3271.65 3284.58 3331.79 3405.59 3469.1 3526.05 3590.06 3599.69 
3617.11 3527.68 3537.33 3373.11 3241.43 3310.37 3311.52 3311.8 3350.84 
3436.74 3384.88 3346.62 3219.04 3236.11 3290.33 3366.91 3413.58 3465.07 
3409.69 3409.69 3409.95 3316.21 3316.21 3332.67 3429.94 3506.96 3515.51 
3559.96 3594.58 3644.43 3567.67 3569.3 3565.31 3610.78 3486.7 3652.56 
3371.27 3456.59 3566.85 3621.77 3718.38 3742.19 3761.72 3800.09 3718.7 
3696.37 3644.57 3585.9 3728.02 3765.1 3796.4 3394.31 3416.21 3770.72 
3454.36 3454.36 3389.19 3328.81 3310.28 3306.65 3373.7 3504.59 3440.02 
3574.32 3689.31 3771.52 3791.85 3774.11 3346.41 3393.81 3323.1 3142.79 
3185.89 3201.7 3197.37 3140.93 3187.59 3166.04 3166.04 3084.1 3034.31 
3034.31 2993.25 2993.25 3036.33 3023.26 3076.98 3089.54 3165.47 3250.95 
3315.75 3380.09 3367.6 3294.07 3299 3805.27 3753.47 3671.16 3560.54 
3606.86 3605.36 3629.6 3629.25 3695.21 3721.43 3683.79 3583.25 3500.91 
3382.88 3396.28 3475.2 3739.84 3610.84 3461.93 3413.11 3460.31 3558.36 
3671.43 3742.05 3630.52 3545.54 3592.98 3481.19 3514.4 3714.53 3728.32 
3728.32 3826.06 3754.59 3754.59 3646.77 3637.91 3637.91 3689.12 3668.69 
3668.69 3644.99 3593.58 3634.99 3727.83 3814.37 3790.12 3848.9 3878.68 
3945.99 3990.46 3902.75 3711.23 3711.23 3805.05 3825.73 3861.46 3880.81 
3589.35 3621.93 3609.81 3631.69 3635.53 3693.47 3614.46 3603.6 3744.75 
3645.09 3712.44 3734.84 3734.84 3741.02 3815.49 3703.94 3805.56 3773.43 
3768.23 3511.2 3371.75 3353.65 3424.04 3593.84 3670.99 3756.91 3773.36 
3712.25 3625.69 3625.69 3624.32 3636.54 3636.54 3621.22 3703.14 3724.43 
3592.36 3452.44 3337.8 3772.47 3691.88 
bkstRFP 1 374 double
959.65 544.99 704.11 594.3 604.11 530.76 1425.38 895.71 1146.49 
1005.08 721.27 776.38 880.99 1638.72 1177.7 599.5 1136.99 1078.17 
804.45 895.54 777.83 1324.48 785.53 554.18 555.27 555.27 725.87 
652.06 862.82 889.34 879.77 1008.7 1271.48 1396.85 1527.14 1522.91 
534.53 506.28 515.62 494.18 510.13 483.95 541.51 606.07 577.76 
576.99 635.09 635.09 612.56 640.62 579.18 581.32 626.04 729.96 
738.83 738.83 785.53 804.07 810.12 794.39 782.25 777.39 651.62 
651.7 661.93 779.44 840.32 883.64 784.16 738.25 699.32 750.25 
874.5 766.43 744.48 772.5 784.07 818.95 849.22 789.4 761.81 
717.82 737.22 717.74 809.07 950.71 1035.29 1042.27 823.93 766.98 
724.87 718.66 736.88 726.57 723.01 759.81 818.54 809.22 829.76 
803.82 731.18 1039.59 1013.8 900.14 999.77 1197.83 1135.37 1082.96 
1006.29 1016.01 968.19 949.39 900.77 844.97 909.32 892.88 1054.41 
1233.65 1388.35 1325.43 1455.66 1414.74 1324.38 1324.38 1144.74 1106.87 
1106.87 1090.71 1069.9 1122.78 1023.01 1050.19 863.65 778.91 751.33 
965.88 1229.95 1407.25 1458.35 953.85 1100.01 1204.95 1094.93 1246.7 
1108.35 1044.61 1042.34 934.8 883.33 883.33 808.5 900.33 926.34 
878.69 886.83 849.93 724.56 747.3 730.32 813.53 895.14 912.27 
941.48 941.17 903.08 749.11 703.43 644.45 646.56 604.39 601.93 
763.95 748.51 849.13 976.95 1163.43 1288.9 1254.11 1208.07 1085.29 
1019.82 1127.65 1190.83 974.01 925.38 1007.48 1062.97 1123.03 1104.59 
1070.6 1067.9 1085.91 1128.39 1180.96 1152.25 1291.33 1274.44 1199.97 
1120.78 1120.78 1072.55 1043.53 1043.53 1017.99 1044.56 1032.61 980.75 
899.14 809.19 779.29 838.88 930.18 994.12 1179.39 1189.44 1153.2 
1162.04 1104.87 977.49 1720.72 1677.57 1712.95 1839.07 1953.97 1759.3 
1470.44 1349.98 1395.98 818.81 769.51 875.07 742.09 754.85 836.56 
592.3 592.3 564.33 535.77 563.61 538.33 588.43 619.3 723.82 
666.78 710.17 793.81 977.53 1176.09 554.09 546.74 480.34 468.97 
453.92 438.86 493.59 509.38 531.09 552.86 552.86 482.74 477.71 
477.71 499.4 499.4 528.6 517.19 509.56 538.9 574.03 601.35 
640.93 670.34 658.51 706.41 651.96 1180.06 1209.23 1171.07 1070.3 
997.5 913.99 855.86 875.2 866.93 986.17 1026.3 1051.74 1067.06 
993.14 935.16 929.17 1093.37 960.71 819.99 723.56 660.2 699.03 
797.98 775.91 903.7 972.78 875.41 1025.96 1132.87 1098.56 1438.76 
1438.76 1405.9 1392.98 1392.98 1264.24 1222.34 1222.34 1156.3 1260.77 
1260.77 1350.45 1461.33 1559.83 1685.4 1677.45 1552.16 1376.85 1385.77 
1409.57 1325.18 1267.24 1099.08 1099.08 1219.54 1152.7 1055.62 1122.72 
1229.49 1165.45 1077.33 967.13 944.72 843.61 882.04 837.55 818.87 
795.75 729.23 752.2 752.2 861.92 889.96 933.04 1000.32 1011.57 
959.65 751.95 680.65 844.46 1054.08 1196.76 1135.16 989.92 841.57 