# vtk DataFile Version 3.0
vtk output
ASCII
DATASET POLYDATA
POINTS 305 float
0.684867 -1.60504 1.17556 2.48515 -1.22907 1.15965 2.32021 0.27043 1.14272 
-0.378581 -1.38388 0.125429 3.36418 -0.315867 0.294855 3.80718 -0.340604 0.184561 
3.07119 -0.846828 -0.197291 2.94892 -1.22723 -0.233744 -0.611495 0.524233 -0.23081 
2.23222 -1.67771 -0.56528 2.63556 -1.44868 -0.701151 -0.416455 1.11531 -0.452265 
2.7699 -1.29263 -0.868036 -0.654675 0.0795141 -0.923151 1.63474 -1.6467 -1.21064 
1.69515 -1.46651 -1.37822 0.740258 -1.63716 -1.47265 0.508548 1.29032 -1.37685 
-0.106461 -0.47858 -1.73151 1.44368 0.260428 -1.69994 0.164702 0.47695 -1.74759 
1.28384 0.391919 -1.89095 1.12816 -0.843573 -2.12024 0.63734 -0.844139 -2.15335 
0.352689 -0.551311 -2.32419 0.266716 -0.533406 -2.22125 0.204793 -0.510713 -2.13092 
0.135125 -0.495196 -2.04993 0.0569804 -0.485653 -1.96302 -0.0242018 -0.480803 -1.85454 
0.375648 -0.639047 -2.27033 0.407705 -0.702637 -2.21912 0.455771 -0.747433 -2.17859 
0.502428 -0.788366 -2.16008 0.56521 -0.819102 -2.15377 0.396798 -0.480103 -2.24829 
0.441434 -0.445888 -2.17892 0.487618 -0.429337 -2.12011 0.538463 -0.424518 -2.06306 
0.599084 -0.429732 -2.03729 0.660091 -0.427003 -2.04024 0.729652 -0.433717 -2.08199 
0.794244 -0.452004 -2.1412 0.83566 -0.483848 -2.20437 0.865578 -0.523628 -2.25464 
0.892414 -0.568078 -2.28332 0.919787 -0.614352 -2.29722 0.955039 -0.658794 -2.29518 
1.00284 -0.699078 -2.27648 1.03747 -0.74906 -2.23777 1.07272 -0.800817 -2.18425 
1.18843 -0.841424 -2.11581 1.2311 -0.805421 -2.10657 1.27534 -0.772438 -2.09775 
1.32327 -0.746558 -2.08994 1.37199 -0.722183 -2.08235 1.42027 -0.699194 -2.06749 
1.46757 -0.678783 -2.03808 1.51339 -0.662239 -1.98683 1.55874 -0.646984 -1.92831 
1.60456 -0.63044 -1.87706 1.65186 -0.610029 -1.84765 1.70014 -0.58704 -1.83279 
1.74891 -0.562762 -1.82521 1.79821 -0.537292 -1.82492 1.84879 -0.512038 -1.83213 
1.90316 -0.494073 -1.84037 1.95876 -0.487407 -1.82037 2.00263 -0.469318 -1.76144 
2.05432 -0.472965 -1.68322 2.10379 -0.467889 -1.61868 2.15143 -0.45037 -1.58222 
2.19976 -0.427478 -1.56738 2.24804 -0.404489 -1.55252 2.29582 -0.382788 -1.53039 
2.34263 -0.363667 -1.49369 2.38993 -0.343255 -1.46428 2.43728 -0.322942 -1.43488 
2.48644 -0.301651 -1.42027 2.53875 -0.293119 -1.38508 2.59786 -0.302113 -1.33746 
2.6522 -0.313096 -1.25282 2.70931 -0.331618 -1.16179 2.76302 -0.348312 -1.05559 
2.82338 -0.37947 -0.959037 2.87892 -0.425263 -0.857869 2.9199 -0.481509 -0.753434 
2.96385 -0.548152 -0.609756 3.00582 -0.660426 -0.421236 1.09967 -0.924685 -2.07621 
1.06582 -0.995489 -2.03072 1.02046 -1.04417 -1.98208 0.973639 -1.09672 -1.9116 
0.93783 -1.17268 -1.83699 0.906451 -1.26163 -1.74931 0.876445 -1.35098 -1.66914 
0.846439 -1.44033 -1.58898 0.817017 -1.52412 -1.5304 0.783655 -1.59363 -1.49218 
1.32076 0.344127 -1.85924 1.378 0.30227 -1.79495 0.20614 0.51532 -1.73801 
0.23598 0.575764 -1.7253 0.258796 0.645809 -1.71136 0.271871 0.713143 -1.69855 
0.270964 0.772593 -1.68054 0.28252 0.836157 -1.64589 0.301517 0.900167 -1.58805 
0.322469 0.962088 -1.52289 0.348633 1.01646 -1.46627 0.383546 1.05846 -1.42633 
0.416583 1.1063 -1.39302 0.452475 1.15088 -1.36762 0.482063 1.21427 -1.36195 
-0.0764536 -0.384922 -1.84107 -0.057897 -0.299058 -1.9377 -0.0654058 -0.23035 -2.00897 
-0.0876422 -0.174201 -2.04575 -0.125006 -0.131856 -2.04076 -0.187686 -0.108387 -1.99559 
-0.252813 -0.0913621 -1.91402 -0.297615 -0.0684003 -1.79988 -0.332525 -0.0415596 -1.67685 
-0.366358 -0.0120925 -1.56835 -0.406994 0.0181707 -1.49033 -0.460561 0.0434331 -1.42412 
-0.505714 0.0683682 -1.31971 -0.562354 0.0821928 -1.14767 -0.142321 -0.549981 -1.67118 
-0.191505 -0.60022 -1.59291 -0.252673 -0.636329 -1.48279 -0.324501 -0.66086 -1.34118 
-0.396372 -0.691996 -1.17813 -0.475964 -0.708048 -1.01292 -0.556999 -0.71049 -0.868019 
-0.62634 -0.700913 -0.750357 -0.669274 -0.672839 -0.665343 -0.699681 -0.634348 -0.607798 
-0.726419 -0.589849 -0.579099 -0.751984 -0.542675 -0.564922 -0.775445 -0.493409 -0.557773 
-0.789951 -0.439684 -0.549234 -0.788824 -0.37713 -0.545621 -0.789573 -0.31342 -0.557002 
-0.773013 -0.236519 -0.597555 -0.7442 -0.147581 -0.67285 -0.705817 -0.04359 -0.787552 
1.70269 -1.52654 -1.35065 1.68064 -1.59252 -1.29597 -0.645962 0.16908 -0.874031 
-0.65027 0.23394 -0.832676 -0.650453 0.290726 -0.782418 -0.657442 0.337895 -0.699146 
-0.651599 0.386881 -0.571963 -0.635541 0.445153 -0.409777 2.72503 -1.33555 -0.840957 
2.68435 -1.39544 -0.786454 -0.406412 1.06163 -0.461098 -0.423172 1.00555 -0.472158 
-0.45735 0.957591 -0.48295 -0.486302 0.895439 -0.495905 -0.511616 0.822252 -0.498 
-0.53881 0.740156 -0.46411 -0.57173 0.642031 -0.370617 2.68945 -1.49224 -0.509226 
2.7333 -1.50981 -0.335989 2.77464 -1.50915 -0.204923 2.81811 -1.49477 -0.131596 
2.86 -1.45949 -0.115 2.89243 -1.39264 -0.138668 2.92087 -1.31143 -0.182686 
2.59723 -1.50194 -0.683005 2.54645 -1.52458 -0.682887 2.50107 -1.55091 -0.705686 
2.44503 -1.55896 -0.718422 2.39066 -1.57693 -0.710176 2.33812 -1.60733 -0.673864 
2.28539 -1.64183 -0.623206 2.96063 -1.05014 -0.282198 2.93576 -1.15834 -0.289987 
-0.564195 0.518254 -0.0226164 -0.512313 0.495162 0.150183 -0.467167 0.489201 0.282847 
-0.428448 0.507612 0.374154 -0.394563 0.5449 0.43581 -0.347754 0.564022 0.472501 
-0.289444 0.561023 0.506048 -0.238204 0.567163 0.555811 -0.19247 0.579429 0.621373 
-0.148058 0.592009 0.694444 -0.103697 0.604685 0.767528 -0.0588467 0.618651 0.833331 
-0.0130164 0.635196 0.884574 0.0342815 0.655607 0.913985 0.0825579 0.678595 0.928844 
0.131324 0.702874 0.936423 0.18009 0.727151 0.944003 0.228806 0.751526 0.951596 
0.276689 0.777503 0.959416 0.320045 0.812186 0.968475 0.35731 0.858585 0.979198 
0.406076 0.882863 0.986777 0.466394 0.884923 0.991198 0.521453 0.897098 0.997057 
0.576563 0.909175 1.0029 0.637814 0.90944 1.00707 0.692974 0.92142 1.0129 
0.749018 0.931702 1.01849 0.816562 0.919863 1.02093 0.888684 0.899221 1.02213 
0.957067 0.885771 1.02434 1.01773 0.887171 1.02867 1.08076 0.88402 1.03235 
1.14137 0.885516 1.03669 1.20843 0.872379 1.04642 1.27455 0.856576 1.07068 
1.33361 0.84992 1.11117 1.40013 0.83112 1.14247 1.47319 0.808682 1.14341 
1.54903 0.789798 1.11501 1.62542 0.772107 1.07931 1.70083 0.751837 1.05818 
1.77516 0.728942 1.05158 1.84738 0.703953 1.05201 1.91066 0.674507 1.05105 
1.95878 0.637521 1.04774 2.00977 0.601955 1.04486 2.04521 0.55761 1.04694 
2.07234 0.507033 1.06242 2.10524 0.456195 1.10086 2.15132 0.411139 1.14624 
2.18781 0.361976 1.17516 2.23531 0.314437 1.16994 2.98588 -1.19513 -0.142347 
3.02266 -1.08099 -0.132706 3.18971 -0.715919 0.0185727 3.22294 -0.644099 0.167204 
3.23928 -0.583363 0.237633 3.26751 -0.52024 0.242112 3.30533 -0.466225 0.229092 
3.33636 -0.397919 0.243277 3.76453 -0.396721 0.23961 3.70181 -0.400843 0.257277 
3.6308 -0.377294 0.239076 3.55658 -0.350337 0.221272 3.47087 -0.330088 0.24171 
3.27698 -0.27405 0.329068 3.21745 -0.23564 0.354483 3.15401 -0.206163 0.365494 
3.09385 -0.175438 0.369404 3.05467 -0.133994 0.37411 3.01663 -0.093035 0.386348 
2.9658 -0.060529 0.411302 2.9254 -0.0259661 0.459938 2.88451 0.00730626 0.515864 
2.8323 0.0359895 0.562664 2.79509 0.075276 0.589735 2.76723 0.12026 0.610912 
2.74039 0.16471 0.639595 2.71048 0.204491 0.68986 2.66901 0.236431 0.753042 
2.60264 0.254273 0.824623 2.52328 0.26427 0.909014 2.4318 0.269099 1.0168 
-0.3149 -1.40613 0.186085 -0.257363 -1.41656 0.24842 -0.193683 -1.43881 0.309076 
-0.131471 -1.46493 0.391563 -0.0758448 -1.48061 0.482998 -0.0142132 -1.51229 0.587074 
0.0524296 -1.55139 0.682643 0.118583 -1.59178 0.785483 0.180704 -1.62218 0.882289 
0.23633 -1.63786 0.973724 0.29996 -1.66001 1.03439 0.364714 -1.67541 1.06618 
0.419779 -1.6677 1.08632 0.474792 -1.6599 1.10648 0.539102 -1.67221 1.13124 
0.59928 -1.67434 1.14999 0.64146 -1.63962 1.16651 2.28451 0.163368 1.22189 
2.25316 0.069158 1.29357 2.22603 -0.0168524 1.35441 2.21014 -0.0955069 1.40978 
2.21672 -0.162588 1.46619 2.22329 -0.229672 1.5226 2.20758 -0.307848 1.57556 
2.18188 -0.389953 1.6196 2.15545 -0.47033 1.64882 2.13039 -0.54689 1.65619 
2.1063 -0.620872 1.64901 2.08281 -0.693516 1.63456 2.06102 -0.765308 1.62038 
2.04981 -0.831839 1.60784 2.06251 -0.886464 1.59902 2.08465 -0.935341 1.58431 
2.10071 -0.985156 1.55395 2.10654 -1.03693 1.49995 2.13563 -1.07503 1.43484 
2.18758 -1.1007 1.36593 2.22945 -1.1314 1.29545 2.27263 -1.16248 1.23254 
2.33722 -1.185 1.18766 2.41082 -1.20617 1.16625 
LINES 23 349
7 24 25 26 27 28 29 18 
7 24 30 31 32 33 34 23 
18 24 35 36 37 38 39 40 41 42 43 44 45 46 47 48 49 50 22 
40 22 51 52 53 54 55 56 57 58 59 60 61 62 63 64 65 66 67 68 69 70 71 72 73 74 75 76 77 78 79 80 81 82 83 84 85 86 87 88 6 
12 22 89 90 91 92 93 94 95 96 97 98 16 
4 21 99 100 19 
15 20 101 102 103 104 105 106 107 108 109 110 111 112 113 17 
16 18 114 115 116 117 118 119 120 121 122 123 124 125 126 127 13 
21 18 128 129 130 131 132 133 134 135 136 137 138 139 140 141 142 143 144 145 146 13 
4 15 147 148 14 
8 13 149 150 151 152 153 154 8 
4 12 155 156 10 
9 11 157 158 159 160 161 162 163 8 
9 10 164 165 166 167 168 169 170 7 
9 10 171 172 173 174 175 176 177 9 
4 6 178 179 7 
55 8 180 181 182 183 184 185 186 187 188 189 190 191 192 193 194 195 196 197 198 199 200 201 202 203 204 205 206 207 208 209 210 211 212 213 214 215 216 217 218 219 220 221 222 223 224 225 226 227 228 229 230 231 232 2 
4 7 233 234 6 
8 6 235 236 237 238 239 240 4 
7 5 241 242 243 244 245 4 
20 4 246 247 248 249 250 251 252 253 254 255 256 257 258 259 260 261 262 263 2 
19 3 264 265 266 267 268 269 270 271 272 273 274 275 276 277 278 279 280 0 
26 2 281 282 283 284 285 286 287 288 289 290 291 292 293 294 295 296 297 298 299 300 301 302 303 304 1 

POINT_DATA 305
SCALARS DY_raw double
LOOKUP_TABLE default
1975.94 1656.87 1611.77 1140.26 1939.01 1838.3 1233.08 1389.09 1479.55 
1371.9 1479.67 1440.04 1295.86 1123.77 1396.97 1419.02 1223.19 1622.49 
1502.83 2055.5 1401.6 1311.93 1489.35 1555.68 1121.26 1250.62 1436.55 
1460.1 1582.5 1716.83 1282.28 1336.44 1458.56 1506.9 1518.33 1240.35 
1444.51 1551.12 1557.3 1624.22 1594.58 1677.91 1744.94 1664.06 1542.07 
1614.01 1536.45 1441.67 1376.18 1462.23 1400.75 1667.27 1667.27 1781.83 
1795.26 1795.26 1733.72 1684.99 1684.99 1755.2 1754 1733.45 1728.7 
1728.7 1712.98 1752.9 1752.9 1704.82 1641.36 1707.39 1670.85 1623.11 
1623.11 1499.9 1429.2 1429.2 1292.55 1373.67 1350.22 1285.85 1290.9 
1266.85 1175.17 1167.07 1162.48 1199.35 1271.01 1347.49 1371.66 1537.63 
1620.2 1581.97 1799.17 1743.36 1287.48 1374.11 1104.18 1112.43 1284.19 
1511.32 1845.86 1401.6 1472.92 1505.84 1567.78 1704.04 1522.1 1585.65 
1521.68 1482.54 1350.25 1429.23 1521.68 1403.97 1379.77 1413.52 1304.71 
1191.66 1143.39 1248.53 1059.94 1209.6 1165.9 1215.73 1288.11 1262.92 
1075.25 1151.12 1446.6 1508.51 1392.87 1262.25 1402.75 1423.57 1346.24 
1319.15 1346.32 1396.1 1280.85 1350.53 1350.53 1381.33 1448.32 1640.14 
1644.16 1500.4 1355.11 1419.02 1375.61 1154.81 1287.33 1201.95 1268.68 
1342.81 1427.23 1359.8 1374.4 1289.48 1188.25 1219.64 1297.65 1336.41 
1424.5 1459.59 1565.25 1501.99 1411.04 1465.44 1526.94 1515.14 1382.43 
1352.99 1352.99 1325.11 1320.82 1320.82 1365.36 1367.57 1286.75 1355.47 
1461.33 1427.78 1437.46 1437.58 1395.88 1479.87 1417.57 1456.77 1535.03 
1463.2 1499.45 1556.56 1603.71 1698.02 1752.08 1801.58 1801.58 1780.33 
1573.95 1573.95 1453.23 1415.5 1415.5 1402.85 1450.6 1424.01 1509.21 
1509.21 1555.06 1494.29 1525.93 1481.83 1411.28 1397.98 1298.18 1285.22 
1369.23 1614.41 1637.25 1566.91 1614.29 1590.76 1663.93 1602.79 1605.86 
1740.43 1578.34 1578.34 1615.4 1487.67 1469.36 1631.04 1553.9 1493.46 
1340.16 1555.25 1794.26 1841.12 1847.01 1786.94 1769.01 1956.76 1894.68 
2006.5 1981 2058.81 1793.24 1850.85 2030.28 1946.72 2090.17 1790.66 
1929.01 1586.13 1568.36 1713.05 1657.39 1598.51 1393.6 1459.28 1594.13 
1530.65 1521.09 1524.02 1177.5 1293.68 1356.17 1421.77 1520.22 1602.63 
1597.46 1527.7 1601.61 1641.03 1732.69 1850.62 1720.57 1720.57 1707.12 
1844.29 1844.29 1639.65 1704.71 1558.13 1424.25 1597.39 1534.47 1432.69 
1385.35 1661.84 1390.22 1639.81 1810.89 1700.66 1814.83 1823.57 1580.9 
1667.47 1553.6 1506.86 1637.46 1579.07 1518.41 1515.41 1459.87 
FIELD FieldData 7
DY_minmax 1 305 double
0.889119 0.57941 0.535636 0.0779588 0.853274 0.755523 0.168054 0.319488 0.407298 
0.302808 0.407409 0.368951 0.228997 0.0619539 0.327138 0.348546 0.15846 0.546044 
0.429897 0.966343 0.33163 0.244596 0.416813 0.481192 0.0595163 0.18508 0.365561 
0.388414 0.507228 0.637612 0.215812 0.26839 0.386925 0.433842 0.444938 0.175116 
0.373286 0.47677 0.482763 0.547722 0.518955 0.59984 0.664903 0.58639 0.467981 
0.537812 0.462531 0.370524 0.306956 0.390485 0.330811 0.589507 0.589507 0.700707 
0.713744 0.713744 0.654006 0.606709 0.606709 0.674859 0.673693 0.653742 0.649137 
0.649137 0.63388 0.672625 0.672625 0.625955 0.564363 0.62845 0.592985 0.54664 
0.54664 0.42705 0.358427 0.358427 0.225787 0.304526 0.281761 0.219277 0.224181 
0.20084 0.111847 0.103988 0.0995277 0.135319 0.204877 0.279116 0.302572 0.463671 
0.543817 0.506716 0.717542 0.663367 0.220863 0.304947 0.0429458 0.0509518 0.217665 
0.43813 0.762859 0.33163 0.400858 0.432812 0.492939 0.625196 0.448598 0.510282 
0.448192 0.410197 0.281794 0.358454 0.448186 0.333937 0.310448 0.343202 0.23759 
0.127855 0.0809963 0.183054 0 0.145268 0.10285 0.151221 0.221478 0.197028 
0.0148568 0.0885004 0.37531 0.435405 0.323156 0.196377 0.332753 0.352959 0.277901 
0.251605 0.277979 0.326297 0.214432 0.282065 0.282065 0.311956 0.376983 0.563171 
0.567074 0.427536 0.286512 0.348546 0.306405 0.0920824 0.220719 0.137838 0.202618 
0.274567 0.356511 0.291063 0.305231 0.222808 0.12454 0.155014 0.230734 0.268352 
0.35386 0.387927 0.490479 0.42908 0.3408 0.393599 0.4533 0.441841 0.313023 
0.284449 0.284449 0.257384 0.253229 0.253229 0.296461 0.298603 0.220152 0.28686 
0.389615 0.357049 0.366443 0.366563 0.326084 0.407607 0.347136 0.385188 0.461147 
0.391425 0.42661 0.482051 0.527816 0.619352 0.671825 0.719876 0.719876 0.699247 
0.498922 0.498922 0.381752 0.345127 0.345127 0.33285 0.379198 0.353388 0.436088 
0.436088 0.480595 0.421609 0.452316 0.409508 0.341032 0.32812 0.231244 0.218665 
0.300218 0.538201 0.560365 0.492096 0.538082 0.515239 0.586263 0.526923 0.529904 
0.660522 0.503188 0.503188 0.539164 0.415182 0.397402 0.554343 0.479462 0.420802 
0.272 0.480774 0.71277 0.758252 0.763975 0.70567 0.688261 0.870502 0.810247 
0.91878 0.894033 0.969559 0.711778 0.767698 0.941864 0.860761 1 0.709277 
0.843565 0.510748 0.493498 0.633949 0.57992 0.522764 0.323872 0.387619 0.518513 
0.456902 0.447622 0.450458 0.11411 0.226884 0.287541 0.35121 0.446768 0.526768 
0.521746 0.454036 0.525774 0.564036 0.653005 0.767479 0.641241 0.641241 0.628186 
0.761334 0.761334 0.562698 0.625851 0.483571 0.353621 0.521675 0.460609 0.36181 
0.315863 0.584238 0.32059 0.562858 0.728915 0.621915 0.732736 0.741225 0.505675 
0.5897 0.479171 0.433807 0.560572 0.503898 0.445014 0.442104 0.388193 
WidthEq 1 305 double
1.33527 2.43798 3.2137 2.30132 1.84021 1.34934 3.45324 3.36143 3.4102 
1.63392 2.73252 2.01557 2.22434 3.44176 1.47367 1.82632 1.73614 1.62952 
2.55023 1 1.67832 1.67081 1.67484 1.2405 1.87646 1.9397 1.92735 
1.98795 2.03109 2.1509 1.72215 1.60418 1.45128 1.34719 1.38292 1.9371 
1.76049 1.65805 1.63766 1.67222 1.68364 1.62672 1.57776 1.63387 1.65767 
1.51832 1.56983 1.60954 1.64886 1.60765 1.73602 1.5877 1.5877 1.50632 
1.46448 1.46448 1.48372 1.48548 1.48548 1.50996 1.55851 1.53986 1.62937 
1.62937 1.64935 1.6395 1.6395 1.64963 1.65681 1.62058 1.69705 1.78663 
1.78663 1.98788 2.10721 2.10721 2.30487 2.2426 2.31444 2.42789 2.42782 
2.48378 2.80368 2.82 3.08395 3.31929 3.44977 3.29762 3.10246 1.61378 
1.47523 1.60731 1.51535 1.79844 2.59337 2.52592 2.8149 2.66024 2.34145 
1.66137 1.36784 1.67832 1.83565 1.9259 1.99003 1.93624 2.17851 2.16312 
2.25987 2.35098 2.50781 2.415 2.18759 2.25748 2.53897 2.29133 2.37248 
2.4493 2.52633 2.46704 3.03661 2.98854 3.21823 3.18046 3.11059 3.18577 
3.27692 3.43421 2.70496 2.67681 3.00536 3.53728 3.60937 3.71524 3.90385 
3.99372 3.39158 3.02857 3.12811 2.71439 2.71439 2.56618 2.22987 2.16384 
2.09895 2.3139 2.72026 1.82632 1.62129 3.77677 3.60126 3.67798 3.28094 
3.26653 3.34678 2.47001 2.58666 2.44831 2.66359 2.64159 2.57771 2.64067 
2.78114 3.07803 2.70784 2.79581 3.04882 2.94555 2.98045 3.1623 3.38089 
3.02425 3.02425 3.02042 2.71622 2.71622 2.06754 1.65179 3.25539 3.31346 
3.24865 3.05687 2.78354 2.57464 2.36644 2.2761 2.12424 2.01976 1.97035 
2.04241 2.03992 1.97194 1.98884 1.90489 1.90448 1.85419 1.85419 1.83438 
1.91489 1.91489 2.04796 2.09895 2.09895 2.08576 2.09594 2.12171 2.04858 
2.04858 1.97458 2.08069 2.03411 2.08417 2.16339 2.11574 2.34894 2.39155 
2.39225 2.08737 2.00611 2.12148 2.05507 1.9948 2.02764 2.11413 2.24219 
2.17251 2.42264 2.42264 2.50249 2.7939 2.91983 2.92909 3.16702 3.15414 
3.36186 2.64236 2.10388 2.06785 2.08245 2.07957 2.05899 1.48183 1.58252 
1.58249 1.60573 1.71696 1.88301 1.72695 1.50254 1.41941 1.384 1.64226 
1.62115 1.84724 2.20372 2.13761 2.42124 2.52756 2.71462 2.83926 2.75846 
2.91235 3.07539 3.25586 2.49465 2.36691 2.35004 2.11502 1.94747 1.86693 
1.85896 1.93575 1.85397 1.88627 1.8446 1.71535 1.77267 1.77267 1.82452 
1.56285 1.56285 3.20607 3.05263 3.15455 3.26703 3.19472 3.24516 3.29906 
3.15364 2.64724 2.7467 2.43657 2.25094 2.31953 2.27987 2.29178 2.39047 
2.41835 2.5143 2.62326 2.59343 2.72226 2.77997 2.83718 2.84241 
rRFP 1 305 double
3649.15 4817.89 5640.06 4673.05 4184.32 3664.06 5893.95 5796.64 5848.33 
3965.68 5130.07 4370.19 4591.46 5881.78 3795.84 4169.6 4074.02 3961.02 
4936.86 3293.8 4012.74 4004.78 4009.05 3548.7 4222.75 4289.77 4276.68 
4340.91 4386.63 4513.62 4059.19 3934.16 3772.1 3661.78 3699.65 4287.02 
4099.83 3991.26 3969.64 4006.27 4018.38 3958.05 3906.16 3965.63 3990.85 
3843.16 3897.75 3939.84 3981.52 3937.84 4073.89 3916.69 3916.69 3830.44 
3786.09 3786.09 3806.49 3808.35 3808.35 3834.3 3885.75 3865.99 3960.86 
3960.86 3982.04 3971.6 3971.6 3982.33 3989.94 3951.54 4032.59 4127.54 
4127.54 4340.84 4467.31 4467.31 4676.81 4610.81 4686.95 4807.2 4807.12 
4866.43 5205.49 5222.79 5502.54 5751.98 5890.27 5729.01 5522.16 3944.33 
3797.49 3937.48 3840.01 4140.05 4982.59 4911.1 5217.38 5053.46 4715.58 
3994.77 3683.67 4012.74 4179.49 4275.15 4343.12 4286.1 4542.88 4526.57 
4629.11 4725.68 4891.9 4793.53 4552.51 4626.58 4924.93 4662.46 4748.47 
4829.89 4911.53 4848.69 5452.37 5401.42 5644.86 5604.83 5530.78 5610.46 
5707.07 5873.78 5100.86 5071.02 5419.25 5983.02 6059.43 6171.64 6371.54 
6466.79 5828.6 5443.85 5549.35 5110.85 5110.85 4953.77 4597.32 4527.33 
4458.56 4686.38 5117.07 4169.6 3952.3 6236.85 6050.83 6132.15 5711.33 
5696.06 5781.11 4851.84 4975.47 4828.84 5057.01 5033.69 4965.99 5032.72 
5181.6 5496.27 5103.91 5197.15 5465.31 5355.86 5392.85 5585.58 5817.27 
5439.27 5439.27 5435.21 5112.79 5112.79 4425.27 3984.62 5684.25 5745.8 
5677.11 5473.84 5184.14 4962.73 4742.07 4646.32 4485.36 4374.63 4322.26 
4398.63 4395.99 4323.94 4341.86 4252.88 4252.44 4199.14 4199.14 4178.14 
4263.48 4263.48 4404.51 4458.56 4458.56 4444.58 4455.37 4482.68 4405.17 
4405.17 4326.74 4439.2 4389.84 4442.89 4526.86 4476.35 4723.52 4768.68 
4769.42 4446.28 4360.16 4482.44 4412.05 4348.17 4382.98 4474.65 4610.38 
4536.52 4801.63 4801.63 4886.26 5195.12 5328.6 5338.41 5590.59 5576.94 
5797.1 5034.51 4463.78 4425.6 4441.07 4438.02 4416.21 3804.48 3911.2 
3911.17 3935.8 4053.69 4229.69 4064.28 3826.43 3738.33 3700.8 3974.52 
3952.15 4191.78 4569.6 4499.53 4800.15 4912.83 5111.1 5243.2 5157.56 
5320.67 5493.47 5684.75 4877.95 4742.56 4724.68 4475.59 4298.01 4212.64 
4204.2 4285.59 4198.91 4233.14 4188.98 4051.99 4112.74 4112.74 4167.7 
3890.36 3890.36 5631.98 5469.35 5577.37 5696.59 5619.95 5673.41 5730.53 
5576.41 5039.68 5145.1 4816.4 4619.65 4692.35 4650.31 4662.94 4767.54 
4797.09 4898.78 5014.27 4982.65 5119.19 5180.36 5241 5246.54 
rGFP 1 305 double
5143.2 6544.19 7684.52 5128.88 6072.96 4985.28 6762.89 7174.1 7550.35 
4746.36 6548 5407.3 5387.22 6372.52 4563.46 5096.37 4628.41 5148.67 
6337.35 4560.28 4857.11 4696.77 4999.21 4434.6 4608.78 4930.6 5273.52 
5407.38 5718.98 6197.51 4713.05 4648.68 4621.56 4534.86 4604.51 4907.47 
5047.83 5076.63 5055.1 5220.83 5189.49 5234.28 5257.89 5223.64 5061.02 
4955.37 4916.75 4825.2 4773.91 4855.54 4936.51 5151.9 5151.9 5188.79 
5133.9 5133.9 5077.14 5007.8 5007.8 5155.07 5238.4 5174.05 5321.48 
5321.48 5330.1 5378.67 5378.67 5317.1 5224.21 5271.74 5340.3 5404.68 
5404.68 5486.41 5516.41 5516.41 5483.95 5585.38 5629.78 5626.68 5638.85 
5651.36 5799.58 5795.93 6089.8 6485.78 6889.48 6948.31 6760.3 4986.17 
4894.95 5047.51 5231.16 5640.11 5843.7 5975.67 5612.95 5464.12 5511.64 
5015.63 5029.63 4857.11 5208.54 5404.88 5624.72 5804.2 5820.69 5934.73 
5943.58 5990.2 5890.96 5956.37 5833.59 5674.22 6007.99 5743.62 5600.19 
5423.52 5393.35 5584.95 5723.41 6119.72 6256.91 6371.37 6511.58 6528.17 
6028.28 6457.96 6417.77 6542.77 6690.85 6969.73 7567.84 7793.69 7760.31 
7773.1 7070.95 6732.98 6511.44 6170.65 6170.65 6049.52 5734.35 6053.77 
5955.79 5976.56 6191.04 5096.37 4735.05 6866.22 7140.8 6925.52 6667.26 
6891.11 7281.4 5863.51 6059.88 5661.84 5669.78 5726.57 5849.75 6033.79 
6466.51 6997.46 6743.22 6704.07 6806.8 6821.31 7055.77 7296.1 7178.62 
6596.56 6596.56 6507.16 6092.43 6092.43 5327.73 4763.72 6693.65 6996.09 
7252.15 6869.33 6506.01 6206.04 5808.06 5873.12 5516.04 5447.12 5529.33 
5493.23 5563.53 5574.23 5694.32 5739.32 5841.57 5845.25 5845.25 5770.57 
5518.72 5518.72 5480.94 5475.85 5475.85 5430.8 5545.16 5526.12 5596.52 
5596.52 5575.38 5613.94 5608.7 5593.16 5557.94 5462.54 5554.12 5578.44 
5780.33 5874.65 5789.28 5828.96 5822.26 5678.02 5878.63 5893.3 6105.44 
6285.88 6328.53 6328.53 6547.31 6661.19 6795.06 7282.25 7426.01 7215.38 
7010.23 6614.31 6279.68 6311.94 6351.09 6220.86 6147.16 5404.36 5503.15 
5680.04 5685.73 6039.67 5881.47 5701.1 5555.35 5267.99 5397.59 5445.51 
5632 5434.75 5961 6166.62 6517.73 6545.1 6287.89 6648.05 6902.12 
6962.59 7182.74 7466.77 5442.23 5566.81 5691.84 5511.85 5465.36 5496.78 
5474.4 5462.04 5474.12 5600.2 5700.9 5679.25 5554.78 5554.78 5619.46 
5387.14 5387.14 7761.62 7708.64 7419.98 7157.86 7607.99 7484.4 7231.3 
6873.69 6904.07 6323.31 6500.31 6580.99 6449.51 6642.35 6684.02 6283.89 
6537.31 6410.99 6457.68 6751.42 6803.42 6725.91 6804.28 6654.33 
bkstRFP 1 305 double
1415.23 2583.97 3406.14 2439.13 1950.4 1430.14 3660.03 3562.72 3614.41 
1731.76 2896.15 2136.27 2357.54 3647.86 1561.92 1935.68 1840.1 1727.1 
2702.94 1059.88 1778.82 1770.86 1775.13 1314.78 1988.83 2055.85 2042.76 
2106.99 2152.71 2279.7 1825.27 1700.24 1538.18 1427.86 1465.73 2053.1 
1865.91 1757.34 1735.72 1772.35 1784.46 1724.13 1672.24 1731.71 1756.93 
1609.24 1663.83 1705.92 1747.6 1703.92 1839.97 1682.77 1682.77 1596.52 
1552.17 1552.17 1572.57 1574.43 1574.43 1600.38 1651.83 1632.07 1726.94 
1726.94 1748.12 1737.68 1737.68 1748.41 1756.02 1717.62 1798.67 1893.62 
1893.62 2106.92 2233.39 2233.39 2442.89 2376.89 2453.03 2573.28 2573.2 
2632.51 2971.57 2988.87 3268.62 3518.06 3656.35 3495.09 3288.24 1710.41 
1563.57 1703.56 1606.09 1906.13 2748.67 2677.18 2983.46 2819.54 2481.66 
1760.85 1449.75 1778.82 1945.57 2041.23 2109.2 2052.18 2308.96 2292.65 
2395.19 2491.76 2657.98 2559.61 2318.59 2392.66 2691.01 2428.54 2514.55 
2595.97 2677.61 2614.77 3218.45 3167.5 3410.94 3370.91 3296.86 3376.54 
3473.15 3639.86 2866.94 2837.1 3185.33 3749.1 3825.51 3937.72 4137.62 
4232.87 3594.68 3209.93 3315.43 2876.93 2876.93 2719.85 2363.4 2293.41 
2224.64 2452.46 2883.15 1935.68 1718.38 4002.93 3816.91 3898.23 3477.41 
3462.14 3547.19 2617.92 2741.55 2594.92 2823.09 2799.77 2732.07 2798.8 
2947.68 3262.35 2869.99 2963.23 3231.39 3121.94 3158.93 3351.66 3583.35 
3205.35 3205.35 3201.29 2878.87 2878.87 2191.35 1750.7 3450.33 3511.88 
3443.19 3239.92 2950.22 2728.81 2508.15 2412.4 2251.44 2140.71 2088.34 
2164.71 2162.07 2090.02 2107.94 2018.96 2018.52 1965.22 1965.22 1944.22 
2029.56 2029.56 2170.59 2224.64 2224.64 2210.66 2221.45 2248.76 2171.25 
2171.25 2092.82 2205.28 2155.92 2208.97 2292.94 2242.43 2489.6 2534.76 
2535.5 2212.36 2126.24 2248.52 2178.13 2114.25 2149.06 2240.73 2376.46 
2302.6 2567.71 2567.71 2652.34 2961.2 3094.68 3104.49 3356.67 3343.02 
3563.18 2800.59 2229.86 2191.68 2207.15 2204.1 2182.29 1570.56 1677.28 
1677.25 1701.88 1819.77 1995.77 1830.36 1592.51 1504.41 1466.88 1740.6 
1718.23 1957.86 2335.68 2265.61 2566.23 2678.91 2877.18 3009.28 2923.64 
3086.75 3259.55 3450.83 2644.03 2508.64 2490.76 2241.67 2064.09 1978.72 
1970.28 2051.67 1964.99 1999.22 1955.06 1818.07 1878.82 1878.82 1933.78 
1656.44 1656.44 3398.06 3235.43 3343.45 3462.67 3386.03 3439.49 3496.61 
3342.49 2805.76 2911.18 2582.48 2385.73 2458.43 2416.39 2429.02 2533.62 
2563.17 2664.86 2780.35 2748.73 2885.27 2946.44 3007.08 3012.62 
bkstGFP 1 305 double
2638.42 4039.41 5179.74 2624.1 3568.18 2480.5 4258.11 4669.32 5045.57 
2241.58 4043.22 2902.52 2882.44 3867.74 2058.68 2591.59 2123.63 2643.89 
3832.57 2055.5 2352.33 2191.99 2494.43 1929.82 2104 2425.82 2768.74 
2902.6 3214.2 3692.73 2208.27 2143.9 2116.78 2030.08 2099.73 2402.69 
2543.05 2571.85 2550.32 2716.05 2684.71 2729.5 2753.11 2718.86 2556.24 
2450.59 2411.97 2320.42 2269.13 2350.76 2431.73 2647.12 2647.12 2684.01 
2629.12 2629.12 2572.36 2503.02 2503.02 2650.29 2733.62 2669.27 2816.7 
2816.7 2825.32 2873.89 2873.89 2812.32 2719.43 2766.96 2835.52 2899.9 
2899.9 2981.63 3011.63 3011.63 2979.17 3080.6 3125 3121.9 3134.07 
3146.58 3294.8 3291.15 3585.02 3981 4384.7 4443.53 4255.52 2481.39 
2390.17 2542.73 2726.38 3135.33 3338.92 3470.89 3108.17 2959.34 3006.86 
2510.85 2524.85 2352.33 2703.76 2900.1 3119.94 3299.42 3315.91 3429.95 
3438.8 3485.42 3386.18 3451.59 3328.81 3169.44 3503.21 3238.84 3095.41 
2918.74 2888.57 3080.17 3218.63 3614.94 3752.13 3866.59 4006.8 4023.39 
3523.5 3953.18 3912.99 4037.99 4186.07 4464.95 5063.06 5288.91 5255.53 
5268.32 4566.17 4228.2 4006.66 3665.87 3665.87 3544.74 3229.57 3548.99 
3451.01 3471.78 3686.26 2591.59 2230.27 4361.44 4636.02 4420.74 4162.48 
4386.33 4776.62 3358.73 3555.1 3157.06 3165 3221.79 3344.97 3529.01 
3961.73 4492.68 4238.44 4199.29 4302.02 4316.53 4550.99 4791.32 4673.84 
4091.78 4091.78 4002.38 3587.65 3587.65 2822.95 2258.94 4188.87 4491.31 
4747.37 4364.55 4001.23 3701.26 3303.28 3368.34 3011.26 2942.34 3024.55 
2988.45 3058.75 3069.45 3189.54 3234.54 3336.79 3340.47 3340.47 3265.79 
3013.94 3013.94 2976.16 2971.07 2971.07 2926.02 3040.38 3021.34 3091.74 
3091.74 3070.6 3109.16 3103.92 3088.38 3053.16 2957.76 3049.34 3073.66 
3275.55 3369.87 3284.5 3324.18 3317.48 3173.24 3373.85 3388.52 3600.66 
3781.1 3823.75 3823.75 4042.53 4156.41 4290.28 4777.47 4921.23 4710.6 
4505.45 4109.53 3774.9 3807.16 3846.31 3716.08 3642.38 2899.58 2998.37 
3175.26 3180.95 3534.89 3376.69 3196.32 3050.57 2763.21 2892.81 2940.73 
3127.22 2929.97 3456.22 3661.84 4012.95 4040.32 3783.11 4143.27 4397.34 
4457.81 4677.96 4961.99 2937.45 3062.03 3187.06 3007.07 2960.58 2992 
2969.62 2957.26 2969.34 3095.42 3196.12 3174.47 3050 3050 3114.68 
2882.36 2882.36 5256.84 5203.86 4915.2 4653.08 5103.21 4979.62 4726.52 
4368.91 4399.29 3818.53 3995.53 4076.21 3944.73 4137.57 4179.24 3779.11 
4032.53 3906.21 3952.9 4246.64 4298.64 4221.13 4299.5 4149.55 
tubeWidth 1 305 double
0.253409 0.327341 0.204403 0.321724 0.233642 0.215543 0.136073 0.107525 0.215651 
0.130584 0.201582 0.302463 0.00584316 0.243872 0.235321 0.233197 0.234498 0.236465 
0.183388 0.114383 0.116956 0.256863 0.190227 0.0806372 0.16209 0.222412 0.219516 
0.252562 0.213472 0.212373 0.128626 0.173063 0.137855 0.133924 0.128265 0.222722 
0.185846 0.0882929 0.0836923 0.125942 0.105696 0.104535 0.17392 0.153767 0.105082 
0.108583 0.117398 0.135679 0.124303 0.148543 0.119071 0.193885 0.146257 0.106282 
0.141662 0.154602 0.110701 0.141991 0.177005 0.178103 0.17619 0.174139 0.185977 
0.203107 0.217175 0.21845 0.205716 0.162579 0.181298 0.223319 0.16544 0.165351 
0.185634 0.209909 0.229977 0.261149 0.258206 0.267155 0.271706 0.250812 0.236199 
0.234157 0.226807 0.204351 0.22278 0.235577 0.246999 0.263552 0.227989 0.172569 
0.157289 0.146604 0.196228 0.171428 0.242088 0.303093 0.296451 0.320895 0.291733 
0.225154 0.179744 0.209238 0.239833 0.233853 0.229808 0.184832 0.21307 0.250115 
0.252647 0.284245 0.265923 0.309037 0.287391 0.259591 0.129983 0.110309 0.159598 
0.15329 0.173002 0.235271 0.222378 0.293073 0.265457 0.241548 0.194897 0.190519 
0.173092 0.193184 0.239524 0.223795 0.269757 0.248805 0.250038 0.216859 0.249803 
0.256107 0.299321 0.299998 0.296293 0.298828 0.28251 0.229028 0.20066 0.183162 
0.258199 0.159953 0.179605 0.279138 0.301067 0.271907 0.196178 0.212415 0.217482 
0.217481 0.242779 0.127512 0.151105 0.310377 0.269678 0.254186 0.225355 0.210116 
0.2296 0.124496 0.143019 0.165874 0.248426 0.263366 0.241141 0.253495 0.221123 
0.292139 0.336366 0.286148 0.295796 0.315804 0.322332 0.253868 0.139048 0.141081 
0.187719 0.216967 0.236197 0.282312 0.257469 0.269046 0.246614 0.248482 0.242553 
0.210325 0.249656 0.249928 0.218628 0.21606 0.233703 0.262956 0.232378 0.217304 
0.214708 0.229701 0.253657 0.277749 0.2542 0.256726 0.271325 0.276552 0.283413 
0.258349 0.237508 0.211235 0.17568 0.209293 0.210038 0.227477 0.250886 0.273482 
0.270943 0.297347 0.2926 0.260985 0.238684 0.247018 0.271569 0.272174 0.27904 
0.270485 0.250715 0.242359 0.230197 0.241047 0.224075 0.231694 0.25651 0.139893 
0.134815 0.240435 0.219011 0.25057 0.271685 0.296294 0.296811 0.207252 0.204824 
0.216567 0.187958 0.233412 0.21583 0.161758 0.125666 0.141646 0.188798 0.20866 
0.220307 0.261834 0.276264 0.287574 0.26067 0.249681 0.249601 0.255833 0.26483 
0.254362 0.274572 0.232302 0.25719 0.277294 0.248918 0.256589 0.254391 0.248796 
0.238419 0.220906 0.202345 0.193211 0.242473 0.203855 0.18797 0.196245 0.134699 
0.149144 0.235671 0.232105 0.25426 0.215283 0.233731 0.257864 0.274816 0.284498 
0.311584 0.284098 0.277384 0.248358 0.227905 0.213346 0.187396 0.253454 0.321479 
0.323413 0.317098 0.288096 0.262469 0.245864 0.260782 0.301181 0.330308 
