# vtk DataFile Version 3.0
vtk output
ASCII
DATASET POLYDATA
POINTS 427 float
0.392536 0.0845495 0.677257 0.465586 0.924978 0.328961 -0.355659 0.0215728 0.443788 
1.12746 0.26653 0.557679 1.02959 1.06852 0.257628 0.432838 1.11614 0.111289 
0.3409 1.16412 0.074615 -0.224121 0.760545 0.180074 0.115746 1.17158 -0.121047 
1.54209 0.641822 0.229192 0.667182 1.07229 -0.0386613 1.85728 0.209973 0.303748 
1.78259 0.385948 0.226335 1.17991 1.18758 -0.183381 -0.254625 -0.641221 0.140302 
0.772794 1.30444 -0.3846 0.0151945 1.16289 -0.698311 -0.206871 0.998062 -0.419115 
0.658305 1.29472 -0.550224 0.298204 1.3 -0.630378 -0.594071 0.482994 -0.864691 
2.37401 0.0208656 -0.180624 -0.745062 0.418367 -0.983146 2.59063 0.0813552 -0.93311 
-0.0937154 -0.634741 -1.68433 2.8546 -0.371756 -1.58284 -0.126253 -0.573126 -2.01704 
3.48947 -0.433401 -1.49539 3.87295 -0.0884786 -1.9642 2.46786 -0.769724 -1.95194 
2.27062 -0.875649 -1.82291 2.25725 -0.729328 -2.09284 4.51365 -1.26296 -1.84893 
3.64537 -0.200949 -2.40692 5.06983 -0.378842 -2.25144 4.44408 -1.20909 -2.09895 
4.95938 -0.790714 -2.34846 4.88882 -0.814772 -2.35545 4.8363 -0.848248 -2.35523 
4.81746 -0.8993 -2.34158 4.78604 -0.943786 -2.33295 4.72687 -0.973795 -2.33539 
4.66479 -1.00067 -2.33154 4.62064 -1.03371 -2.30565 4.5819 -1.06475 -2.25525 
4.54327 -1.09424 -2.19735 4.50624 -1.12617 -2.14628 4.47367 -1.16525 -2.11576 
4.46268 -1.25393 -2.03928 4.48816 -1.26814 -1.95676 4.34468 -1.19082 -1.99081 
4.24825 -1.17732 -1.89639 4.15641 -1.17077 -1.82257 4.06947 -1.16585 -1.76313 
3.99516 -1.14497 -1.7145 3.94297 -1.09253 -1.68002 3.88702 -1.05596 -1.65687 
3.82369 -1.04604 -1.65008 3.76875 -1.02712 -1.65259 3.71831 -0.995984 -1.65037 
3.66949 -0.947682 -1.62974 3.62796 -0.882548 -1.60537 3.58487 -0.820171 -1.58038 
3.55352 -0.746616 -1.56473 3.53419 -0.666549 -1.54073 3.52846 -0.591561 -1.51199 
3.51161 -0.512254 -1.49519 5.01678 -0.366499 -2.26727 4.95693 -0.36535 -2.28069 
4.90487 -0.351376 -2.29687 4.85786 -0.329099 -2.31484 4.81234 -0.309205 -2.33966 
4.76321 -0.300086 -2.36952 4.70684 -0.307705 -2.40315 4.64919 -0.307762 -2.42367 
4.58077 -0.315878 -2.42773 4.50931 -0.319315 -2.41806 4.44471 -0.311473 -2.41082 
4.37027 -0.310144 -2.38744 4.28838 -0.296905 -2.32979 4.20427 -0.257976 -2.23352 
4.10642 -0.221008 -2.11554 3.99747 -0.17452 -2.01929 3.68998 -0.148912 -2.2712 
3.75199 -0.115963 -2.12506 2.22262 -0.60079 -2.11303 2.20468 -0.505574 -2.102 
2.2215 -0.439973 -2.06509 2.2698 -0.39455 -2.02234 2.31425 -0.352051 -2.00343 
2.31814 -0.29159 -2.0156 2.30368 -0.22316 -2.04252 2.28593 -0.153129 -2.07073 
2.26707 -0.0845374 -2.09867 2.24448 -0.0269087 -2.13162 2.21523 0.0100725 -2.17486 
2.18698 0.0342104 -2.23742 2.14376 0.0288835 -2.30102 2.10158 0.0301031 -2.35865 
2.05816 0.0437886 -2.39686 2.00754 0.055287 -2.41988 1.94774 0.0565202 -2.43331 
1.89562 0.0704014 -2.44947 1.84917 0.088766 -2.47397 1.79998 0.0977921 -2.50381 
1.74217 0.0926373 -2.53061 1.68099 0.101267 -2.5309 1.60873 0.115839 -2.49564 
1.53463 0.141903 -2.44076 1.45577 0.150462 -2.39684 1.38288 0.149493 -2.38033 
1.32225 0.154202 -2.38714 1.26136 0.153645 -2.40019 1.20825 0.165896 -2.416 
1.15515 0.178155 -2.43181 1.09431 0.177674 -2.44488 1.0361 0.181538 -2.45888 
0.972875 0.18177 -2.4647 0.910771 0.190224 -2.45713 0.842381 0.189578 -2.41574 
0.777029 0.180981 -2.3469 0.695154 0.18232 -2.26911 0.608782 0.184694 -2.20866 
0.530521 0.189201 -2.1712 0.465313 0.200879 -2.15742 0.39752 0.208305 -2.14272 
0.330374 0.226461 -2.11561 0.259094 0.242659 -2.08069 0.195504 0.271501 -2.04851 
0.13247 0.296423 -2.02285 0.0536527 0.30485 -1.97887 -0.0341528 0.309696 -1.91159 
-0.122048 0.320475 -1.80635 -0.203291 0.334077 -1.66863 -0.303778 0.364943 -1.50507 
-0.415401 0.407235 -1.31988 -0.518958 0.450932 -1.10541 2.15768 -0.722903 -2.11673 
2.08596 -0.716162 -2.13467 2.01727 -0.725854 -2.14624 1.9502 -0.736389 -2.15717 
1.89007 -0.735694 -2.17049 1.82314 -0.746184 -2.1814 1.75863 -0.757529 -2.19949 
1.70907 -0.753953 -2.23553 1.66485 -0.756079 -2.29244 1.6129 -0.770939 -2.34661 
1.55973 -0.778143 -2.3877 1.49279 -0.788641 -2.39861 1.42586 -0.79914 -2.40951 
1.36667 -0.796899 -2.42317 1.30479 -0.799094 -2.43586 1.24113 -0.789706 -2.42895 
1.16823 -0.790676 -2.41245 1.09677 -0.794109 -2.40277 1.03366 -0.788651 -2.40239 
0.962206 -0.792088 -2.39272 0.886329 -0.788291 -2.3625 0.815214 -0.766991 -2.32132 
0.739914 -0.747748 -2.27234 0.667253 -0.724157 -2.22429 0.586009 -0.714884 -2.17312 
0.502619 -0.717277 -2.12638 0.429687 -0.73023 -2.08971 0.37328 -0.753123 -2.06199 
0.307813 -0.758623 -2.03429 0.234341 -0.735032 -1.97841 0.143573 -0.707588 -1.8796 
0.0494014 -0.675879 -1.767 -0.0306831 -0.645163 -1.69101 2.36586 -0.73711 -2.02749 
2.26696 -0.816107 -1.94849 2.27372 -0.936544 -1.79307 2.25426 -0.982464 -1.75732 
2.22736 -1.01969 -1.7022 2.2032 -1.05673 -1.63853 2.16338 -1.08721 -1.58857 
2.14348 -1.13289 -1.553 2.11087 -1.17355 -1.52994 2.05721 -1.20162 -1.50784 
2.0102 -1.22834 -1.46075 1.96835 -1.25615 -1.40413 1.91955 -1.28195 -1.35775 
1.85277 -1.30317 -1.34088 1.78054 -1.32475 -1.34108 1.71653 -1.35223 -1.34545 
1.6651 -1.38627 -1.3448 1.60109 -1.41375 -1.34917 1.52876 -1.43528 -1.34941 
1.46028 -1.45561 -1.33322 1.39849 -1.47303 -1.28457 1.32111 -1.47748 -1.21978 
1.24074 -1.47717 -1.14131 1.17454 -1.48734 -1.07211 1.10099 -1.49647 -1.02889 
1.02876 -1.50005 -1.01133 0.964272 -1.49088 -0.996519 0.897373 -1.49391 -0.961985 
0.83598 -1.50565 -0.90721 0.764616 -1.50153 -0.852105 0.692633 -1.48032 -0.803076 
0.612383 -1.46942 -0.752272 0.533024 -1.45684 -0.701846 0.46656 -1.42306 -0.655988 
0.406078 -1.37944 -0.612259 0.345651 -1.33572 -0.568541 0.278683 -1.29793 -0.516185 
0.202544 -1.27039 -0.454244 0.133586 -1.22621 -0.388537 0.076266 -1.16771 -0.333264 
0.0282336 -1.09876 -0.287619 -0.0315984 -1.04924 -0.237793 -0.101158 -1.00597 -0.171889 
-0.155924 -0.917864 -0.0863287 -0.204776 -0.793573 0.0199637 2.36372 -0.843387 -1.87893 
2.55672 -0.648847 -1.90158 2.61866 -0.573859 -1.84512 2.65856 -0.514778 -1.78626 
2.7103 -0.46552 -1.7204 2.77555 -0.419133 -1.65028 3.83697 -0.173901 -1.86228 
3.8057 -0.221916 -1.76432 3.75526 -0.240329 -1.67282 3.71655 -0.265134 -1.59256 
3.66375 -0.287231 -1.54032 3.62113 -0.32106 -1.51382 3.58005 -0.358901 -1.50159 
3.52915 -0.393224 -1.50073 2.92913 -0.436144 -1.61097 2.99848 -0.477089 -1.6457 
3.06856 -0.49449 -1.67511 3.12513 -0.512458 -1.67525 3.17674 -0.522335 -1.65258 
3.23167 -0.51224 -1.61212 3.2849 -0.504944 -1.57105 3.34686 -0.483294 -1.53308 
3.41696 -0.457922 -1.51065 -0.127024 -0.591822 -1.87461 -0.116659 -0.606709 -1.7551 
2.78059 -0.243469 -1.42737 2.72525 -0.119583 -1.27165 2.67612 -0.0114837 -1.10641 
2.55714 0.151817 -0.99958 2.52461 0.201493 -1.03994 2.50735 0.261623 -1.05125 
2.50263 0.33196 -1.03136 2.48422 0.41356 -1.00768 2.45896 0.497133 -0.994189 
2.43423 0.575206 -0.994681 2.40425 0.644839 -0.993382 2.36257 0.704881 -0.975288 
2.31948 0.772303 -0.944045 2.26377 0.828607 -0.895668 2.19481 0.872791 -0.829952 
2.11265 0.909767 -0.740585 2.03575 0.960227 -0.646753 1.9603 1.00822 -0.559759 
1.88151 1.03624 -0.490562 1.80746 1.06238 -0.435697 1.72718 1.07343 -0.384941 
1.64931 1.08362 -0.34137 1.58577 1.11254 -0.309204 1.52877 1.1474 -0.285685 
1.46524 1.17632 -0.253519 1.38886 1.18413 -0.216795 1.31299 1.18794 -0.186587 
1.24839 1.19578 -0.179347 2.56094 0.0430241 -0.746777 2.51735 0.0302271 -0.563676 
2.4669 0.0209445 -0.371939 -0.674042 0.452616 -0.927564 2.24545 0.0561152 -0.0106868 
2.12776 0.0948415 0.140402 2.0312 0.127208 0.248254 1.94937 0.167062 0.298658 
-0.563626 0.410231 -0.812762 -0.549742 0.352527 -0.737644 -0.550516 0.311297 -0.627409 
-0.568648 0.287951 -0.483134 -0.600238 0.272429 -0.340507 -0.616177 0.245532 -0.206528 
-0.616256 0.202457 -0.103509 -0.607922 0.150588 -0.027628 -0.588375 0.0976302 0.0190466 
-0.558613 0.0566463 0.055782 -0.53264 0.0166942 0.103905 -0.501348 0.00227661 0.182061 
-0.450028 0.00759148 0.296591 -0.59188 0.579423 -0.637542 -0.581072 0.647923 -0.430834 
-0.554863 0.699628 -0.26698 -0.534914 0.717524 -0.128758 -0.520118 0.705099 -0.01714 
-0.488012 0.706643 0.0693604 -0.428967 0.723503 0.108365 -0.362611 0.737689 0.125875 
-0.296756 0.742918 0.13838 0.119903 1.21972 -0.765337 0.203309 1.25342 -0.780937 
0.262268 1.2812 -0.729731 -0.0728253 1.09001 -0.658098 -0.146207 1.05444 -0.611652 
-0.189793 1.02895 -0.532219 0.374045 1.30674 -0.688284 0.434784 1.32244 -0.73657 
0.496225 1.33099 -0.750195 0.543241 1.32672 -0.71447 0.581216 1.31879 -0.655411 
0.618298 1.30918 -0.595976 0.290646 1.27033 -0.485606 0.283788 1.23758 -0.352956 
0.268422 1.20375 -0.245807 0.215421 1.18145 -0.169519 0.665375 1.24888 -0.463368 
0.686001 1.22035 -0.395596 0.730601 1.24208 -0.369434 0.717481 1.31516 -0.475071 
0.0702479 1.14855 -0.497887 0.0983345 1.15841 -0.30906 0.00187572 1.09408 -0.397752 
0.0368248 1.11522 -0.211365 0.850761 1.33051 -0.342013 0.911705 1.33729 -0.307099 
0.972407 1.34275 -0.285118 1.02913 1.33799 -0.268456 1.08283 1.32672 -0.252859 
1.11503 1.28007 -0.229642 1.14201 1.22484 -0.204576 -0.306967 -0.51777 0.190088 
-0.345022 -0.415877 0.226449 -0.373187 -0.327171 0.2501 -0.391823 -0.237421 0.289199 
-0.385146 -0.130441 0.358681 -0.17647 -0.592294 0.212349 -0.108174 -0.549225 0.27628 
-0.0431781 -0.514142 0.326252 0.0178927 -0.494022 0.364565 0.0660774 -0.495029 0.407418 
0.111191 -0.491225 0.463938 0.166034 -0.463074 0.522131 0.218446 -0.422176 0.567345 
0.252191 -0.372606 0.589478 0.276121 -0.317792 0.607653 0.296886 -0.258119 0.639459 
0.322896 -0.199576 0.680816 0.354711 -0.145669 0.717029 0.365589 -0.0856489 0.722547 
0.382139 -0.0317953 0.715436 0.39712 0.0212712 0.700249 1.16353 1.15762 -0.0644517 
1.12752 1.13488 0.0396991 1.08089 1.10896 0.142649 1.53286 0.707892 0.134844 
1.51388 0.779814 0.0977069 1.47668 0.85491 0.122221 1.41535 0.903662 0.174662 
1.33559 0.920416 0.231558 1.25784 0.930791 0.275089 1.1958 0.957483 0.300349 
1.14353 0.988071 0.302364 1.09066 1.02227 0.286984 1.82507 0.322576 0.249592 
1.81023 0.307845 0.267504 1.75063 0.452329 0.228335 1.70421 0.503094 0.245954 
1.65544 0.55234 0.263602 1.60886 0.606561 0.258639 1.7506 0.193241 0.390443 
1.66038 0.190521 0.483845 1.58835 0.190257 0.580348 1.51345 0.203079 0.655673 
1.447 0.238229 0.709069 1.38711 0.277802 0.746337 1.32506 0.304345 0.771647 
1.25619 0.300336 0.77408 1.19478 0.28441 0.742233 1.15515 0.275316 0.664728 
0.605581 1.09474 -0.0198288 0.525183 1.10559 0.0309581 1.43419 0.631466 0.324084 
1.3551 0.62409 0.421525 1.28154 0.621484 0.513182 1.22941 0.6027 0.583089 
1.19374 0.566849 0.619816 1.17002 0.513528 0.609177 1.15096 0.452962 0.578043 
1.13351 0.391557 0.547561 1.12147 0.332143 0.54158 -0.165015 0.738128 0.248762 
-0.115007 0.728196 0.311122 -0.0518105 0.743553 0.343543 0.0197567 0.766313 0.359206 
0.0937651 0.788452 0.367606 0.167737 0.81073 0.375951 0.240747 0.833055 0.3814 
0.3081 0.858154 0.376646 0.3725 0.890845 0.355274 0.386869 1.14013 0.0929521 
0.457902 1.03389 0.107967 0.468329 0.972086 0.179759 0.936192 1.05643 0.313573 
0.866703 1.03955 0.368378 0.792743 1.02613 0.404985 0.716193 1.00939 0.415502 
0.641234 0.986337 0.404543 0.561563 0.957117 0.373357 1.03506 0.276984 0.63803 
0.952181 0.2886 0.696023 0.881603 0.305747 0.730752 0.804807 0.309367 0.76883 
0.731347 0.300189 0.812095 0.672643 0.279688 0.854483 0.615521 0.251824 0.867763 
0.568686 0.212172 0.855342 0.513619 0.170401 0.809854 0.453092 0.12827 0.747287 
-0.226276 0.070952 0.499369 -0.142558 0.100264 0.546264 -0.0860243 0.111698 0.592326 
-0.0284951 0.137552 0.647319 0.0270674 0.163192 0.706541 0.0721597 0.166762 0.763138 
0.120845 0.161741 0.799487 0.181689 0.162223 0.812552 0.245799 0.148737 0.799159 
0.320057 0.12778 0.750548 
LINES 44 525
13 36 37 38 39 40 41 42 43 44 45 46 47 35 
4 35 48 49 32 
19 35 50 51 52 53 54 55 56 57 58 59 60 61 62 63 64 65 66 27 
18 34 67 68 69 70 71 72 73 74 75 76 77 78 79 80 81 82 28 
4 33 83 84 28 
54 31 85 86 87 88 89 90 91 92 93 94 95 96 97 98 99 100 101 102 103 104 105 106 107 108 109 110 111 112 113 114 115 116 117 118 119 120 121 122 123 124 125 126 127 128 129 130 131 132 133 134 135 136 20 
3 31 170 29 
3 31 171 30 
45 30 172 173 174 175 176 177 178 179 180 181 182 183 184 185 186 187 188 189 190 191 192 193 194 195 196 197 198 199 200 201 202 203 204 205 206 207 208 209 210 211 212 213 214 14 
3 30 215 29 
7 29 216 217 218 219 220 25 
10 28 221 222 223 224 225 226 227 228 27 
11 25 229 230 231 232 233 234 235 236 237 27 
5 25 240 241 242 23 
27 23 243 244 245 246 247 248 249 250 251 252 253 254 255 256 257 258 259 260 261 262 263 264 265 266 267 13 
3 22 271 20 
15 20 276 277 278 279 280 281 282 283 284 285 286 287 288 2 
5 16 298 299 300 19 
5 16 301 302 303 17 
8 19 304 305 306 307 308 309 18 
6 19 310 311 312 313 8 
5 18 314 315 316 15 
3 18 317 15 
4 16 318 319 8 
4 16 320 321 8 
9 15 322 323 324 325 326 327 328 13 
7 14 329 330 331 332 333 2 
18 14 334 335 336 337 338 339 340 341 342 343 344 345 346 347 348 349 0 
5 13 350 351 352 4 
11 9 353 354 355 356 357 358 359 360 361 4 
3 12 362 11 
3 12 363 11 
6 12 364 365 366 367 9 
12 11 368 369 370 371 372 373 374 375 376 377 3 
4 10 378 379 5 
11 9 380 381 382 383 384 385 386 387 388 3 
3 6 398 5 
4 5 399 400 1 
8 4 401 402 403 404 405 406 1 
12 3 407 408 409 410 411 412 413 414 415 416 0 
12 2 417 418 419 420 421 422 423 424 425 426 0 
38 31 137 138 139 140 141 142 143 144 145 146 147 148 149 150 151 152 153 154 155 156 157 158 159 160 161 162 163 164 165 166 167 168 169 24 239 238 26 
10 23 268 269 270 21 272 273 274 275 11 
21 20 289 290 291 292 293 294 295 296 297 7 389 390 391 392 393 394 395 396 397 1 

POINT_DATA 427
SCALARS DY_raw double
LOOKUP_TABLE default
1192.97 2143.07 1544.05 1352.64 1669.14 1989.78 2112.03 1594.97 2250.97 
1677.02 1655.05 1300.03 1182.64 1455.32 1497.78 1876.21 1363.8 1792.23 
1630.96 1776.03 1326 1186.65 1328.57 1213.1 1607.68 1181.14 1001.85 
1520.63 802.073 1202.42 1228.52 1137.72 2005.3 950.425 2577.41 1136.85 
1200.04 1200.04 1052.15 1145.97 1145.97 1099.6 1237.09 1237.09 1266.93 
1229.04 1285.24 1123.86 1160.28 1709.47 1091.95 1114.18 1209.33 1488.71 
1562.97 1671.79 1526.15 1449.96 1449.96 1470.36 1474.74 1600.8 1646.76 
1780.2 1754.68 1630.03 1670.51 2006.88 2006.88 1746.31 1447.45 1447.45 
1348.37 1162.61 1281.99 1165.59 1256.2 1438.29 1349.86 1217.69 1288.36 
1121.86 909.72 823.677 818.562 1264.27 1305.83 1405.26 1459.84 1626.46 
1616.16 1589.62 1607.68 1595.22 1660.6 1559.74 1405.04 1345.1 1373.59 
1345.21 1342.84 1342.84 1329.16 1346.42 1346.42 1258.33 1517.23 1664.08 
1936.38 2039.16 2427.4 1982.91 1749.73 1834.8 1505.87 1505.87 1362.11 
1362.11 1440.57 1595.91 1642.27 1526.77 1585.69 1879.86 1482.91 1400.17 
1524.3 1447.48 1267.59 1153.96 1373.48 1393.66 1193.14 1091.72 1145.27 
1295.79 1159.36 1243.51 1448.96 1458.06 1580.86 1505.84 1396.65 1540.99 
1433.75 1385.83 1279.39 1086.35 1086.35 1088.53 1112.2 1112.2 1209.3 
1195.91 1446.35 1569.67 1603.63 1745.89 1493.42 1418.36 1552.72 1412.35 
1283.48 1159.11 1091.97 1132.03 1149.99 1451.09 1393.41 1787.65 1098.52 
1241.72 1228.52 1210.76 1158.7 1216.13 1187.21 1160.07 1228.28 1302.95 
1471.38 1390.05 1618.35 1438.74 1500.35 1527.84 1391.2 1349.31 1499.42 
1416.28 1222.3 1271.68 1199.86 1266.44 1313.02 1222.01 1410.8 1437.21 
1323.51 1248.5 1183.96 1286.79 1350.5 1430.07 1374.13 1290.99 1463.92 
1470.06 1469.9 1554.78 1579.39 1596.01 1653.01 1674.81 1597.61 1260.51 
1387.24 1337.25 1343.39 1229.82 1163.14 910.838 1122.67 1244.56 1273.74 
1332.79 1263.71 1276.29 1276.29 1085.06 1141.5 1295.54 1257.81 1257.81 
1431.98 1526.55 1448.4 1357.7 1131.81 1361.78 1243.04 1428 1247.56 
1119.16 1007.81 1113.29 1164.19 1256.51 1395.18 1426.3 1359.53 1341.88 
1260.75 1340.63 1167.72 1092.74 1250.14 1140.49 1269.92 1473.24 1414.97 
1528.14 1521.47 1563.38 1628.5 1755.01 1591.83 1533.84 1373.93 1339.3 
1271.46 1183.36 1180.5 1291.74 1157.51 1250.52 1599.35 1869.57 1761.37 
1473.92 1274.08 1219.84 1207.77 1221.43 1181.19 1204.72 1223.31 1267.22 
1403.54 1562.36 1400.4 1574.45 1730.16 1814.29 1915.91 1787.89 1841.34 
1691.03 1439.74 1520.28 1614.23 1352.05 1372.61 1584.28 1619.4 1603.93 
1613 1763.3 1712.78 1784.1 1931.25 1963.48 1985.33 2102.72 1718.4 
1824.67 1981.32 1706.02 1913.14 2120.74 2048.35 2156.24 1850.64 1785.84 
1900.67 1716.11 1644.5 1545.23 1545.23 1343.74 1455.56 1389.99 1295.1 
1349.28 1590.74 1670.38 1789.38 1573.65 1709.53 1525.55 1531.53 1450.91 
1528.07 1319.27 1405.1 1339.49 1307.26 1307.26 1198.35 1180.14 1549.44 
1557.91 1585.91 1630.73 1634.62 1766.3 1820.91 1932.1 1919.21 1842.76 
1825.05 1692.98 1137.78 1261.65 1320.56 1458.91 1528.67 1610.06 1397.5 
1552.77 1718.48 1725.85 1671.95 1699.98 1765.88 1772.51 1749.13 1589.38 
1527.1 1614.66 1784.63 1735.57 1745.6 1705.07 1705.07 1530.56 1510.36 
1366.1 1352.64 1739.92 1972.13 2033 2190.02 2230.12 2118.8 2145.64 
2080.8 2255.83 1989.78 1644.12 1662.12 1618.33 1688.98 1818.13 2061.68 
2184.28 2230.26 1490.13 1853.09 2160.43 2398.93 2262.04 2169.32 2236.6 
1772.83 1547.13 1354.79 1647.73 1635.24 1644.07 1842.33 1750.44 1750.2 
1511.24 1511.24 1411.93 1338.34 
FIELD FieldData 7
DY_minmax 1 427 double
0.22018 0.755347 0.417934 0.31012 0.488393 0.669005 0.737866 0.446619 0.816125 
0.492837 0.480458 0.280487 0.214364 0.367956 0.391875 0.605032 0.316404 0.55773 
0.466888 0.548605 0.295112 0.216623 0.296561 0.23152 0.453777 0.213518 0.112528 
0.404747 0 0.225506 0.240208 0.189061 0.677746 0.0835628 1 0.188573 
0.224166 0.224166 0.140861 0.193706 0.193706 0.167589 0.245031 0.245031 0.26184 
0.240499 0.272156 0.181253 0.201771 0.511113 0.163281 0.175799 0.229396 0.386766 
0.428591 0.489886 0.407856 0.364935 0.364935 0.37643 0.378895 0.449902 0.475787 
0.550952 0.536581 0.466366 0.489168 0.678636 0.678636 0.531864 0.363524 0.363524 
0.307716 0.203083 0.270325 0.204761 0.2558 0.358366 0.308553 0.234107 0.273911 
0.180127 0.0606347 0.012169 0.00928775 0.260342 0.283752 0.339761 0.370502 0.464356 
0.458554 0.443602 0.453776 0.446756 0.483584 0.426775 0.339634 0.305872 0.321921 
0.305937 0.304601 0.304601 0.296892 0.306618 0.306618 0.256997 0.402831 0.485544 
0.638924 0.696817 0.915501 0.665135 0.533792 0.581706 0.396433 0.396433 0.315453 
0.315453 0.359651 0.447149 0.47326 0.408203 0.441391 0.607091 0.383495 0.33689 
0.406811 0.363542 0.262211 0.198211 0.321856 0.333224 0.220278 0.163151 0.193315 
0.278098 0.20125 0.248649 0.364374 0.369497 0.438672 0.396415 0.334907 0.416213 
0.355806 0.328817 0.268861 0.160126 0.160126 0.161351 0.174684 0.174684 0.229377 
0.221838 0.362907 0.432369 0.451498 0.53163 0.389419 0.347139 0.422817 0.343753 
0.271161 0.201109 0.163293 0.185857 0.195975 0.365574 0.333082 0.555147 0.166979 
0.247641 0.240208 0.2302 0.20088 0.233224 0.216937 0.201652 0.240073 0.282133 
0.377005 0.331191 0.459789 0.358615 0.393322 0.408807 0.331837 0.308244 0.392796 
0.345968 0.236701 0.264518 0.224061 0.261568 0.287804 0.236541 0.342879 0.357754 
0.293713 0.25146 0.215104 0.273028 0.308914 0.353737 0.322227 0.275392 0.372801 
0.376257 0.376168 0.423977 0.437843 0.447201 0.479309 0.491587 0.448104 0.258226 
0.329609 0.301453 0.30491 0.240939 0.20338 0.0612644 0.180581 0.249242 0.265676 
0.298941 0.260026 0.267115 0.267115 0.159397 0.191188 0.277956 0.256702 0.256702 
0.354809 0.40808 0.364057 0.312971 0.18573 0.315271 0.248383 0.352571 0.25093 
0.178606 0.115884 0.175302 0.203969 0.25597 0.334082 0.351612 0.313999 0.30406 
0.258359 0.303354 0.205961 0.163727 0.252387 0.190621 0.263526 0.378052 0.345226 
0.408975 0.405217 0.428825 0.465505 0.536766 0.444851 0.412186 0.322109 0.302608 
0.264393 0.214768 0.213158 0.275817 0.200207 0.252601 0.449085 0.601295 0.540345 
0.378434 0.265867 0.235319 0.228518 0.236215 0.213544 0.226803 0.237273 0.262005 
0.338793 0.428248 0.337023 0.435058 0.522767 0.570157 0.627396 0.555282 0.585391 
0.500723 0.359179 0.404548 0.457465 0.309789 0.321369 0.440594 0.460381 0.451666 
0.456774 0.541432 0.512976 0.55315 0.636037 0.654191 0.666498 0.732618 0.516141 
0.575999 0.664239 0.509167 0.625835 0.742769 0.701995 0.762764 0.590631 0.554132 
0.618809 0.514852 0.474518 0.418601 0.418601 0.305107 0.368092 0.331158 0.277709 
0.308228 0.444234 0.489093 0.556126 0.434609 0.511145 0.407517 0.410881 0.365472 
0.408936 0.291325 0.33967 0.30271 0.284559 0.284559 0.22321 0.212954 0.420973 
0.425744 0.441513 0.466759 0.468951 0.543126 0.573881 0.636515 0.629253 0.586189 
0.576218 0.501825 0.189096 0.258867 0.292052 0.369978 0.409275 0.455117 0.335387 
0.422846 0.516189 0.52034 0.489977 0.505765 0.542887 0.546621 0.533454 0.443467 
0.408387 0.457711 0.553446 0.525813 0.531466 0.508634 0.508634 0.410336 0.398959 
0.317704 0.31012 0.528264 0.659062 0.693346 0.781796 0.804383 0.741678 0.756795 
0.720271 0.818863 0.669005 0.474305 0.484443 0.459775 0.499571 0.572319 0.709504 
0.778563 0.804461 0.387565 0.59201 0.765129 0.899464 0.822362 0.770134 0.808033 
0.546801 0.419673 0.311333 0.476335 0.469298 0.474277 0.58595 0.534187 0.534056 
0.399455 0.399455 0.343516 0.302064 
WidthEq 1 427 double
3.14434 1.97158 2.93298 2.53511 2.41759 2.13194 2.00569 2.31242 2.03497 
2.54906 2.45252 3.28458 3.03588 2.71887 3.76649 2.40756 3.17825 2.15708 
2.57723 2.68544 5.21751 4.63753 3.25018 5.56506 3.83436 4.78916 3.06763 
3.37909 7.54816 3.51629 4.21776 4.38111 2.70069 2.62731 1 4.28086 
4.3856 4.3856 4.99887 4.5708 4.5708 4.46182 3.91903 3.91903 3.69499 
3.85207 3.76605 4.38444 4.44938 3.07467 4.59821 4.4692 4.29963 3.7962 
3.6094 3.47616 3.7029 3.87581 3.87581 3.81999 3.68973 3.47886 3.16629 
2.71941 2.6686 3.01466 3.11766 2.25062 2.25062 2.79085 3.75828 3.75828 
3.93433 4.04152 3.85072 3.44624 3.00959 2.67063 2.52223 2.84079 3.27102 
4.52227 6.517 5.07529 6.57967 3.93722 3.41995 3.08461 3.05147 3.32588 
3.41522 3.36558 3.55151 3.87151 3.97017 4.15933 4.38685 4.31241 4.16498 
3.98358 3.87967 3.87967 3.8334 3.53048 3.53048 3.42786 3.25385 3.16561 
2.982 2.8774 2.52156 3.11476 3.49738 3.35521 3.98783 3.98783 4.00327 
4.00327 3.61761 3.16662 3.0232 3.16725 3.19181 2.91523 3.81733 3.99989 
3.91122 4.18881 4.62262 4.79586 4.32746 4.13695 4.70068 4.76518 5.1355 
5.11215 5.85549 4.32717 3.94306 4.00573 3.74839 3.89539 4.18273 3.84811 
4.21607 4.41705 4.73228 5.19165 5.19165 5.09 4.91908 4.91908 4.6575 
4.41478 3.95193 3.57472 3.3925 3.27305 3.86403 4.15383 4.04673 4.65181 
5.27733 5.78023 5.86012 5.2687 4.41667 3.58046 3.89612 3.45686 4.36297 
4.25351 4.21776 4.14322 4.32843 4.27222 4.34174 4.46539 4.27526 4.10834 
3.74357 3.67063 3.33803 3.51272 3.52122 3.44301 3.50954 3.49951 3.3583 
3.58104 4.14959 4.21399 4.43008 4.35241 4.33161 4.68953 4.29963 4.20324 
4.33986 4.43384 4.4926 4.30566 4.06777 3.98267 4.04215 3.92395 3.77276 
3.66522 3.52869 3.46689 3.19938 3.09768 2.94789 3.14602 3.41739 4.14033 
3.30142 3.7524 3.92733 4.52025 4.78317 7.68527 6.26175 5.33532 4.24487 
4.12595 3.66373 3.64322 3.64322 4.47499 3.93568 3.49188 3.38768 3.38768 
3.22804 3.18573 3.3402 3.52228 3.16793 3.53173 4.73276 4.2839 4.93051 
5.5089 5.36277 4.5763 4.13029 3.77961 3.54543 3.61963 3.80677 3.90263 
4.12769 4.04683 4.37706 4.5393 4.15456 4.00467 3.54355 3.25525 3.17868 
3.14212 3.17241 2.97239 2.99893 2.76794 2.78473 2.85227 4.95989 4.44692 
4.38314 5.43181 4.32196 3.69755 3.9116 3.61249 4.29432 2.83553 2.65143 
2.64805 2.87605 3.29008 3.52136 3.51108 3.57448 3.35936 3.61934 3.59069 
3.30238 4.22056 3.9679 3.18303 2.77378 2.44364 2.28685 2.30427 2.03763 
2.18173 3.08688 2.82482 2.76591 2.76186 2.70059 2.45238 2.72674 2.55837 
2.34909 2.28401 2.32318 2.36356 2.59494 2.57583 2.31908 2.10415 2.56512 
2.36641 2.26519 2.57665 2.76128 2.1812 2.33408 2.04998 2.32945 2.17005 
2.06387 2.02296 2.18158 2.61399 2.61399 3.77604 3.17473 3.14771 3.41981 
3.30547 3.43235 2.93086 2.47433 2.56662 2.4683 2.77001 2.87036 3.03834 
3.02411 3.02093 2.98894 2.86602 2.94933 2.94933 3.19663 3.23841 2.67941 
2.66812 2.57873 2.52214 2.5024 2.48253 2.40587 2.26312 2.32115 2.32588 
2.33428 2.43573 3.26962 3.30151 2.70122 2.62948 2.59402 2.65389 3.22649 
2.84532 2.48933 2.43231 2.47018 2.42218 2.36038 2.26133 2.28738 2.3432 
2.64299 2.57525 2.42314 2.39019 2.30451 2.33698 2.33698 2.52469 2.49797 
2.59899 2.53511 2.18009 1.97119 1.8501 1.65279 1.63349 1.70426 1.78131 
1.9395 1.89 2.13194 2.4736 2.44924 2.40283 2.25376 2.08109 1.85464 
1.82473 1.92338 2.32743 2.04284 1.81045 1.64101 1.73543 1.79173 1.7649 
2.32458 2.73475 2.95879 2.51895 2.32825 2.19963 1.96738 2.06657 2.07115 
2.51413 2.51413 2.75757 3.08437 
rRFP 1 427 double
2901.44 2658.35 2857.63 2775.16 2750.8 2691.59 2665.42 2729 2671.49 
2778.05 2758.04 2930.51 2878.96 2813.25 3030.4 2748.72 2908.47 2696.8 
2783.89 2806.32 3331.17 3210.95 2923.38 3403.21 3044.47 3242.38 2885.54 
2950.1 3814.27 2978.54 3123.94 3157.8 2809.48 2794.27 2456.96 3137.02 
3158.73 3158.73 3285.85 3197.12 3197.12 3174.53 3062.02 3062.02 3015.58 
3048.14 3030.31 3158.49 3171.95 2887 3202.8 3176.06 3140.91 3036.56 
2997.84 2970.22 3017.22 3053.06 3053.06 3041.49 3014.49 2970.78 2905.99 
2813.36 2802.83 2874.56 2895.91 2716.19 2716.19 2828.17 3028.7 3028.7 
3065.19 3087.41 3047.86 2964.02 2873.51 2803.25 2772.49 2838.52 2927.7 
3187.06 3600.53 3301.69 3613.52 3065.79 2958.57 2889.06 2882.19 2939.07 
2957.59 2947.3 2985.84 3052.17 3072.62 3111.83 3158.99 3143.56 3113 
3075.4 3053.86 3053.86 3044.27 2981.48 2981.48 2960.21 2924.14 2905.85 
2867.79 2846.11 2772.35 2895.31 2974.62 2945.15 3076.28 3076.28 3079.48 
3079.48 2999.54 2906.06 2876.33 2906.19 2911.28 2853.95 3040.94 3078.78 
3060.4 3117.94 3207.86 3243.77 3146.68 3107.19 3224.04 3237.41 3314.17 
3309.33 3463.41 3146.62 3067 3079.99 3026.65 3057.12 3116.68 3047.32 
3123.59 3165.25 3230.59 3325.81 3325.81 3304.74 3269.31 3269.31 3215.09 
3164.78 3068.84 2990.65 2952.88 2928.12 3050.62 3110.69 3088.49 3213.91 
3343.57 3447.81 3464.37 3341.78 3165.17 2991.84 3057.27 2966.22 3154.04 
3131.35 3123.94 3108.49 3146.88 3135.23 3149.64 3175.27 3135.86 3101.26 
3025.65 3010.53 2941.59 2977.8 2979.56 2963.35 2977.14 2975.06 2945.79 
2991.96 3109.81 3123.16 3167.95 3151.85 3147.54 3221.73 3140.91 3120.93 
3149.25 3168.73 3180.91 3142.16 3092.85 3075.21 3087.54 3063.04 3031.7 
3009.41 2981.11 2968.3 2912.85 2891.77 2860.72 2901.79 2958.04 3107.89 
2934 3027.48 3063.74 3186.64 3241.14 3842.69 3547.62 3355.59 3129.56 
3104.91 3009.1 3004.85 3004.85 3177.26 3065.47 2973.48 2951.88 2951.88 
2918.79 2910.02 2942.04 2979.78 2906.33 2981.74 3230.69 3137.65 3271.68 
3391.57 3361.28 3198.26 3105.81 3033.12 2984.58 2999.96 3038.75 3058.62 
3105.27 3088.51 3156.96 3190.59 3110.84 3079.77 2984.19 2924.43 2908.56 
2900.98 2907.26 2865.8 2871.3 2823.42 2826.9 2840.9 3277.77 3171.44 
3158.22 3375.59 3145.54 3016.11 3060.48 2998.48 3139.81 2837.43 2799.27 
2798.57 2845.83 2931.65 2979.59 2977.46 2990.6 2946.01 2999.9 2993.96 
2934.2 3124.52 3072.15 2909.46 2824.63 2756.2 2723.7 2727.31 2672.04 
2701.91 2889.53 2835.21 2823 2822.16 2809.46 2758.01 2814.88 2779.98 
2736.6 2723.11 2731.23 2739.6 2787.56 2783.6 2730.38 2685.83 2781.38 
2740.19 2719.21 2783.77 2822.04 2701.8 2733.49 2674.6 2732.53 2699.49 
2677.48 2669 2701.88 2791.51 2791.51 3032.38 2907.74 2902.14 2958.54 
2934.84 2961.14 2857.19 2762.56 2781.69 2761.31 2823.85 2844.65 2879.47 
2876.52 2875.86 2869.23 2843.75 2861.02 2861.02 2912.28 2920.94 2805.07 
2802.73 2784.2 2772.47 2768.38 2764.26 2748.37 2718.78 2730.81 2731.79 
2733.53 2754.56 2927.41 2934.02 2809.59 2794.72 2787.37 2799.78 2918.47 
2839.46 2765.67 2753.85 2761.7 2751.75 2738.94 2718.41 2723.81 2735.38 
2797.52 2783.48 2751.95 2745.12 2727.36 2734.09 2734.09 2773 2767.46 
2788.4 2775.16 2701.57 2658.27 2633.17 2592.27 2588.27 2602.94 2618.91 
2651.7 2641.44 2691.59 2762.41 2757.36 2747.74 2716.84 2681.05 2634.11 
2627.91 2648.36 2732.11 2673.12 2624.95 2589.83 2609.4 2621.07 2615.51 
2731.52 2816.54 2862.98 2771.81 2732.28 2705.62 2657.48 2678.04 2678.99 
2770.81 2770.81 2821.27 2889.01 
rGFP 1 427 double
6235.59 6709.73 7013.16 5913.6 6519.79 6726.6 6720.58 6172.75 7065.16 
6759.33 6543.54 6754.56 6074.86 6441.33 8125.88 7001.58 6818.99 6350.48 
6687.85 7253.93 9402.9 7987.63 6802.59 9235.47 8648.93 8141.16 5557.8 
7622.86 8538.68 6712.57 7666.11 7468.98 7900.19 4981.56 5061.91 7351.21 
7747.41 7747.41 7744.06 7722.49 7722.49 7390.72 7332.68 7332.68 7165.78 
7218.85 7324.79 7411.99 7647.04 7740.56 7505.52 7463.98 7684.16 8135.96 
8125.88 8295.89 8135.7 8104.25 8104.25 8101.27 7925.89 8053.46 7698.6 
7325.58 7167.06 7398.48 7692.58 7001.23 7001.23 7358.2 7924.43 7924.43 
7789.44 7183.23 7421.09 6501.42 6265.16 6325.65 5889.16 5943.7 6698.75 
7557.85 8413.15 6664.9 7870.37 7462.2 6950.37 6819.19 6939.15 7893.91 
8004.05 7834.48 8194.19 8660.4 9077.36 8971.99 8648.19 8285.12 8205.48 
7843.27 7694.28 7694.28 7579.69 7238.02 7238.02 6797.88 7421.35 7752.32 
8258.77 8351.98 8605.32 8660.8 8603.99 8640.63 8489.67 8489.67 7937.38 
7937.38 7695.93 7538.16 7449.4 7320.17 7545.72 7964.73 8145.25 8085.01 
8446.37 8547.73 8344.07 8018.75 8428.17 8249.99 8093.07 7686.75 8366.04 
9108.77 9273.11 7865.38 8197.83 8325.07 8410.2 8350.35 8326.3 8414.41 
8529.28 8605.8 8538.94 8124.46 8124.46 8025.1 7955.48 7955.48 8116.79 
7764.19 8200.4 8095.64 7924.83 8198.9 8255.14 8376.14 8767.93 9054.48 
9257.83 9184.41 8883.59 8448.83 7563.64 7680.07 7913.37 8664.14 7277.3 
7766.16 7666.11 7500.93 7499.86 7680.06 7639.06 7664.68 7735.74 7837.48 
7992.73 7586.85 7886.62 7538.38 7767.56 7744.88 7366.96 7206.42 7519.99 
7556.26 7556.53 7843.36 7799.96 7996.58 8172 8215.17 8550.41 8525.42 
8228.36 8020.15 7803.54 8024.98 7978.02 8180.01 8038.96 7550.27 8007.52 
7872.58 7671.32 7874.74 7537.58 7428.42 7357.38 7753.48 7944.16 7703.43 
7064.36 7502.41 7760.44 8043.59 8048.01 9484.54 9514.35 9124.64 7891.35 
7983.54 7114.38 7134.32 7134.32 7340.12 6977.06 7008.37 6745.54 6745.54 
7106.98 7347.68 7322.44 7266.7 6069.98 7293.96 8367.49 8601.93 8635.6 
8649.84 7889.14 7579.27 7292.93 7233.6 7431.02 7647.19 7659.91 7721.37 
7688.47 7909.8 7595.69 7444.79 7678.3 7051.78 6984.53 7280.27 6982.23 
7286.1 7311.23 7131.49 7368.26 7342.27 6917.32 6859.43 9299.02 8440.27 