# vtk DataFile Version 3.0
vtk output
ASCII
DATASET POLYDATA
POINTS 394 float
1.14886 0.0799673 0.978671 4.80693 -0.266427 0.481494 0.538201 0.915913 0.119654 
4.48122 0.433364 -0.321705 4.49467 0.270755 -0.317883 4.21411 -0.145255 -0.432751 
4.5636 -0.377911 -0.106319 0.167413 0.719182 -0.165452 1.52901 -0.765469 0.823578 
2.9343 -0.360079 0.166259 4.83434 -0.206932 -0.380427 1.89676 -1.0516 0.723092 
4.24054 -0.622533 -0.280901 2.77473 -0.965374 0.0101957 4.11987 -0.622157 -0.401416 
-0.778603 -0.108305 -0.13648 2.80259 -1.1589 0.082335 1.19889 -1.70922 0.640269 
2.95579 -0.640721 -1.02547 2.92224 -0.913846 -0.960382 2.84274 -1.2989 -0.698978 
-0.194022 -0.519728 -0.890747 2.67129 -1.69308 -0.76714 1.47805 -0.341223 -1.946 
1.88352 -0.479539 -1.91457 2.31965 -2.09736 -0.608532 2.38834 -1.05433 -1.97369 
0.0586942 -1.40487 -1.34121 0.409197 -1.3279 -1.93115 1.50067 -2.18991 -1.42248 
1.10807 -2.16288 -1.62848 1.05403 -2.16973 -1.61076 0.986386 -2.15923 -1.60512 
0.912439 -2.14054 -1.60519 0.83895 -2.11991 -1.60703 0.773733 -2.09593 -1.61359 
0.723732 -2.06163 -1.62247 0.671963 -2.01941 -1.61796 0.629663 -1.96053 -1.60015 
0.584304 -1.89853 -1.57443 0.550247 -1.8364 -1.56124 0.513783 -1.78383 -1.55909 
0.46481 -1.73619 -1.54995 0.422511 -1.67731 -1.53214 0.375559 -1.61595 -1.50553 
0.331577 -1.55773 -1.48678 0.270755 -1.51627 -1.47302 0.201234 -1.47941 -1.45337 
0.130785 -1.43998 -1.41257 1.53341 -2.2224 -1.39154 1.57702 -2.24629 -1.36049 
1.64376 -2.25244 -1.33 1.7106 -2.25854 -1.29955 1.76071 -2.26263 -1.24733 
1.81202 -2.26193 -1.1896 1.88737 -2.23451 -1.12053 1.96664 -2.19692 -1.04125 
2.03854 -2.14932 -0.939251 2.12142 -2.09738 -0.843395 2.2003 -2.05563 -0.757693 
2.25233 -2.04604 -0.687971 2.28859 -2.06421 -0.64041 0.46213 -1.31963 -1.94985 
0.523322 -1.3219 -1.96122 0.581416 -1.32669 -1.97966 0.644844 -1.35343 -2.00011 
0.701815 -1.40468 -2.02773 0.745088 -1.46565 -2.05388 0.796662 -1.51 -2.0863 
0.850847 -1.52495 -2.11495 0.910738 -1.53203 -2.1318 0.963736 -1.52385 -2.15044 
1.01766 -1.51684 -2.16825 1.0842 -1.52593 -2.17488 1.15068 -1.53495 -2.18156 
1.20356 -1.52661 -2.20031 1.25004 -1.51011 -2.22473 1.29548 -1.49228 -2.25007 
1.34092 -1.47445 -2.27541 1.38734 -1.45787 -2.29989 1.43923 -1.44827 -2.31951 
1.50151 -1.44561 -2.32545 1.56346 -1.42988 -2.32278 1.63287 -1.40471 -2.30013 
1.70069 -1.37118 -2.27441 1.77549 -1.3529 -2.24697 1.8479 -1.34419 -2.23056 
1.9121 -1.32501 -2.22144 1.98276 -1.29512 -2.1932 2.05425 -1.24731 -2.15087 
2.13771 -1.19994 -2.0876 2.2251 -1.16212 -2.02685 2.30985 -1.1185 -1.98378 
2.39784 -0.940015 -1.9887 2.38563 -0.860898 -1.99497 2.36219 -0.807709 -2.00944 
2.34427 -0.757814 -2.03219 2.33877 -0.697335 -2.05358 2.31343 -0.636066 -2.05146 
2.2591 -0.586237 -2.03312 2.19958 -0.551383 -2.03047 2.1567 -0.518585 -2.04953 
2.11252 -0.490608 -2.07406 2.05135 -0.456606 -2.07031 1.98371 -0.424338 -2.05372 
1.92859 -0.40438 -2.01927 1.90026 -0.431411 -1.96983 0.0511106 -1.43342 -1.23207 
0.0489176 -1.47093 -1.15938 0.0575271 -1.51643 -1.11854 0.0648657 -1.55754 -1.07129 
0.0907208 -1.57552 -1.01171 0.127229 -1.58066 -0.945689 0.162532 -1.59059 -0.885198 
0.184777 -1.62291 -0.842187 0.188195 -1.67991 -0.813443 0.192349 -1.74954 -0.803706 
0.19496 -1.81547 -0.786904 0.225844 -1.84869 -0.754929 0.283566 -1.84977 -0.706977 
0.332711 -1.84562 -0.64184 0.368881 -1.86383 -0.594228 0.400029 -1.89695 -0.562401 
0.431384 -1.93429 -0.53689 0.475797 -1.94925 -0.493892 0.53521 -1.94966 -0.446887 
0.584926 -1.9496 -0.388262 0.63494 -1.95373 -0.336004 0.705391 -1.94548 -0.288984 
0.777046 -1.93245 -0.236436 0.830763 -1.92218 -0.167649 0.884571 -1.91188 -0.0989121 
0.958931 -1.89347 -0.0416859 1.03986 -1.87246 0.0118724 1.10391 -1.85382 0.0810722 
1.12587 -1.84315 0.186225 1.13457 -1.82048 0.323599 1.15465 -1.77609 0.479399 
0.0194733 -1.29828 -1.31242 0.000457177 -1.21323 -1.30248 -0.00257091 -1.14911 -1.32425 
-0.00702795 -1.08672 -1.3442 0.00227548 -1.0204 -1.37387 0.0211163 -0.946003 -1.40268 
0.0390499 -0.880589 -1.44338 0.0559313 -0.819996 -1.4896 0.0725928 -0.765445 -1.54047 
0.0947202 -0.717869 -1.5865 0.124831 -0.686803 -1.6299 0.151061 -0.657099 -1.68119 
0.180913 -0.63834 -1.73374 0.215845 -0.613426 -1.77286 0.270508 -0.601041 -1.78556 
0.323861 -0.574345 -1.79052 0.366182 -0.539897 -1.80972 0.396967 -0.503368 -1.84806 
0.432285 -0.491583 -1.89575 0.47054 -0.496193 -1.94976 0.510058 -0.496093 -1.99818 
0.550032 -0.471287 -2.02837 0.59203 -0.42378 -2.03894 0.651682 -0.392476 -2.02939 
0.707129 -0.368453 -2.03249 0.762411 -0.350535 -2.04019 0.825956 -0.343168 -2.04056 
0.887848 -0.327368 -2.03794 0.950189 -0.32478 -2.04383 1.00318 -0.316588 -2.06247 
1.05717 -0.309659 -2.08024 1.12962 -0.301018 -2.06379 1.21089 -0.290964 -2.03061 
1.2931 -0.282287 -1.99646 1.37017 -0.288666 -1.97794 1.43508 -0.30846 -1.96501 
2.4906 -0.995 -1.86198 2.56017 -0.948183 -1.74886 2.62004 -0.911679 -1.64786 
2.68623 -0.885032 -1.56949 2.73846 -0.863901 -1.48331 2.78201 -0.829536 -1.36699 
2.83988 -0.757154 -1.20393 2.62885 -1.71182 -0.860836 2.6035 -1.69815 -0.92673 
2.61421 -1.63204 -0.949909 2.65833 -1.53433 -0.918353 2.74237 -1.42679 -0.821241 
-0.268 -0.501144 -0.89072 -0.335588 -0.490715 -0.885023 -0.388581 -0.498908 -0.86638 
-0.436108 -0.514074 -0.842888 -0.487998 -0.523675 -0.823266 -0.546827 -0.518098 -0.805341 
-0.595104 -0.513346 -0.769145 -0.634145 -0.495096 -0.706927 -0.672067 -0.44887 -0.622833 
-0.71111 -0.358744 -0.506996 -0.741758 -0.24383 -0.341616 2.85865 -1.21918 -0.466929 
2.85337 -1.12372 -0.276995 2.82605 -1.03715 -0.124205 2.87631 -1.20551 -0.744135 
2.89082 -1.13296 -0.780337 2.88647 -1.0786 -0.813221 2.89269 -1.02495 -0.857726 
2.90671 -0.969693 -0.908634 2.95013 -0.802982 -0.94992 2.96417 -0.713508 -0.970872 
3.01716 -0.814059 -0.809279 3.09718 -0.728768 -0.66223 3.17673 -0.660901 -0.539715 
3.24714 -0.613781 -0.436966 3.3245 -0.583726 -0.370612 3.39892 -0.561291 -0.336743 
3.45537 -0.538705 -0.338815 3.50306 -0.517419 -0.357707 3.5485 -0.499588 -0.383051 
3.59388 -0.481681 -0.408448 3.63926 -0.463773 -0.433846 3.6847 -0.445942 -0.45919 
3.73118 -0.429443 -0.483608 3.7852 -0.416243 -0.496878 3.85431 -0.409647 -0.48786 
3.92255 -0.382981 -0.466242 3.97538 -0.326957 -0.451784 4.03651 -0.274353 -0.431212 
4.10382 -0.208373 -0.428544 2.9942 -0.48939 -0.992752 3.01285 -0.380736 -0.981673 
2.99753 -0.326395 -1.00223 2.96344 -0.30589 -1.04897 2.91903 -0.290935 -1.09197 
2.86533 -0.262405 -1.10497 2.8196 -0.217799 -1.10383 2.76982 -0.179103 -1.10664 
2.73596 -0.151362 -1.14314 2.7134 -0.123478 -1.19218 2.66946 -0.0910986 -1.21065 
2.62643 -0.0411174 -1.20483 2.57885 0.0113744 -1.19026 2.54268 0.0597506 -1.19448 
2.51214 0.106042 -1.20805 2.47598 0.154418 -1.21227 2.42959 0.21169 -1.19218 
2.39009 0.275995 -1.16973 2.35187 0.336487 -1.15421 2.32819 0.389792 -1.16543 
2.28395 0.426365 -1.17752 2.23481 0.452385 -1.19928 2.17751 0.466565 -1.22887 
2.129 0.471286 -1.28197 2.07929 0.471218 -1.3406 2.0182 0.470973 -1.38666 
1.96352 0.48609 -1.41763 1.89941 0.508667 -1.42321 1.83823 0.538864 -1.3963 
1.79616 0.573766 -1.32799 1.76423 0.62088 -1.23272 1.72568 0.670106 -1.14778 
1.66532 0.709241 -1.10893 1.58888 0.718334 -1.12001 1.50657 0.709614 -1.15411 
1.42306 0.696114 -1.19374 1.34174 0.686143 -1.22696 1.26462 0.664488 -1.26092 
1.19576 0.632291 -1.28756 1.12095 0.614007 -1.315 1.05074 0.60882 -1.325 
0.995554 0.597104 -1.31276 0.94157 0.590175 -1.295 0.874973 0.599341 -1.28842 
0.807391 0.609763 -1.28272 0.747012 0.610995 -1.27063 0.67943 0.621418 -1.26493 
0.612892 0.630507 -1.2583 0.560012 0.62217 -1.23956 0.513529 0.605671 -1.21514 
0.468031 0.587915 -1.18985 0.421666 0.571264 -1.16532 0.372085 0.565041 -1.13919 
0.32206 0.572023 -1.10455 0.291112 0.573625 -1.03961 0.255364 0.593996 -0.970012 
0.213673 0.628275 -0.901228 0.189635 0.646344 -0.812332 0.169417 0.66587 -0.715583 
0.155318 0.684048 -0.609091 0.138837 0.701425 -0.511294 0.139595 0.70967 -0.409359 
0.15849 0.7167 -0.300389 2.77681 -1.11152 0.0634781 2.76341 -1.04999 0.0429029 
-0.779963 -0.147326 -0.049418 -0.766859 -0.174493 0.0209129 -0.75648 -0.197751 0.091751 
-0.741272 -0.22283 0.153193 -0.729425 -0.246325 0.220618 -0.703477 -0.264256 0.280152 
-0.664054 -0.263847 0.350643 -0.610663 -0.243342 0.430505 -0.535435 -0.187947 0.515103 
-0.456158 -0.10865 0.597976 -0.365884 -0.0343929 0.692765 -0.27132 0.0282093 0.786764 
-0.17944 0.0752846 0.865018 -0.094508 0.0996079 0.914816 -0.02106 0.106985 0.932146 
0.0395879 0.111734 0.924752 0.101769 0.108203 0.914259 0.160168 0.109498 0.900412 
0.22235 0.105966 0.889919 0.281793 0.105929 0.876998 0.350366 0.0942427 0.872175 
0.424563 0.0817021 0.876801 0.495757 0.085633 0.887673 0.557023 0.121192 0.903108 
0.619496 0.161544 0.924077 0.694361 0.179752 0.951575 0.77201 0.175445 0.968174 
0.848206 0.160204 0.974704 0.921755 0.139507 0.976599 0.987002 0.115634 0.983056 
1.0387 0.0881576 0.995586 1.0965 0.0737783 0.995441 -0.808754 -0.0130069 -0.129678 
-0.793783 0.0814449 -0.115418 -0.745298 0.163279 -0.0843027 -0.686388 0.241681 -0.0425651 
-0.630012 0.308773 -0.0136346 -0.580406 0.371857 0.000373175 -0.536001 0.428931 0.000849878 
-0.473996 0.46987 0.0213987 -0.414781 0.514379 0.0394777 -0.361193 0.559736 0.0481009 
-0.312143 0.59192 0.03933 -0.265559 0.614614 0.0194591 -0.22012 0.632446 -0.00588566 
-0.173696 0.649021 -0.0303564 -0.121866 0.658698 -0.0500319 -0.0618333 0.657907 -0.0624298 
-0.0099296 0.667587 -0.082123 0.0379898 0.684128 -0.106891 0.0935472 0.701785 -0.134289 
4.16899 -0.629822 -0.340926 2.79761 -0.774448 0.094756 2.83721 -0.622772 0.163332 
2.88899 -0.527739 0.205466 2.93319 -0.462723 0.215668 2.94848 -0.406569 0.193496 
4.33149 -0.577883 -0.225187 4.43706 -0.499457 -0.159693 4.30374 -0.19152 -0.377451 
4.37947 -0.200053 -0.322022 4.4326 -0.191581 -0.249073 4.47334 -0.200798 -0.185414 
4.51326 -0.257174 -0.14281 1.94295 -1.17802 0.653676 1.9909 -1.27094 0.574734 
2.03665 -1.32492 0.502267 2.08934 -1.36068 0.45224 2.13762 -1.36543 0.416044 
2.18399 -1.34879 0.391525 2.23193 -1.31519 0.38177 2.27809 -1.25418 0.388396 
2.31153 -1.16079 0.399545 2.33076 -1.0494 0.427986 2.31781 -0.950705 0.474444 
2.27908 -0.872868 0.544573 2.24111 -0.827723 0.623004 2.20571 -0.795008 0.701692 
2.16345 -0.766323 0.765511 2.10944 -0.741614 0.805541 2.05645 -0.756187 0.819775 
2.0013 -0.81314 0.801665 1.9452 -0.912218 0.760662 1.80879 -0.968822 0.799685 
1.73566 -0.900692 0.855926 1.66793 -0.851227 0.887427 1.60784 -0.812249 0.89657 
1.56536 -0.783605 0.871088 4.61251 -0.36803 -0.24719 4.64597 -0.341827 -0.329314 
4.68765 -0.302705 -0.35241 4.73243 -0.253801 -0.357354 4.77416 -0.212267 -0.372625 
0.286338 0.800228 -0.0430747 0.376044 0.875392 0.0411174 0.458072 0.910682 0.0919859 
4.68079 -0.341004 0.101841 4.74712 -0.29743 0.265651 4.7755 -0.27523 0.389206 
4.31777 0.00539651 -0.387184 4.39411 0.111691 -0.341946 4.4531 0.189561 -0.317959 
4.49796 0.356993 -0.323769 
LINES 26 443
20 30 31 32 33 34 35 36 37 38 39 40 41 42 43 44 45 46 47 48 27 
15 29 49 50 51 52 53 54 55 56 57 58 59 60 61 25 
33 28 62 63 64 65 66 67 68 69 70 71 72 73 74 75 76 77 78 79 80 81 82 83 84 85 86 87 88 89 90 91 92 26 
16 26 93 94 95 96 97 98 99 100 101 102 103 104 105 106 24 
33 27 107 108 109 110 111 112 113 114 115 116 117 118 119 120 121 122 123 124 125 126 127 128 129 130 131 132 133 134 135 136 137 17 
38 27 138 139 140 141 142 143 144 145 146 147 148 149 150 151 152 153 154 155 156 157 158 159 160 161 162 163 164 165 166 167 168 169 170 171 172 173 23 
9 26 174 175 176 177 178 179 180 18 
7 22 181 182 183 184 185 20 
13 21 186 187 188 189 190 191 192 193 194 195 196 15 
5 20 197 198 199 13 
7 20 200 201 202 203 204 19 
4 19 205 206 18 
21 19 207 208 209 210 211 212 213 214 215 216 217 218 219 220 221 222 223 224 225 5 
65 18 226 227 228 229 230 231 232 233 234 235 236 237 238 239 240 241 242 243 244 245 246 247 248 249 250 251 252 253 254 255 256 257 258 259 260 261 262 263 264 265 266 267 268 269 270 271 272 273 274 275 276 277 278 279 280 281 282 283 284 285 286 287 288 7 
4 16 289 290 13 
34 15 291 292 293 294 295 296 297 298 299 300 301 302 303 304 305 306 307 308 309 310 311 312 313 314 315 316 317 318 319 320 321 322 0 
21 15 323 324 325 326 327 328 329 330 331 332 333 334 335 336 337 338 339 340 341 7 
7 13 343 344 345 346 347 9 
7 5 350 351 352 353 354 6 
21 11 355 356 357 358 359 360 361 362 363 364 365 366 367 368 369 370 371 372 373 11 
7 11 374 375 376 377 378 8 
7 6 379 380 381 382 383 10 
5 7 384 385 386 2 
5 6 387 388 389 1 
6 14 342 12 348 349 6 
7 5 390 391 392 4 393 3 

POINT_DATA 394
SCALARS DY_raw double
LOOKUP_TABLE default
1502.88 1440.81 1387.37 2453.13 1420.26 1282 1446.48 1101.61 1463.09 
2401.42 1170.29 1099.89 1152.43 1238.83 1273.05 1244.7 977.709 1930.37 
1439.31 997.446 1287.97 1615.57 1111.23 1300.54 1169.24 872.348 996.38 
1194.32 1326.4 1595.19 1282.09 1441.02 1241.45 1409.56 1334 1625.1 
1483.47 1617.71 1727.71 1912.98 2083.17 1803.38 1803.38 1419.21 1469.71 
1389.14 1285.01 1318.29 1248.17 1716.94 1208.54 1441.58 1219.66 985.321 
1163.39 1111.05 876.097 1094.06 868.549 908.335 997.132 889.604 1326.4 
1571.45 1358.14 1405.98 1383.12 1495.79 1467.14 1566.19 1741.01 1622.35 
1995.12 2059.65 1737.17 1637.75 1637.75 1548.43 1241.43 1241.43 1203.95 
1171.44 1062.92 1142.26 1083.44 1067.2 1182.11 1024.74 1152.95 1037.48 
995.739 1111.1 962.924 1102.87 1224.85 1323.69 1368.29 1286.65 1389.67 
1156.62 1253.92 1154.54 1330.09 1215.32 1177.65 1289.46 1169.24 1186.12 
1081.1 1014.8 1067.49 1060.42 1165.6 1223.12 1271.65 1280.92 1143.88 
1161.05 1185.49 1261.47 1377 1377 1376.54 1115.98 1197.94 982.892 
1013.07 1108.42 848.163 907.953 1068.23 907.032 1143.11 1147.5 1244.55 
1243.37 1536.17 1501.45 1223.99 1228.68 1229.34 1248.67 1363.03 1352.51 
1352.51 1494.6 1497.03 1371.44 1232.13 1232.13 1201.52 1185.11 1185.11 
1120.3 1120.3 1149.83 1205.24 1113.07 1233.41 1256.31 1256.31 1414.95 
1241.74 1363.58 1362.53 1208.55 1181.19 1028.44 1028.44 1020.36 1142.52 
1234.78 1298.62 1220.82 1022.37 1046.85 1179.68 1069.12 1147.7 1288.32 
1401.73 970.487 917.916 1038.2 1257.43 1318.12 1615.57 1410.13 1333.99 
1466.56 1351.92 1313.05 1313.05 1377.39 1202.03 1299.69 1268.07 1314.8 
1268.15 1276.3 1177.18 1075.87 970.15 922.567 997.446 1273.78 1383.13 
1195.75 1337.34 1082.89 1235.51 1108.64 1058.42 1058.42 1192.78 1096.85 
1047.9 940.602 940.602 936.469 944.701 944.701 951.934 951.861 985.719 
1075.76 1489.6 1598.74 1657.59 1640.54 1812.3 1944.19 1767.01 1904.81 
1904.81 2001.08 2094.83 1863.56 2110.67 2016.35 1746.39 1627.3 1526 
1390.67 1280.07 1374.69 1374.69 1315.81 1202.41 1210.18 1555.71 1454.35 
1511.93 1554.67 1612.09 1764.48 1526.71 1839.17 1752.56 1575.56 1432.67 
1394.88 1482.13 1604.19 1588.29 1407.53 1478.29 1331.82 1421.44 1632.66 
1356.73 1608.73 1460.86 1447.14 1447.14 1424.25 1669.75 1669.75 1490.33 
1491.48 1587.59 1210.47 1308.93 1242.72 1120.21 1247.11 1210.11 1069.32 
1127.03 1063.72 1128.47 1135.12 1193.53 1279.08 1206.71 1241.28 1116.74 
1192.71 1126.37 1129.98 1289.29 1249.29 1241.13 1569.92 1541.25 1604.45 
1574.18 1626.32 1403.6 1501.25 1417.83 1250.23 1281.09 1260.1 1260.1 
1454.87 1414.65 1555.75 1529.06 1438.64 1575.82 1584.83 1589.37 1319.86 
1423.45 1476.78 1519.12 1660.47 1533.71 1637.93 1814.33 1951.67 1949.62 
1815.24 1763.47 1608.34 1608.34 1313.83 1313.83 1236.55 1105.01 1110.54 
1124.18 1497.97 1616.18 1857.11 2032.61 2401.42 1120.36 1267.75 1233.99 
1213.49 1366.27 1456.44 1466.98 1143.11 1195.5 1128.5 1104.08 1104.08 
1115.57 976.163 1027.77 1034.52 1047.3 1103.98 1134.76 1148.71 1380.5 
1587.71 1754.33 1526.91 1391.53 1286.17 1103.72 1049.9 1091 1385.16 
1463.09 1389.19 1286.53 1272.59 1106.43 1181.77 1187.48 1245.14 1246.43 
1332.42 1371.38 1346.01 1480.2 1561.65 1385.57 1548.47 
FIELD FieldData 7
DY_minmax 1 394 double
0.40793 0.369261 0.335959 1 0.356452 0.270312 0.372794 0.157915 0.38314 
0.967779 0.200707 0.156845 0.18958 0.243412 0.264733 0.247072 0.0807152 0.674289 
0.368326 0.0930129 0.274028 0.478145 0.163906 0.281863 0.200054 0.0150685 0.092349 
0.215678 0.297971 0.465447 0.270367 0.36939 0.245042 0.349786 0.302706 0.484086 
0.395835 0.479477 0.548014 0.663453 0.76949 0.59516 0.59516 0.355801 0.387262 
0.337064 0.272184 0.292919 0.249231 0.541303 0.224537 0.369738 0.231469 0.0854584 
0.196408 0.163795 0.0174045 0.153208 0.0127015 0.0374906 0.0928171 0.0258201 0.297971 
0.450658 0.317748 0.347555 0.333311 0.403512 0.385663 0.447379 0.5563 0.482369 
0.714631 0.754839 0.553912 0.491965 0.491965 0.436313 0.24503 0.24503 0.221677 
0.20142 0.133806 0.183243 0.146592 0.136477 0.208071 0.110021 0.189904 0.117956 
0.0919494 0.163826 0.0715036 0.158699 0.234698 0.296285 0.324073 0.273207 0.337397 
0.192192 0.252813 0.190893 0.300272 0.228761 0.20529 0.274957 0.200054 0.210571 
0.145134 0.103828 0.136655 0.132247 0.197782 0.233623 0.263863 0.269636 0.184254 
0.194951 0.210177 0.257516 0.329498 0.329498 0.329216 0.166866 0.217932 0.083945 
0.102745 0.162158 0 0.0372528 0.137115 0.0366789 0.183774 0.186505 0.246975 
0.246241 0.428672 0.407043 0.234166 0.237087 0.237495 0.249545 0.320797 0.314239 
0.314239 0.40277 0.404289 0.326033 0.239239 0.239239 0.220164 0.209937 0.209937 
0.169561 0.169561 0.187958 0.222481 0.165056 0.240034 0.254301 0.254301 0.353149 
0.245226 0.321136 0.320484 0.224546 0.207501 0.112322 0.112322 0.10729 0.183403 
0.240887 0.280663 0.232191 0.108541 0.123798 0.206559 0.137669 0.186632 0.274246 
0.344906 0.0762156 0.0434606 0.118407 0.255001 0.292816 0.478145 0.350143 0.302703 
0.3853 0.313875 0.289656 0.289656 0.329742 0.220481 0.28133 0.26163 0.290746 
0.261677 0.266755 0.204997 0.141875 0.0760058 0.0463585 0.0930129 0.265188 0.333317 
0.216568 0.304792 0.146251 0.241344 0.162292 0.131007 0.131007 0.214717 0.154946 
0.124448 0.0575956 0.0575956 0.0550203 0.0601494 0.0601494 0.0646561 0.0646102 0.0857066 
0.141811 0.399656 0.467661 0.504329 0.493701 0.600722 0.682897 0.5725 0.658362 
0.658362 0.718344 0.776757 0.632661 0.786628 0.727858 0.559657 0.485455 0.422339 
0.338015 0.269109 0.328062 0.328062 0.291377 0.220721 0.22556 0.440845 0.377692 
0.413572 0.440201 0.47598 0.570927 0.422782 0.617463 0.563502 0.453218 0.364184 
0.340643 0.395002 0.471054 0.461147 0.348522 0.392609 0.301351 0.357186 0.488795 
0.316873 0.473881 0.381753 0.373199 0.373199 0.358939 0.511904 0.511904 0.400111 
0.400832 0.460713 0.225741 0.287091 0.245838 0.169504 0.248571 0.225515 0.137793 
0.173754 0.134305 0.174647 0.178793 0.215185 0.268487 0.223397 0.244939 0.167341 
0.214676 0.17334 0.17559 0.274848 0.249927 0.244845 0.4497 0.43184 0.471216 
0.452359 0.484843 0.346074 0.406918 0.354942 0.250513 0.269742 0.256663 0.256663 
0.378018 0.352961 0.440875 0.424245 0.367906 0.453379 0.458994 0.46182 0.293898 
0.358444 0.391669 0.418053 0.506121 0.427144 0.492075 0.601986 0.687559 0.68628 
0.602551 0.570299 0.473641 0.473641 0.290144 0.290144 0.241989 0.160033 0.163477 
0.171979 0.404871 0.478523 0.628643 0.73799 0.967779 0.169594 0.261429 0.240397 
0.227625 0.322812 0.378999 0.385561 0.183773 0.216413 0.174668 0.159451 0.159451 
0.166613 0.0797521 0.111905 0.116114 0.124075 0.15939 0.178567 0.187259 0.331678 
0.460784 0.564602 0.422903 0.338556 0.272908 0.15923 0.125694 0.151305 0.334585 
0.38314 0.337093 0.27313 0.264449 0.160919 0.207857 0.211418 0.247344 0.248146 
0.301725 0.326001 0.310193 0.393801 0.44455 0.334843 0.436336 
WidthEq 1 394 double
2.30938 1.63462 4.06334 1 2.3784 3.79196 3.38045 5.9972 2.97733 
1.48575 3.17877 5.02093 3.95341 4.85929 3.41564 6.25382 3.20367 1.1213 
4.10113 5.01887 4.07646 4.18708 3.45492 2.54301 3.53965 3.66952 6.86152 
5.27839 4.8872 3.224 3.59928 3.53126 4.25102 3.90102 4.02059 3.46663 
3.56657 3.39719 3.36043 3.23795 3.08863 3.63848 3.63848 4.91012 4.8806 
5.22142 5.52944 5.33173 5.24003 3.34129 4.94051 4.56373 5.18314 5.44197 
5.20895 5.2764 6.00852 5.71751 6.73225 6.55395 6.3755 5.08213 4.8872 
4.63752 5.03347 4.70703 4.40976 4.08649 3.79688 3.40001 3.15784 3.02945 
2.71971 2.69832 2.90839 3.27021 3.27021 3.50365 4.02616 4.02616 4.2114 
4.32446 4.43664 4.60911 4.93959 4.8194 5.02729 5.15782 5.02096 5.17509 
5.88654 6.02568 6.90357 6.06972 5.39023 4.09331 3.752 3.11639 3.12814 
3.64184 3.82533 4.01388 3.91577 4.13304 4.21293 4.06818 3.53965 5.48811 
5.57265 5.35446 5.46897 5.44369 4.87302 4.64926 4.05792 3.77514 3.84809 
3.52134 3.38468 3.37084 3.36302 3.36302 3.59036 4.31996 4.34418 4.88739 
4.69735 4.58539 5.09116 5.31595 4.74631 5.68666 4.83439 4.84163 3.93804 
4.08637 2.71418 1.60812 4.99343 4.76941 4.57289 4.25586 3.74231 3.81858 
3.81858 3.61568 3.97251 4.50909 5.0305 5.0305 4.95252 4.84304 4.84304 
4.52762 4.52762 4.2416 3.93377 4.01693 3.8376 3.76573 3.76573 3.56028 
3.97076 3.82685 4.0376 4.21903 4.55904 5.30916 5.30916 5.61718 5.23679 
4.59779 4.41781 3.36032 7.16451 7.04123 6.12978 5.63186 5.04922 4.44976 
4.27748 4.53464 5.17189 5.02958 4.46806 4.34894 4.18708 4.95004 5.03656 
4.58406 4.77902 4.44732 4.44732 4.0471 3.69488 3.84451 4.79546 3.95024 
4.22746 4.42505 4.50139 4.71813 4.71004 4.93696 5.01887 4.69635 4.40721 
4.64419 3.84763 3.98025 3.77354 3.82022 3.58529 3.58529 3.18392 3.13927 
3.3048 3.68992 3.68992 3.73816 3.89598 3.89598 4.34974 4.57361 4.55699 
4.31089 3.76881 3.29866 3.26766 3.24001 2.8425 2.63171 3.08345 2.93115 
2.93115 2.84677 2.74191 3.1085 2.88253 2.99956 3.40581 3.67448 3.9348 
4.18208 4.89292 4.84751 4.84751 5.35419 5.65207 5.53448 4.41361 4.51332 
4.06978 3.76283 3.47677 3.29824 3.72332 3.28268 3.77785 4.34463 4.69502 
4.78543 4.24324 4.15253 3.93209 4.01625 3.87509 4.08012 4.0879 3.83288 
4.40355 4.1062 4.44011 4.64202 4.64202 4.37548 3.85938 3.85938 3.52241 
3.38411 3.35666 4.09827 4.054 4.28019 4.66288 4.36724 4.47702 5.07751 
5.49112 4.7921 5.22554 6.68771 6.16337 5.74199 5.61181 5.51655 5.49509 
5.47911 5.48147 5.28575 4.70509 4.76678 4.50131 3.85404 3.7239 3.28676 
2.88375 2.72284 2.84585 2.72662 2.79964 2.92272 2.93611 3.07464 3.07464 
2.99269 3.1742 3.07605 3.1676 3.28554 3.05618 2.78221 2.43213 5.8224 
4.96819 4.57304 4.55584 3.79566 3.45797 3.13565 2.98316 2.61497 2.52052 
2.48471 2.48521 2.58568 2.58568 3.31021 3.31021 4.25152 5.17841 5.6457 
3.88481 3.62933 2.77786 2.37127 1.95202 1.48575 4.00313 3.86834 4.07108 
4.12847 3.81713 3.58987 3.53137 4.77029 4.42944 4.31897 4.29541 4.29541 
4.25072 4.6281 4.63008 5.10542 5.22264 4.90569 4.35958 4.19935 3.41198 
2.94072 2.62793 3.26426 3.83505 4.35279 4.89086 4.84057 4.52255 3.57034 
2.97733 3.06842 3.24119 3.13328 3.32855 3.30525 6.06248 5.63674 4.78577 
2.83331 2.64215 2.45665 3.17279 2.79922 2.56071 2.11209 
rRFP 1 394 double
2834.79 2657.83 3294.77 2491.4 2852.89 3223.6 3115.68 3801.93 3009.96 
2618.79 3062.79 3545.9 3265.94 3503.51 3124.91 3869.23 3069.32 2523.21 
3304.68 3545.36 3298.21 3327.22 3135.21 2896.06 3157.43 3191.49 4028.6 
3613.42 3510.83 3074.65 3173.07 3155.23 3343.99 3252.2 3283.56 3138.28 
3164.49 3120.07 3110.43 3078.31 3039.15 3183.35 3183.35 3516.84 3509.1 
3598.48 3679.26 3627.41 3603.36 3105.41 3524.81 3426 3588.44 3656.32 
3595.21 3612.9 3804.9 3728.58 3994.7 3947.94 3901.14 3561.95 3510.83 
3445.35 3549.19 3463.58 3385.62 3300.84 3224.89 3120.81 3057.3 3023.63 
2942.4 2936.79 2991.88 3086.77 3086.77 3147.99 3285.02 3285.02 3333.6 
3363.25 3392.67 3437.9 3524.57 3493.05 3547.57 3581.8 3545.91 3586.33 
3772.91 3809.4 4039.63 3820.95 3642.75 3302.63 3213.12 3046.43 3049.51 
3184.23 3232.35 3281.8 3256.07 3313.05 3334 3296.04 3157.43 3668.42 
3690.59 3633.37 3663.4 3656.77 3507.11 3448.43 3293.35 3219.19 3238.32 
3152.63 3116.79 3113.16 3111.11 3111.11 3170.73 3362.07 3368.42 3510.88 
3461.04 3431.68 3564.32 3623.27 3473.88 3720.49 3496.98 3498.88 3261.91 
3300.81 2940.95 2650.88 3538.69 3479.94 3428.4 3345.26 3210.58 3230.58 
3230.58 3177.37 3270.95 3411.67 3548.41 3548.41 3527.96 3499.25 3499.25 
3416.53 3416.53 3341.52 3260.79 3282.6 3235.57 3216.72 3216.72 3162.84 
3270.49 3232.75 3288.02 3335.6 3424.77 3621.49 3621.49 3702.27 3602.51 
3434.93 3387.73 3110.4 4108.06 4075.73 3836.7 3706.12 3553.32 3396.11 
3350.93 3418.37 3585.49 3548.17 3400.91 3369.67 3327.22 3527.31 3550 
3431.33 3482.46 3395.47 3395.47 3290.51 3198.14 3237.38 3486.77 3265.11 
3337.81 3389.63 3409.65 3466.49 3464.37 3523.88 3545.36 3460.78 3384.95 
3447.1 3238.2 3272.98 3218.77 3231.01 3169.4 3169.4 3064.14 3052.43 
3095.84 3196.84 3196.84 3209.49 3250.88 3250.88 3369.88 3428.59 3424.23 
3359.69 3217.53 3094.23 3086.1 3078.85 2974.6 2919.32 3037.79 2997.85 
2997.85 2975.72 2948.22 3044.36 2985.1 3015.79 3122.33 3192.79 3261.06 
3325.91 3512.33 3500.42 3500.42 3633.3 3711.42 3680.58 3386.63 3412.78 
3296.46 3215.96 3140.94 3094.12 3205.6 3090.04 3219.9 3368.54 3460.43 
3484.14 3341.95 3318.16 3260.35 3282.42 3245.4 3299.17 3301.21 3234.33 
3383.99 3306.01 3393.58 3446.53 3446.53 3376.63 3241.28 3241.28 3152.91 
3116.64 3109.44 3303.93 3292.32 3351.64 3452 3374.47 3403.26 3560.74 
3669.21 3485.89 3599.56 3983.02 3845.51 3735 3700.86 3675.88 3670.25 
3666.06 3666.68 3615.35 3463.07 3479.25 3409.63 3239.88 3205.75 3091.11 
2985.42 2943.22 2975.48 2944.21 2963.36 2995.64 2999.15 3035.48 3035.48 
3013.99 3061.59 3035.85 3059.86 3090.79 3030.64 2958.79 2866.98 3756.09 
3532.07 3428.44 3423.93 3224.57 3136.01 3051.48 3011.49 2914.93 2890.16 
2880.77 2880.9 2907.25 2907.25 3097.26 3097.26 3344.12 3587.2 3709.75 
3247.95 3180.95 2957.65 2851.02 2741.07 2618.79 3278.98 3243.63 3296.8 
3311.85 3230.2 3170.6 3155.26 3480.17 3390.78 3361.81 3355.63 3355.63 
3343.91 3442.88 3443.4 3568.06 3598.8 3515.68 3372.46 3330.44 3123.95 
3000.36 2918.33 3085.21 3234.9 3370.68 3511.79 3498.6 3415.2 3165.48 
3009.96 3033.85 3079.16 3050.86 3102.07 3095.96 3819.05 3707.4 3484.23 
2972.19 2922.06 2873.41 3061.22 2963.25 2900.7 2783.05 
rGFP 1 394 double
5937.16 4821.62 8103.78 4919.57 5844.38 7327.75 7356.21 9073.02 6822.54 
6034.35 6186.53 7988.93 7022.48 8486.28 6814.73 10250.6 5598.7 4630.96 
8369.25 7472.49 7716.79 9230.95 6305.64 5773.74 6605.15 5667.54 9303.12 
8770.52 8948.81 7609.33 7081.06 7555.06 7743.86 7965.15 7829.9 8100.07 
7757.32 7962.1 8272.28 8660.59 8900.58 9027.99 9027.99 9434.94 9639.49 
9719.72 9571.83 9495.2 9006.89 8203.22 8437.23 9045.43 8788.12 7828.53 
8526.49 8328.78 7730.49 8721.72 8313.73 8419.62 8823.65 6987.52 8948.81 
9754.09 9302.59 9084.42 8565.65 8578.95 8036.99 7791.51 7964.26 7381.27 
7892.6 8024.05 7518.81 7822.23 7822.23 7891.6 7464.63 7464.63 7536.75 
7532.27 7182.23 7731.25 7818.19 7609.73 8409.26 7751.88 8255.38 7835.49 
8327.9 9161.57 9114.06 9160.56 9068.64 7884.72 7600.26 6476.15 6813.53 
6678.68 7263.09 7100.63 7674.77 7489.4 7427.78 7712.2 6605.15 8976.01 
8491.02 7900.17 8304.51 8239.01 8146.41 8153.05 7626.72 7302.1 6868.21 
6554.91 6478.95 6718.65 7097.31 7097.31 7408.73 7287.42 7670.49 7270.22 
7225.16 7548.99 6784.58 7293.07 7536.58 7624.42 7992.7 8022.2 7367.53 
7547.32 6635.88 4880.95 8578.36 8326.52 8088.05 7780.63 7567.33 7631.09 
7631.09 7870.42 8413.42 8650.37 8664.69 8664.69 8416.99 8205.96 8205.96 
7538.75 7538.75 7343.56 7207.57 6937.58 7199.78 7197.35 7197.35 7504.07 
7397.1 7684.64 7967.79 7565.36 7851.56 7926.57 7926.57 8197.99 8449.57 
8143.69 8203.48 6568.79 9791.2 9837.58 9697.64 8487.56 8261.44 8199.15 
8462.3 6867.25 7213.8 7688.17 8084.72 8198.88 9230.95 9446.65 9185.17 
9189.22 8927.31 8306 8306 8040.86 6907.79 7463.1 8547.42 7660.22 
7827.47 8114.12 7765.37 7542.52 7035.89 7021.12 7472.49 8448.57 8562.16 
8019.72 7612.05 6776.62 7128.7 6701.67 6261.2 6261.2 6264.15 5909.74 
5929.53 5937.19 5937.19 5967.11 6146.98 6146.98 6607.11 6819.88 6958.35 
7103.94 8080.46 7740.15 7882.89 7781.8 7617.9 7582.98 7914.91 8049.73 
8049.73 8163.05 8210.27 8259.32 8550.53 8514.6 8414.32 8445.93 8470.96 
8282.32 8729.74 9130.27 9130.27 9511.56 9262.57 9164.15 9332.72 9030.38 
8619.68 8316.4 8071.32 8286.12 8150.89 8503.85 9087.37 9311.68 9192.84 
9141.56 8755.47 9127.88 8711.74 8119.43 8194.93 7900.43 8277.12 8724.23 
8440.88 9072.19 8952.84 9184.07 9184.07 8698.21 8910.64 8910.64 7715.99 
7513.79 7795.44 7427.27 7772.86 7785.54 7689.85 7912.88 7884.12 7895.91 
8655.11 7563.89 8363.28 10057.8 9822.6 9810.88 9238.25 9314.04 8603.02 
9001.44 8640.6 8439.23 8532.64 8421.52 8053.16 8516.96 8205.9 7739.88 
7006 6894.65 6460.88 6559.78 6435.86 6120.51 6227.86 6340.79 6340.79 
6820.42 6956.83 7252.01 7309.9 7193.15 7282.44 6875.78 6331.99 10151.2 
9538.43 9219.81 9387.33 8769.02 7769.98 7602.4 7878.88 7570 7380.49 
6976.78 6849.04 6625.1 6625.1 6815.51 6815.51 7723.64 8188.64 8736.21 
6833.68 7903.06 6955.96 6870.16 6434.14 6034.35 6951.37 7370.52 7490.12 
7476.31 7681.65 7694.88 7646.88 7919.42 7761.83 7340.4 7208.9 7208.9 
7208.42 6984.22 7225.09 7748.12 7936.11 7882.22 7413.51 7290.27 7176.67 
7135.44 7076.7 7450.67 7803.04 8064.88 7864.59 7548.54 7400.56 7411.94 
6822.54 6729.05 6636.33 6453.84 6149.26 6372.48 9665.52 9484.99 8431.57 
6241.6 6089.85 5773.12 7162.8 6837.84 6014.49 5736.95 
bkstRFP 1 394 double
605.643 428.683 1065.62 262.253 623.743 994.453 886.533 1572.78 780.813 
389.643 833.643 1316.75 1036.79 1274.36 895.763 1640.08 840.173 294.063 
1075.53 1316.21 1069.06 1098.07 906.063 666.913 928.283 962.343 1799.45 
1384.27 1281.68 845.503 943.923 926.083 1114.84 1023.05 1054.41 909.133 
935.343 890.923 881.283 849.163 810.003 954.203 954.203 1287.69 1279.95 
1369.33 1450.11 1398.26 1374.21 876.263 1295.66 1196.85 1359.29 1427.17 
1366.06 1383.75 1575.75 1499.43 1765.55 1718.79 1671.99 1332.8 1281.68 
1216.2 1320.04 1234.43 1156.47 1071.69 995.743 891.663 828.153 794.483 
713.253 707.643 762.733 857.623 857.623 918.843 1055.87 1055.87 1104.45 
1134.1 1163.52 1208.75 1295.42 1263.9 1318.42 1352.65 1316.76 1357.18 
1543.76 1580.25 1810.48 1591.8 1413.6 1073.48 983.973 817.283 820.363 
955.083 1003.2 1052.65 1026.92 1083.9 1104.85 1066.89 928.283 1439.27 
1461.44 1404.22 1434.25 1427.62 1277.96 1219.28 1064.2 990.043 1009.17 
923.483 887.643 884.013 881.963 881.963 941.583 1132.92 1139.27 1281.73 
1231.89 1202.53 1335.17 1394.12 1244.73 1491.34 1267.83 1269.73 1032.76 