# vtk DataFile Version 3.0
vtk output
ASCII
DATASET POLYDATA
POINTS 493 float
0.818589 -0.100099 1.69774 0.44348 0.805267 1.28469 0.157173 -0.196688 1.26401 
2.34701 1.26515 0.616926 -0.0436575 1.08402 0.699214 0.0258905 0.163362 0.902838 
-0.23829 0.381997 0.772625 -0.127366 -0.47348 0.930355 -0.055607 -0.318935 0.867876 
0.0368802 -0.0295795 0.748421 2.74498 0.921259 0.279869 -0.361975 0.460883 0.45855 
0.800146 -1.01302 0.999965 -0.349569 -0.186715 0.454047 2.4718 1.22638 -0.0134516 
2.91586 0.491357 0.184685 -0.013716 -0.896908 0.465389 1.28845 1.9977 -0.707308 
1.99538 -1.18099 0.488659 -0.531535 -0.311225 -0.0362474 0.206578 1.27842 -0.678905 
-0.167052 0.59525 -0.915102 3.75437 -0.507812 -0.570624 0.519564 -1.49737 -0.407389 
0.561327 -0.982505 -0.554475 4.35978 -0.937747 -0.712816 3.9519 -0.695857 -0.695924 
0.733761 -1.70551 -0.4503 4.57116 -0.911535 -0.857084 4.04165 -1.04641 -1.12104 
1.88742 -1.53088 -1.21702 1.06269 -1.66529 -1.10271 2.42389 -1.04808 -1.2887 
2.59446 -0.800965 -1.3853 -0.0351901 -0.242635 -1.78182 2.21729 -1.08458 -1.50332 
2.07664 -0.215283 -1.88693 4.11516 -0.977001 -1.65571 1.81069 -0.890558 -1.82929 
1.45542 -0.212969 -2.14283 1.07663 -1.50428 -2.04405 1.04761 -1.39325 -1.91594 
1.02248 -1.29637 -1.82189 1.0126 -1.21892 -1.77511 1.03875 -1.17078 -1.7701 
1.09349 -1.16862 -1.78396 1.1498 -1.1733 -1.82709 1.20064 -1.16719 -1.88329 
1.24858 -1.15241 -1.93531 1.30712 -1.15589 -1.95459 1.36663 -1.1576 -1.95841 
1.42829 -1.16219 -1.95279 1.48265 -1.14805 -1.9476 1.5288 -1.11106 -1.9366 
1.56748 -1.05093 -1.91179 1.61131 -1.00058 -1.87437 1.65922 -0.961617 -1.83988 
1.70902 -0.932983 -1.82506 1.75965 -0.910304 -1.82378 1.40363 -0.230991 -2.13811 
1.34816 -0.240569 -2.13725 1.28639 -0.23571 -2.143 1.22584 -0.233665 -2.14746 
1.15971 -0.218815 -2.15779 1.09426 -0.205512 -2.1674 1.03807 -0.21345 -2.16729 
0.985569 -0.229841 -2.16332 0.930096 -0.239419 -2.16247 0.869077 -0.236284 -2.16743 
0.813641 -0.245946 -2.16653 0.761892 -0.264061 -2.16177 0.710413 -0.280782 -2.14952 
0.658533 -0.294574 -2.13047 0.605179 -0.300961 -2.09855 0.54814 -0.298905 -2.07049 
0.48511 -0.281102 -2.0415 0.428071 -0.279046 -2.01344 0.374274 -0.282408 -1.97476 
0.320478 -0.285774 -1.9361 0.262232 -0.274915 -1.88767 0.198402 -0.251255 -1.84509 
0.14052 -0.243244 -1.80349 0.0868144 -0.25084 -1.77915 0.0302246 -0.255846 -1.77225 
1.86904 -0.922316 -1.81212 1.91335 -0.95951 -1.79345 1.96255 -0.994812 -1.7753 
2.00695 -1.03197 -1.75663 2.0666 -1.06014 -1.73286 2.13263 -1.07658 -1.68954 
2.18737 -1.08195 -1.61126 1.84148 -0.824415 -1.85602 1.87295 -0.759812 -1.88205 
1.9081 -0.703652 -1.90422 1.94884 -0.660306 -1.92052 1.98389 -0.604185 -1.94268 
2.01357 -0.540275 -1.96852 2.0329 -0.475479 -1.98727 2.03692 -0.407239 -1.98417 
2.053 -0.3189 -1.94864 4.08421 -1.02689 -1.59291 4.06085 -1.05595 -1.49017 
4.05328 -1.05604 -1.32898 2.15278 -0.277207 -1.95266 2.2264 -0.321578 -1.97763 
2.29513 -0.343152 -1.94809 2.35287 -0.356621 -1.89038 2.39477 -0.376227 -1.83096 
2.44086 -0.40347 -1.79224 2.47191 -0.442707 -1.76538 2.49398 -0.488503 -1.7443 
2.51426 -0.534992 -1.72303 2.53275 -0.582174 -1.70157 2.54166 -0.629974 -1.67232 
2.53742 -0.676691 -1.62816 2.55519 -0.705631 -1.56614 2.59409 -0.723305 -1.49964 
2.61007 -0.752937 -1.43743 2.09455 -0.169455 -1.94606 2.08793 -0.123852 -1.9823 
2.06905 -0.0737337 -1.99697 2.04586 -0.0191071 -1.99769 2.01371 0.0289638 -2.00419 
1.9679 0.0686631 -2.01595 1.93656 0.110873 -2.03603 1.91449 0.156669 -2.0571 
1.894 0.203079 -2.07835 1.87142 0.251768 -2.09262 1.83708 0.302075 -2.09214 
1.7781 0.352115 -2.06875 1.71694 0.404399 -2.03837 1.66803 0.461422 -2.00932 
1.60536 0.510033 -1.98554 1.53302 0.55799 -1.95396 1.459 0.605297 -1.92219 
1.38527 0.649629 -1.89721 1.31234 0.688099 -1.88581 1.23942 0.726568 -1.87441 
1.16579 0.770939 -1.84944 1.09305 0.821829 -1.81107 1.02878 0.882171 -1.76012 
0.977361 0.956743 -1.69032 0.909987 1.04058 -1.58505 0.833016 1.13614 -1.44501 
0.762666 1.24341 -1.2854 0.710103 1.35864 -1.12009 0.668836 1.46455 -0.950096 
0.67016 1.54842 -0.76806 0.672201 1.59094 -0.576217 0.65674 1.60684 -0.390069 
0.644627 1.61275 -0.223651 0.617509 1.60658 -0.0690673 0.583511 1.59157 0.07276 
0.557866 1.57372 0.200148 0.546701 1.55402 0.304958 0.518297 1.53443 0.400617 
0.476721 1.52472 0.491241 0.447925 1.50806 0.593683 0.437656 1.48253 0.684905 
0.417013 1.44193 0.757774 0.399707 1.39015 0.803341 0.404833 1.34089 0.832996 
0.410361 1.28869 0.855858 0.39436 1.22816 0.881043 0.378462 1.16768 0.906217 
0.385781 1.11617 0.928886 0.401977 1.07119 0.957346 0.409891 1.02918 1.00019 
0.402544 0.990519 1.06492 0.407216 0.959534 1.13515 0.413361 0.924752 1.199 
0.414809 0.871108 1.24648 2.18139 -1.13902 -1.48194 2.13989 -1.18064 -1.46642 
2.10035 -1.22672 -1.44886 2.05849 -1.26551 -1.42651 2.0225 -1.31571 -1.39081 
1.98944 -1.36863 -1.3376 1.9577 -1.42657 -1.29022 1.92608 -1.48478 -1.24271 
2.28082 -1.07357 -1.43159 2.34444 -1.05312 -1.36394 -0.0695994 -0.282391 -1.69397 
-0.104278 -0.323541 -1.61361 -0.142238 -0.359179 -1.54391 -0.185385 -0.384944 -1.48686 
-0.223349 -0.420575 -1.41717 -0.257524 -0.464614 -1.3436 -0.289339 -0.509542 -1.26953 
-0.311441 -0.553909 -1.20321 -0.320289 -0.586971 -1.12481 -0.34439 -0.616674 -1.02453 
-0.379818 -0.635216 -0.88934 -0.419192 -0.640919 -0.727601 -0.463487 -0.622495 -0.544248 
-0.510117 -0.560273 -0.363787 -0.535441 -0.448191 -0.19551 -0.0625972 -0.143337 -1.68088 
-0.0886146 -0.0404124 -1.57333 -0.104066 0.069688 -1.46017 -0.0969298 0.193744 -1.33823 
-0.0912554 0.321593 -1.20994 -0.116408 0.452501 -1.06595 2.55854 -0.855544 -1.36386 
2.51676 -0.899868 -1.34719 2.47473 -0.963251 -1.32231 2.66012 -0.786572 -1.27451 
2.72591 -0.776502 -1.17801 2.78841 -0.760921 -1.09216 2.84489 -0.729508 -1.00542 
2.90504 -0.700467 -0.893197 2.96403 -0.666777 -0.77497 3.0134 -0.613038 -0.674051 
3.05482 -0.545102 -0.595886 3.08504 -0.449756 -0.522145 3.10743 -0.333203 -0.425691 
3.11644 -0.207576 -0.301636 3.10027 -0.0915776 -0.174911 3.07457 0.00838186 -0.0741368 
3.04747 0.0923638 -0.00696135 3.0135 0.167515 0.0474654 2.97485 0.239898 0.100127 
2.96384 0.324247 0.149245 2.94621 0.405587 0.177728 2.47267 -1.06909 -1.17169 
2.49921 -1.07907 -1.0527 2.51424 -1.0888 -0.942563 2.51984 -1.11326 -0.858958 
2.51106 -1.15545 -0.800859 2.505 -1.19787 -0.75058 2.4786 -1.23212 -0.688877 
2.43681 -1.25417 -0.625262 2.39823 -1.28813 -0.556323 2.35996 -1.32506 -0.494165 
2.31593 -1.34478 -0.423612 2.27561 -1.36696 -0.327541 2.23257 -1.37285 -0.19826 
2.17861 -1.34567 -0.0515771 2.11869 -1.29678 0.117698 2.05726 -1.2404 0.299803 
1.09424 -1.60087 -1.12865 1.13055 -1.54937 -1.15682 1.17768 -1.52671 -1.18806 
1.23108 -1.52446 -1.23435 1.28929 -1.53522 -1.28283 1.35272 -1.55596 -1.31861 
1.40895 -1.55215 -1.33309 1.45994 -1.52826 -1.32422 1.50932 -1.49265 -1.2882 
1.56198 -1.46255 -1.24151 1.62175 -1.45275 -1.20182 1.68195 -1.45201 -1.1905 
1.75029 -1.47796 -1.19949 1.82244 -1.51263 -1.20449 4.13947 -1.03288 -0.975659 
4.21687 -1.01637 -0.854317 4.28703 -0.990636 -0.767008 3.9909 -0.876203 -0.903952 
4.60012 -0.887191 -1.04095 4.61077 -0.865914 -1.1707 4.6222 -0.826392 -1.24096 
4.62671 -0.775386 -1.27618 4.6462 -0.713509 -1.30174 4.67338 -0.64866 -1.32813 
4.69257 -0.583811 -1.34691 4.69699 -0.518503 -1.35061 4.71427 -0.438959 -1.33545 
4.7401 -0.35014 -1.30763 4.76865 -0.261014 -1.2717 4.80609 -0.192 -1.22655 
4.8638 -0.17172 -1.16725 4.9293 -0.178149 -1.11213 4.98639 -0.200932 -1.07468 
5.01872 -0.236583 -1.04121 5.0378 -0.274278 -0.999571 5.04331 -0.311043 -0.942968 
5.0253 -0.356914 -0.883836 5.00631 -0.409336 -0.838078 4.99997 -0.459951 -0.800446 
4.97947 -0.516041 -0.761276 4.94927 -0.572696 -0.714365 4.9171 -0.631399 -0.674767 
4.88151 -0.684534 -0.645849 4.84002 -0.726163 -0.630329 4.80012 -0.773448 -0.620357 
4.75476 -0.813031 -0.632882 4.70575 -0.853852 -0.67741 4.64807 -0.891979 -0.75324 
4.50176 -0.94356 -0.798874 4.44042 -0.962042 -0.746046 0.598252 -1.56084 -0.445351 
0.650856 -1.61791 -0.466088 0.700205 -1.66206 -0.465655 4.02336 -0.634138 -0.621382 
4.09202 -0.609695 -0.538996 4.16058 -0.613208 -0.476866 4.22819 -0.640289 -0.458483 
4.28072 -0.702397 -0.498593 4.30755 -0.807959 -0.588788 3.87298 -0.631438 -0.655677 
3.81738 -0.566268 -0.614386 0.579315 -1.02679 -0.526208 0.587631 -1.07174 -0.490156 
0.579387 -1.11692 -0.438818 0.576241 -1.16321 -0.39478 0.567038 -1.21603 -0.359049 
0.564403 -1.28302 -0.357216 0.546742 -1.37493 -0.375141 0.440186 -1.47186 -0.242627 
0.373095 -1.43554 -0.0925969 0.308535 -1.3908 0.0324007 0.23626 -1.33092 0.126172 
0.162768 -1.26999 0.192484 0.100028 -1.20608 0.250062 0.0623746 -1.13235 0.304895 
0.035382 -1.05141 0.36531 0.0105808 -0.972712 0.418756 -0.127273 0.689854 -0.886257 
-0.0878865 0.767906 -0.836818 -0.0561905 0.856471 -0.781606 -0.025254 0.947194 -0.719299 
0.0115083 1.01978 -0.667652 0.0438891 1.09636 -0.642245 0.0749032 1.16804 -0.647117 
0.110445 1.22531 -0.66166 0.156334 1.25686 -0.672566 -0.240442 0.605014 -0.751275 
-0.299436 0.616742 -0.614387 -0.345852 0.609844 -0.506413 -0.391829 0.601395 -0.41391 
-0.429543 0.578309 -0.317293 -0.452966 0.553863 -0.211161 -0.451494 0.531074 -0.120438 
-0.447387 0.503024 -0.0434431 -0.454905 0.466538 0.0264056 -0.447643 0.447457 0.123953 
-0.419595 0.448503 0.26858 -0.470215 -0.260615 0.155609 -0.407132 -0.214611 0.325321 
-0.543386 -0.21208 0.0495318 -0.530711 -0.11271 0.112415 -0.505463 -0.0208205 0.146961 
-0.478634 0.074024 0.18638 -0.451394 0.179537 0.247483 -0.416582 0.308643 0.345306 
1.96273 -1.263 0.441342 1.92123 -1.32672 0.377504 1.87616 -1.3863 0.295528 
1.83034 -1.44416 0.212753 1.78381 -1.50038 0.129241 1.7324 -1.53937 0.0622262 
1.67378 -1.55382 0.0165211 1.61839 -1.56358 0.0174614 1.56531 -1.56858 0.0568732 
1.5151 -1.57615 0.113744 1.46684 -1.58818 0.172644 1.40781 -1.57754 0.213032 
1.35024 -1.56823 0.262171 1.29461 -1.56135 0.32055 1.23548 -1.54444 0.382482 
1.16969 -1.51027 0.444635 1.10429 -1.47295 0.521619 1.03098 -1.40947 0.619161 
0.95285 -1.32861 0.733157 0.875537 -1.24256 0.853037 0.81264 -1.16316 0.944325 
0.788242 -1.0874 0.990969 1.95612 -1.08453 0.630538 1.89929 -1.0143 0.766546 
1.82734 -0.942838 0.884961 1.75401 -0.875001 0.996777 1.68593 -0.821476 1.10701 
1.61334 -0.759637 1.20529 1.54222 -0.705194 1.29071 1.4802 -0.673351 1.37833 
1.42104 -0.649552 1.44537 1.36309 -0.60972 1.4813 1.31603 -0.563256 1.49078 
1.25421 -0.520599 1.50103 1.18238 -0.475536 1.52581 1.10974 -0.424606 1.56417 
1.04587 -0.367197 1.60833 0.996258 -0.304269 1.65095 0.93638 -0.248403 1.68794 
0.886575 -0.194816 1.71033 0.864596 -0.139723 1.70948 1.30551 1.9901 -0.597971 
1.33513 1.975 -0.516989 1.39179 1.95494 -0.472655 1.45902 1.9297 -0.449702 
1.51918 1.89864 -0.432735 1.56537 1.86217 -0.414261 1.62563 1.83115 -0.397305 
1.69465 1.80661 -0.374545 1.76277 1.78789 -0.338198 1.81882 1.77376 -0.280307 
1.85115 1.75354 -0.213098 1.88378 1.73035 -0.15268 1.93964 1.70381 -0.121751 
1.9987 1.66615 -0.118165 2.04541 1.61136 -0.140227 2.09742 1.55553 -0.16962 
2.14412 1.50075 -0.191682 2.20359 1.46016 -0.19488 2.26066 1.42481 -0.18433 
2.29559 1.38399 -0.164641 2.3288 1.34346 -0.142486 2.37553 1.30998 -0.11449 
2.41765 1.27207 -0.0713958 2.97145 0.516248 0.0102437 2.9801 0.54144 -0.0970842 
2.96492 0.591603 -0.116944 2.95013 0.669037 -0.0758412 2.93341 0.765795 0.010681 
2.86328 0.851322 0.131215 2.56532 1.15422 -0.0845091 2.64695 1.09296 -0.142113 
2.7202 1.04365 -0.175748 2.77994 1.0021 -0.18121 2.81257 0.963442 -0.154519 
2.82746 0.93906 -0.0784701 2.81296 0.931266 0.0694877 2.81285 0.575282 0.290506 
2.7685 0.663318 0.371077 2.75592 0.745438 0.418371 2.73155 0.805274 0.426113 
2.73423 0.861652 0.377693 2.40432 1.24813 0.301756 -0.31351 -0.20371 0.544313 
-0.270519 -0.233994 0.592251 -0.238427 -0.270716 0.626168 -0.203901 -0.300738 0.673492 
-0.141362 -0.312225 0.754863 -0.297929 0.580423 0.54203 -0.256842 0.68006 0.592341 
-0.221573 0.751079 0.604169 -0.180915 0.799414 0.603889 -0.142573 0.854293 0.606701 
-0.10353 0.913596 0.631883 -0.0715506 0.993117 0.664084 -0.326643 0.409882 0.581639 
-0.291629 0.38671 0.684611 2.63419 1.01028 0.412647 2.54675 1.08775 0.51409 
2.47945 1.15221 0.573856 2.42447 1.21147 0.601581 0.0187617 0.0662252 0.823153 
0.0322944 -0.282846 1.00293 0.0966001 -0.234336 1.13124 -0.0936477 -0.400862 0.900997 
0.0738896 0.23301 0.992772 0.12432 0.297455 1.09317 0.170848 0.357983 1.18291 
0.215777 0.419007 1.2683 0.257687 0.479789 1.32534 0.291495 0.553106 1.35225 
0.326219 0.616375 1.35122 0.366975 0.663388 1.34142 0.404709 0.725112 1.317 
2.26769 1.26504 0.690386 2.19682 1.28589 0.749917 2.14058 1.29212 0.813932 
2.09128 1.28363 0.876633 2.03221 1.29437 0.916979 1.97589 1.29479 0.945786 
1.92253 1.28841 0.97771 1.86833 1.28797 1.02317 1.81009 1.29883 1.07161 
1.74666 1.31956 1.10738 1.68998 1.31877 1.12861 1.63716 1.30514 1.13946 
1.58203 1.29677 1.14789 1.52528 1.29414 1.16183 1.48231 1.26194 1.19743 
1.43974 1.22681 1.22624 1.38303 1.2241 1.24021 1.32789 1.21978 1.26307 
1.27929 1.20452 1.30717 1.24062 1.16647 1.36172 1.20347 1.12093 1.40342 
1.16158 1.08223 1.42574 1.1224 1.03331 1.43646 1.08144 0.984431 1.4309 
1.04382 0.923873 1.41442 1.00322 0.872156 1.40202 0.962839 0.827982 1.41871 
0.91388 0.811518 1.45524 0.856842 0.813575 1.4833 0.791423 0.826793 1.47373 
0.727304 0.826979 1.42946 0.669451 0.8086 1.37741 0.607823 0.797681 1.33 
0.538166 0.791611 1.30427 
LINES 41 578
20 40 41 42 43 44 45 46 47 48 49 50 51 52 53 54 55 56 57 58 38 
27 39 59 60 61 62 63 64 65 66 67 68 69 70 71 72 73 74 75 76 77 78 79 80 81 82 83 34 
9 38 84 85 86 87 88 89 90 35 
11 38 91 92 93 94 95 96 97 98 99 36 
5 37 100 101 102 29 
17 36 103 104 105 106 107 108 109 110 111 112 113 114 115 116 117 33 
56 36 118 119 120 121 122 123 124 125 126 127 128 129 130 131 132 133 134 135 136 137 138 139 140 141 142 143 144 145 146 147 148 149 150 151 152 153 154 155 156 157 158 159 160 161 162 163 164 165 166 167 168 169 170 171 1 
4 35 180 181 32 
17 34 182 183 184 185 186 187 188 189 190 191 192 193 194 195 196 19 
8 34 197 198 199 200 201 202 21 
5 33 203 204 205 32 
20 33 206 207 208 209 210 211 212 213 214 215 216 217 218 219 220 221 222 223 15 
18 32 224 225 226 227 228 229 230 231 232 233 234 235 236 237 238 239 18 
5 29 254 255 256 25 
3 29 257 26 
32 28 258 259 260 261 262 263 264 265 266 267 268 269 270 271 272 273 274 275 276 277 278 279 280 281 282 283 284 285 286 287 28 
4 28 288 289 25 
5 23 290 291 292 27 
8 26 293 294 295 296 297 298 25 
4 26 299 300 22 
9 24 301 302 303 304 305 306 307 23 
11 23 308 309 310 311 312 313 314 315 316 16 
11 21 317 318 319 320 321 322 323 324 325 20 
13 21 326 327 328 329 330 331 332 333 334 335 336 11 
8 19 339 340 341 342 343 344 11 
24 18 345 346 347 348 349 350 351 352 353 354 355 356 357 358 359 360 361 362 363 364 365 366 12 
21 18 367 368 369 370 371 372 373 374 375 376 377 378 379 380 381 382 383 384 385 0 
25 17 386 387 388 389 390 391 392 393 394 395 396 397 398 399 400 401 402 403 404 405 406 407 408 14 
8 15 409 410 411 412 413 414 10 
9 14 415 416 417 418 419 420 421 10 
7 15 422 423 424 425 426 10 
3 14 427 3 
9 11 433 434 435 436 437 438 439 4 
4 11 440 441 6 
6 10 442 443 444 445 3 
4 8 447 448 2 
3 8 449 7 
36 3 459 460 461 462 463 464 465 466 467 468 469 470 471 472 473 474 475 476 477 478 479 480 481 482 483 484 485 486 487 488 489 490 491 492 1 
25 35 172 173 174 175 176 177 178 179 30 253 252 251 250 249 248 247 246 245 244 243 242 241 240 31 
10 19 337 338 13 428 429 430 431 432 8 
13 9 446 5 450 451 452 453 454 455 456 457 458 1 

POINT_DATA 493
SCALARS DY_raw double
LOOKUP_TABLE default
4060.49 3124.75 3792.89 3631.24 3812.51 2461.5 4164.32 4280.42 2678.55 
2111.58 3934.86 2970.59 2917.52 3793.56 3399.87 4088.59 3059.15 2845.47 
2495.82 2725.05 3048.61 3049.84 3944.5 1889.6 2141.62 3208.07 2493.86 
3046.92 3034.18 2830.44 2420.56 3565.39 2319.8 3126.31 1999.03 3117.65 
4446.27 1824.46 3307.52 3410.23 2890.37 3203.36 2948.34 2629.85 2353.74 
2306.87 2395.43 2302.26 2521.99 2580.13 2857.76 3138.07 3207.34 3409.9 
3744.9 4041.38 3972.67 3545.69 3545.69 2919.15 3143.34 3371.7 2840.04 
3276.72 2795.38 2910.87 2709.77 2709.77 2773.81 2946.34 2946.34 2497.04 
2456.48 2658.06 2673.31 2880.09 3031.67 2789.95 2611.76 2603.4 2484.65 
2657.43 2191.56 2159.47 3442.36 3728.43 3728.43 3666.65 3101.97 3310.12 
2863.36 3159.02 3098.82 3457.01 3843 4029.92 4053.48 3894.28 3944.08 
3785.85 1770.16 1878.62 2304.56 3611.49 3421.64 3555.05 3661.24 3924.29 
3924.29 4257.63 3995.48 3995.48 3912.7 3605.87 3605.87 3372.58 3338.49 
3637.69 3816.29 3923.82 3923.82 3945.82 3946.51 4382.63 4244.41 4244.41 
4374.9 3527.67 3527.67 3789.16 3147.65 3706.77 3406.61 3656.2 3971.13 
3383.99 3219.6 3219.6 2472.6 2754.32 2413.91 2248.63 2931.02 2759.52 
2517.76 2636.7 2335.52 2426.95 2717.21 2851.17 3292.73 3566.28 3651.5 
3597.56 3335.57 3508.71 3514.23 3397.67 3262.03 3425.27 3219.93 3311.9 
3332.97 3445.66 3445.66 3374.77 3387.86 3387.86 3445.34 3530.01 3635.89 
3288.03 3117.65 3215.08 3480 3360.8 2729.84 2537.32 2520.68 2320.22 
2696.02 2507.22 2373.48 2829.14 2947.77 2675.71 2700.36 2601.81 2578.35 
2301.77 2222.93 2157.21 2288.6 2312.59 2236 2661.68 2995.69 2613.74 
2686.81 2918.8 3221.8 2950.78 2855.54 3184.66 2639.82 2339.66 3113.5 
3057.23 3069.88 2805.43 2902.4 3543.79 3121.3 3391.55 3089.77 2999.43 
3010.05 3641.71 3716.82 3500.45 4127.61 3730.58 3981.7 4072.06 2442.45 
2668.79 2873.16 2994.1 3075.77 3171.27 3298.02 3296.74 3127.7 3249.8 
3086.5 2700.6 3184.07 3009.53 2474.45 2335.43 3684.4 3409.44 3591.7 
3359.25 3150.33 2967.94 2967.94 2774.79 3325.93 3813.46 3507.48 3241.89 
3149.16 2607.62 3142.84 3342.85 3403.96 2654.53 3146.09 2735.34 2699.75 
2910.67 3175 3175 3001.01 3001.74 3086.91 3059.57 3216.91 2691.87 
3291.76 3499.55 3189.92 3509.6 3421.2 3694.82 3845.16 3733.12 3631.78 
3549.26 3402.4 3180.26 3134.05 3074.64 2940.16 3101.11 3156.76 3132.52 
3115.86 3360.19 1936.18 2282.9 2575.99 2670.55 3122.25 3397.42 3417.89 
3346.31 3258.57 2677.41 3336.93 2166.33 2131.88 2342.53 2265.48 2093.27 
1992.44 1807.98 2405.51 2788.24 2939.06 2510.93 2484.25 2939.06 2915.15 
2579.03 3035.43 2489.15 2198.19 2485.48 2547.83 3120.83 3198.56 3171.43 
2981.74 3113.49 3164.44 3303.08 3232.2 3175.26 3264.25 3262.29 3425.55 
3481.26 2970.42 2842.19 3086.56 2819.33 3128.76 2419.15 2323.33 2374.38 
2785.14 2784.31 3152.64 3043.73 2882.95 3544.8 2983.35 2783.44 3063.88 
2842.13 2904.37 2910.02 3095.44 3064.38 3025.3 3207.81 2707.84 3051.15 
3184.34 2816.54 2479.56 2401.14 3081.45 3046.45 3538.24 2629.59 2808.76 
2833.98 3322.6 3189.31 3372.05 3230.99 2969.37 3589.7 3847.91 3948.8 
4232.74 4642.52 3972.46 3983.68 4782.14 4125.2 4962.02 4455.1 2605.9 
3021.36 3025.28 3177.47 4059.42 4810.31 4524.4 5125.51 5422.03 4932.12 
5584.55 6027.35 5570.9 6109.12 5012.6 4683.1 4141.63 4141.63 3519.74 
3529.13 3328.24 3443.41 3387.73 3642.51 3157.9 3051.07 3390.88 3556.72 
4042.76 3234.04 3262.84 3215.98 2998.54 2921.32 3178.47 3548.02 4572.15 
4860.19 4964.67 5119.23 4408.14 3748.84 3840.07 3876.32 3181.86 3209.13 
2823.8 2914.62 3076.43 2812.28 2891.69 2891.69 3187.33 3509.69 3347.31 
3539.01 4175.65 4063.37 3559.05 3572.14 2060.34 2757.98 3487.65 3307.25 
2829.64 2951.31 3014.66 3001.29 3292.69 3427.86 3297.55 3174.51 3002.36 
3371.12 3157.41 3156.63 3256.36 3605.51 3825.12 3362.04 3608.42 3882.59 
4120.6 4120.6 3775.21 3950.27 3950.27 4039.55 4208.67 4548.63 4129.07 
4237.05 4684.83 4273.56 4274.9 4274.9 4243.04 3973.36 3910 4056.5 
4189.27 4245.92 4298.3 4298.3 4203.97 3760.09 3364.04 
FIELD FieldData 7
DY_minmax 1 493 double
0.527851 0.312193 0.466177 0.428921 0.4707 0.159333 0.551781 0.578539 0.209357 
0.0786872 0.498898 0.276663 0.264431 0.466333 0.375598 0.534329 0.297073 0.247827 
0.167242 0.220072 0.294644 0.294928 0.501119 0.0275274 0.0856095 0.331394 0.166791 
0.294255 0.291318 0.244362 0.149897 0.413747 0.126675 0.312552 0.0527459 0.310556 
0.616763 0.0125123 0.354314 0.377986 0.258174 0.330308 0.271535 0.198132 0.134496 
0.123695 0.144104 0.122633 0.173272 0.186673 0.250659 0.315262 0.331227 0.37791 
0.455119 0.523447 0.507611 0.409207 0.409207 0.264808 0.316476 0.369106 0.246574 
0.347215 0.236282 0.262898 0.216551 0.216551 0.23131 0.271074 0.271074 0.167524 
0.158175 0.204634 0.208148 0.255805 0.290738 0.235031 0.193963 0.192036 0.164669 
0.204489 0.0971181 0.0897225 0.385391 0.451321 0.451321 0.437084 0.306941 0.354913 
0.25195 0.32009 0.306216 0.388767 0.477728 0.520805 0.526237 0.489546 0.501023 
0.464555 0 0.0249965 0.123163 0.424371 0.380617 0.411362 0.435837 0.496463 
0.496463 0.573286 0.51287 0.51287 0.49379 0.423074 0.423074 0.36931 0.361453 
0.43041 0.471571 0.496353 0.496353 0.501425 0.501582 0.602096 0.57024 0.57024 
0.600313 0.405052 0.405052 0.465319 0.31747 0.446329 0.377153 0.434675 0.507258 
0.371939 0.334051 0.334051 0.16189 0.226819 0.148363 0.110272 0.267542 0.228018 
0.172297 0.199711 0.130298 0.151369 0.218266 0.24914 0.350905 0.413952 0.433592 
0.42116 0.36078 0.400682 0.401955 0.375091 0.343832 0.381452 0.334128 0.355324 
0.360179 0.386152 0.386152 0.369813 0.372831 0.372831 0.386078 0.405591 0.429995 
0.349822 0.310556 0.33301 0.394066 0.366594 0.221176 0.176805 0.172971 0.126772 
0.213383 0.16987 0.139047 0.244062 0.271403 0.208701 0.214383 0.191669 0.186263 
0.122519 0.104348 0.0892022 0.119483 0.125013 0.10736 0.205468 0.282446 0.194418 
0.21126 0.264727 0.334559 0.272096 0.250147 0.325999 0.20043 0.131251 0.309599 
0.29663 0.299547 0.238597 0.260946 0.408768 0.311396 0.373681 0.304129 0.283308 
0.285756 0.431335 0.448647 0.398779 0.54332 0.451818 0.509693 0.530519 0.154942 
0.207106 0.254207 0.28208 0.300903 0.322913 0.352125 0.351831 0.312872 0.341012 
0.303377 0.214437 0.325863 0.285638 0.162316 0.130278 0.441175 0.377803 0.41981 
0.366237 0.318088 0.276053 0.276053 0.231537 0.358558 0.470919 0.4004 0.33919 
0.317817 0.193008 0.316361 0.362457 0.376542 0.203821 0.317111 0.222444 0.214241 
0.262852 0.323773 0.323773 0.283673 0.283841 0.303471 0.29717 0.333433 0.212426 
0.350682 0.398571 0.327211 0.400887 0.380514 0.443575 0.478225 0.452402 0.429046 
0.410029 0.376182 0.324984 0.314336 0.300642 0.269649 0.306743 0.319569 0.313982 
0.310144 0.366454 0.0382624 0.11817 0.18572 0.207511 0.311616 0.375034 0.379752 
0.363254 0.343034 0.209093 0.361092 0.0913051 0.0833653 0.131912 0.114155 0.0744657 
0.0512275 0.0087153 0.146427 0.234635 0.269397 0.170725 0.164575 0.269396 0.263885 
0.18642 0.291605 0.165704 0.0986469 0.164859 0.179229 0.311289 0.329203 0.32295 
0.279232 0.309597 0.321338 0.353291 0.336955 0.323832 0.344342 0.34389 0.381517 
0.394356 0.276622 0.24707 0.30339 0.241802 0.313115 0.149571 0.127487 0.139255 
0.233922 0.23373 0.318619 0.293519 0.256464 0.409001 0.279604 0.233529 0.298163 
0.247057 0.2614 0.262704 0.305437 0.298279 0.289271 0.331335 0.216106 0.295229 
0.325925 0.241159 0.163495 0.145421 0.302212 0.294146 0.407488 0.198071 0.239366 
0.245178 0.35779 0.32707 0.369186 0.336678 0.276382 0.419348 0.478858 0.50211 
0.567551 0.661992 0.507564 0.51015 0.694171 0.542765 0.735628 0.618799 0.192613 
0.288363 0.289267 0.324343 0.527605 0.700662 0.634769 0.773308 0.841646 0.728737 
0.879103 0.981154 0.875955 1 0.747285 0.671346 0.546553 0.546553 0.403226 
0.405389 0.359091 0.385632 0.3728 0.43152 0.319831 0.295211 0.373526 0.411748 
0.523765 0.33738 0.344018 0.333217 0.283105 0.265307 0.324572 0.409742 0.645775 
0.712159 0.736238 0.77186 0.607975 0.456025 0.477052 0.485407 0.325353 0.33164 
0.242832 0.263764 0.301055 0.240177 0.258478 0.258478 0.326614 0.400909 0.363485 
0.407666 0.554394 0.528515 0.412286 0.415302 0.0668762 0.227662 0.395829 0.354252 
0.244178 0.272219 0.286819 0.283737 0.350898 0.38205 0.352017 0.32366 0.283984 
0.368974 0.319719 0.319538 0.342523 0.422993 0.473607 0.366881 0.423662 0.486851 
0.541705 0.541705 0.462103 0.502448 0.502448 0.523025 0.562002 0.640353 0.543657 
0.568543 0.671744 0.576958 0.577267 0.577267 0.569924 0.507772 0.493167 0.526933 
0.557531 0.570587 0.582659 0.582659 0.560921 0.458619 0.367341 
WidthEq 1 493 double
1.41413 1.98702 2.13259 2.00184 1.49374 2.74024 1.6926 1.96961 3.23501 
2.45432 1.8025 3.17218 2.03948 2.39383 2.20802 1.83545 2.42022 1.1343 
4.00299 3.75251 2.45904 3.99229 1.59908 4.54807 1.63044 2.5091 3.34407 
2.59493 3.06773 3.57561 3.09697 2.10117 2.87387 2.50261 3.29536 2.13918 
1.94236 2.0046 2.29316 2.23072 1.95907 2.30462 2.85912 3.22926 3.36238 
3.31425 3.07086 3.11544 2.50379 2.27602 2.23371 1.9624 1.88179 1.86416 
1.825 1.75442 1.83372 2.0361 2.0361 2.52182 2.60435 2.45653 2.70615 
2.40331 2.51899 2.4523 2.39601 2.39601 2.40107 2.39355 2.39355 2.71025 
2.75752 2.64552 2.67862 2.58848 2.58873 2.88874 3.08204 3.31227 3.60177 
3.49226 3.68814 3.52905 2.43797 2.12638 2.12638 1.78539 1.85035 1.79733 
2.03314 2.55097 2.42626 2.13435 1.87676 1.76703 1.79573 1.93093 2.08499 
2.23745 2.67761 3.48846 3.85377 2.35062 2.31052 2.0704 1.98208 1.87229 
1.87229 1.78866 1.92344 1.92344 1.98713 2.19469 2.19469 2.44375 2.51349 
2.39425 2.07261 1.92212 1.92212 1.78383 1.7968 1.68399 1.79878 1.79878 
1.81105 2.16833 2.16833 2.15788 2.45054 2.30138 2.33081 1.97635 1.81765 
1.59572 1.88582 1.88582 2.90635 3.05119 3.58836 3.67151 3.22733 3.45845 
3.93762 4.07072 4.7108 4.63564 4.14372 3.69194 2.8964 2.362 2.43959 
2.31764 2.23368 1.95446 1.87844 1.99493 2.16881 2.10072 2.33028 2.26549 
2.27748 2.07241 2.07241 1.93316 1.74073 1.74073 1.78235 1.83173 1.79573 
1.93417 2.13918 2.12074 1.92017 1.95603 2.30065 2.72303 2.78734 3.21 
2.35579 2.66819 2.8784 2.75224 2.77001 2.94115 3.06458 3.27294 3.43536 
3.79971 4.04987 4.17857 4.14392 4.27506 4.53698 3.95948 3.43296 3.06472 
2.43707 2.44923 2.61291 3.40461 3.98438 2.32689 2.54719 2.77879 2.64116 
2.52087 2.53643 2.52277 2.339 2.11615 2.23435 2.16705 2.12579 1.99446 
1.96665 1.83853 1.85183 2.05142 1.93811 2.12325 2.06335 1.96796 2.99565 
2.95473 2.93139 2.89889 2.84263 2.70458 2.52302 2.4461 2.47078 2.44817 
2.54876 2.73574 2.58143 2.83491 3.53556 3.75063 2.13029 2.31345 2.28723 
2.38207 2.40253 2.27843 2.27843 2.24559 2.04555 1.84822 2.01889 2.41823 
2.52822 3.08249 3.14024 2.55496 2.29355 3.3692 2.93668 3.0463 2.89525 
2.62526 2.33092 2.33092 2.39775 2.40912 2.44842 2.44979 2.34478 2.66615 
2.37656 2.14111 2.07836 1.99432 1.83973 1.6926 1.69101 1.6962 1.7556 
1.79783 1.92254 2.07764 2.18141 2.22851 2.42891 2.40535 2.57123 2.8777 
3.02916 2.65061 4.30298 3.74798 3.23963 3.02978 2.60212 2.36222 2.31697 
2.37589 2.45812 2.91982 2.16789 1.70719 2.84774 3.06913 3.23046 3.98089 
4.4088 4.90921 3.91272 3.33256 2.99417 3.33412 3.31193 2.94045 2.97379 
3.00689 2.67213 4.54206 4.45592 4.0701 3.27414 2.78463 2.62235 2.64684 
2.65206 2.58965 3.68649 3.16058 2.96983 2.79545 2.80621 2.926 2.8616 
2.78932 3.1013 3.17338 3.14161 3.53142 2.91239 3.55099 3.21805 3.04328 
2.29089 2.41242 2.78102 3.36898 3.44372 2.34872 2.63554 2.37181 1.76695 
1.75775 1.64861 1.6869 1.69841 1.93266 1.99834 2.02364 2.37214 2.30381 
2.32074 2.51352 2.64178 2.72504 2.57559 2.47408 2.31035 3.80785 3.11516 
2.63135 2.26644 2.34668 2.33777 2.34425 2.41214 2.13412 1.8812 1.68941 
1.39736 1.23411 1.35004 1.48253 1.30479 1.57907 1.38196 1.50668 1.65288 
1.83134 1.86902 1.85887 1.53275 1.29437 1.29862 1.18598 1.07345 1.16854 
1.07027 1 1.05023 1.0026 1.14227 1.18964 1.27243 1.27243 1.55682 
1.61213 1.84853 1.91061 2.07112 2.02945 2.0524 2.0467 1.90124 1.88369 
1.74909 2.11014 1.93945 1.86807 1.92741 2.09589 2.03342 1.94951 1.56378 
1.48566 1.40457 1.37218 1.65011 2.16559 2.27586 2.2045 2.57864 2.69835 
3.09216 3.02978 2.74804 2.68837 2.43017 2.43017 2.18287 1.80909 2.64605 
2.35096 1.62345 1.58032 1.98887 2.09807 2.77996 3.06186 2.407 2.71738 
2.40216 2.23634 2.10315 1.88721 1.75702 1.55727 1.57622 1.66988 1.90342 
1.98462 1.92509 1.8016 1.66057 1.44245 1.40105 1.50533 1.48563 1.43733 
1.42895 1.42895 1.4678 1.40225 1.40225 1.3409 1.20865 1.16966 1.17745 
1.1196 1.09657 1.126 1.19515 1.19515 1.28274 1.32355 1.34336 1.27584 
1.30518 1.24342 1.135 1.135 1.31363 1.54667 1.89046 
rRFP 1 493 double
2735.1 2940.07 2992.15 2945.37 2763.58 3209.56 2834.73 2933.84 3386.58 
3107.26 2874.05 3364.1 2958.84 3085.62 3019.14 2885.84 3095.06 2634.98 
3661.35 3571.73 3108.95 3657.52 2801.27 3856.37 2812.49 3126.86 3425.6 
3157.57 3326.73 3508.44 3337.19 2980.91 3257.37 3124.54 3408.17 2994.51 
2924.09 2946.36 3049.6 3027.26 2930.07 3053.7 3252.09 3384.52 3432.15 
3414.93 3327.85 3343.8 3124.96 3043.47 3028.33 2931.26 2902.42 2896.11 
2882.1 2856.85 2885.22 2957.63 2957.63 3131.41 3160.94 3108.05 3197.36 
3089.01 3130.4 3106.54 3086.4 3086.4 3088.21 3085.52 3085.52 3198.83 
3215.74 3175.67 3187.51 3155.26 3155.35 3262.69 3331.85 3414.22 3517.8 
3478.62 3548.7 3491.78 3101.41 2989.93 2989.93 2867.93 2891.17 2872.2 
2956.57 3141.84 3097.22 2992.78 2900.62 2861.36 2871.63 2920 2975.12 
3029.67 3187.15 3477.26 3607.96 3070.16 3055.81 2969.9 2938.3 2899.02 
2899.02 2869.1 2917.32 2917.32 2940.11 3014.37 3014.37 3103.48 3128.43 
3085.77 2970.69 2916.85 2916.85 2867.37 2872.01 2831.65 2872.72 2872.72 
2877.11 3004.94 3004.94 3001.2 3105.91 3052.54 3063.07 2936.25 2879.47 
2800.07 2903.86 2903.86 3268.99 3320.81 3513 3542.75 3383.83 3466.52 
3637.96 3685.58 3914.59 3887.7 3711.7 3550.06 3265.43 3074.23 3101.99 
3058.36 3028.32 2928.42 2901.22 2942.9 3005.11 2980.75 3062.88 3039.7 
3043.99 2970.62 2970.62 2920.8 2851.95 2851.95 2866.84 2884.51 2871.63 
2921.16 2994.51 2987.91 2916.15 2928.98 3052.28 3203.4 3226.41 3377.63 
3072.01 3183.78 3258.99 3213.85 3220.21 3281.44 3325.6 3400.15 3458.26 
3588.62 3678.12 3724.17 3711.77 3758.69 3852.4 3645.78 3457.4 3325.65 
3101.09 3105.44 3164 3447.26 3654.69 3061.67 3140.49 3223.35 3174.11 
3131.07 3136.64 3131.75 3066 2986.27 3028.56 3004.48 2989.72 2942.73 
2932.78 2886.94 2891.7 2963.11 2922.57 2988.81 2967.38 2933.25 3300.94 
3286.3 3277.95 3266.32 3246.19 3196.8 3131.84 3104.32 3113.15 3105.06 
3141.05 3207.95 3152.74 3243.43 3494.11 3571.06 2991.33 3056.86 3047.48 
3081.41 3088.73 3044.33 3044.33 3032.58 2961.01 2890.41 2951.47 3094.35 