# vtk DataFile Version 3.0
vtk output
ASCII
DATASET POLYDATA
POINTS 445 float
1.10066 0.534734 1.37374 1.20244 0.70796 1.41435 0.954662 1.08976 1.25918 
0.991398 1.19113 1.28098 2.55484 -0.31554 0.934277 3.07662 -0.177434 0.800479 
3.18879 0.282999 0.69073 2.90678 -0.677484 0.0816567 -0.366099 0.896293 -0.310082 
3.54429 1.31569 -0.17719 -0.135766 0.0743519 -1.06219 -0.0563749 1.42318 -0.807277 
3.55372 0.19101 -0.791395 2.24287 -0.850684 -1.23179 3.36387 0.843724 -0.823728 
2.54364 2.29254 -0.627814 0.0826546 -0.150881 -1.49298 0.0684144 0.0215188 -1.53053 
-0.235112 0.424861 -1.41443 2.90663 -0.267017 -1.27143 2.72754 -0.18337 -1.54356 
3.7476 1.07464 -1.15641 3.25544 -0.0283625 -1.67372 0.60884 1.11869 -1.62238 
1.3158 1.77826 -1.44026 0.412901 0.352377 -1.98426 4.00425 0.739706 -1.6041 
4.34236 0.596682 -1.60132 1.70104 2.02381 -1.56604 0.980187 0.454663 -2.12073 
0.710585 0.840516 -2.07296 3.15927 0.10103 -2.03738 2.44132 0.172027 -2.25111 
3.12645 0.609946 -2.11163 3.12147 0.424343 -2.35028 3.10657 0.544629 -2.32944 
3.12491 0.480495 -2.33966 3.09504 0.585935 -2.22457 3.13798 0.56864 -2.2165 
3.10062 0.695027 -2.19647 3.06899 0.76566 -2.25422 3.02918 0.815658 -2.27869 
2.99266 0.875565 -2.27837 2.96056 0.942725 -2.26878 2.93844 1.00813 -2.25865 
2.9306 1.06841 -2.24824 2.90852 1.13392 -2.23809 2.87703 1.20275 -2.22814 
2.84323 1.27054 -2.21858 2.80598 1.32916 -2.211 2.76304 1.37247 -2.19917 
2.72392 1.42708 -2.16981 2.68627 1.4869 -2.11671 2.64859 1.54705 -2.05597 
2.61154 1.60854 -2.0025 2.57576 1.67236 -1.97116 2.53785 1.72954 -1.95635 
2.49489 1.77241 -1.95216 2.45363 1.81995 -1.94696 2.40999 1.86094 -1.94318 
2.36746 1.90535 -1.93111 2.31865 1.93323 -1.9075 2.26854 1.95869 -1.86178 
2.22559 2.0043 -1.80417 2.18265 2.0499 -1.74657 2.13254 2.07536 -1.70085 
2.0812 2.09781 -1.64823 2.03423 2.13233 -1.593 1.98215 2.15234 -1.54846 
1.924 2.15484 -1.52277 1.85693 2.132 -1.51006 1.78827 2.09874 -1.50696 
1.73194 2.06364 -1.52582 3.19178 0.628836 -2.10254 3.25203 0.633682 -2.09647 
3.31342 0.641689 -2.08971 3.3691 0.634298 -2.07872 3.42349 0.624145 -2.05324 
3.48045 0.622262 -2.00334 3.53169 0.604979 -1.94919 3.57964 0.578594 -1.89701 
3.62814 0.553683 -1.85207 3.67826 0.538946 -1.79756 3.72803 0.552598 -1.73785 
3.76809 0.583821 -1.68332 3.82322 0.616269 -1.64993 3.88046 0.651857 -1.6309 
3.93072 0.695676 -1.61852 2.38968 0.190946 -2.25207 2.33809 0.209968 -2.25301 
2.2871 0.230666 -2.25359 2.23941 0.260478 -2.25221 2.19679 0.30389 -2.25545 
2.14703 0.326815 -2.27819 2.09075 0.330588 -2.32768 2.03954 0.347962 -2.38181 
1.99101 0.373114 -2.42671 1.94121 0.395937 -2.44947 1.8902 0.416192 -2.45769 
1.83857 0.435112 -2.45865 1.78689 0.45393 -2.45964 1.73462 0.471071 -2.46098 
1.67838 0.477671 -2.45704 1.61642 0.468874 -2.44888 1.55828 0.471017 -2.43081 
1.50077 0.474493 -2.42 1.4394 0.466939 -2.4191 1.38251 0.471752 -2.41556 
1.325 0.475229 -2.40475 1.26179 0.463761 -2.38206 1.20296 0.46498 -2.3491 
1.14396 0.470656 -2.29267 1.07365 0.46945 -2.21579 3.10573 0.0897587 -2.13603 
3.04203 0.0596039 -2.17098 2.97349 0.031095 -2.14433 2.90572 0.00928491 -2.06977 
2.83083 -0.0367161 -1.94358 2.76413 -0.103516 -1.76507 3.20924 0.0501 -1.87616 
0.709828 0.919092 -2.02833 0.695142 0.980585 -1.96538 0.682151 1.02697 -1.87482 
0.650807 1.07249 -1.75577 0.77213 0.767993 -2.1717 0.820904 0.711737 -2.2232 
0.866997 0.674225 -2.21102 0.909787 0.630997 -2.16994 0.945188 0.556053 -2.13533 
0.62414 0.801207 -2.08762 0.550175 0.766083 -2.10044 0.49232 0.729159 -2.11221 
0.459077 0.683885 -2.1234 0.42879 0.636005 -2.12725 0.39435 0.586477 -2.11665 
0.388786 0.52101 -2.08382 0.390607 0.445595 -2.03706 0.896773 0.422074 -2.1717 
0.822172 0.390404 -2.19905 0.750737 0.357458 -2.19614 0.681602 0.330534 -2.16168 
0.620231 0.325895 -2.10735 0.561416 0.332095 -2.0508 0.495784 0.341833 -2.0093 
3.95873 0.819045 -1.48761 3.91672 0.88273 -1.3888 3.87699 0.940366 -1.30603 
3.83803 0.997486 -1.2384 3.79639 1.04631 -1.18766 4.29878 0.641302 -1.52883 
4.25011 0.671519 -1.46699 4.201 0.699555 -1.42827 4.14324 0.705164 -1.43976 
4.0815 0.720223 -1.50277 0.31279 0.276355 -1.8708 0.237306 0.209292 -1.75609 
0.192167 0.141787 -1.65397 0.145443 0.0778204 -1.57905 1.29542 1.72832 -1.4512 
1.26394 1.68244 -1.46235 1.20715 1.64583 -1.47396 1.14098 1.61267 -1.48576 
1.08409 1.5761 -1.49737 1.05069 1.53092 -1.50856 1.01802 1.48704 -1.527 
0.96482 1.45382 -1.56036 0.912867 1.42326 -1.60824 0.882069 1.38339 -1.64846 
0.848775 1.33817 -1.65964 0.791201 1.2956 -1.64219 0.733003 1.25169 -1.61748 
0.697835 1.20247 -1.60688 0.663916 1.15592 -1.6108 0.551859 1.12286 -1.62652 
0.487213 1.10516 -1.64289 0.420952 1.07728 -1.66883 0.364154 1.04549 -1.70224 
0.322011 1.00508 -1.72086 0.273868 0.963745 -1.72504 0.231039 0.917333 -1.71459 
0.182376 0.874624 -1.71152 0.140274 0.829509 -1.70831 0.0926948 0.784837 -1.69795 
0.057475 0.730947 -1.66554 0.0217232 0.675684 -1.62586 -0.0260016 0.626375 -1.59369 
-0.0599824 0.575157 -1.5758 -0.0964 0.523267 -1.55068 -0.15901 0.474721 -1.49698 
3.29552 0.00551608 -1.5557 3.32915 0.0397798 -1.47092 3.37167 0.0708551 -1.40612 
3.40741 0.102182 -1.3343 3.44758 0.126672 -1.23815 3.48015 0.149924 -1.12022 
3.51986 0.167885 -0.969887 3.14811 -0.114777 -1.4998 3.0582 -0.180167 -1.3684 
2.98003 -0.228081 -1.29827 3.67698 1.04154 -1.16101 3.60448 1.00444 -1.14384 
3.52823 0.959322 -1.08311 3.44761 0.90486 -0.971565 3.73925 1.12729 -1.10965 
3.76441 1.16141 -1.03319 3.7815 1.19067 -0.920513 3.78029 1.2235 -0.79364 
3.7614 1.2627 -0.667127 3.74554 1.30078 -0.55062 3.70738 1.33167 -0.429803 
3.63985 1.33477 -0.306553 2.80285 -0.204967 -1.3798 2.86323 -0.222206 -1.28707 
2.63031 -0.250528 -1.41058 2.55808 -0.309745 -1.31431 2.51987 -0.363774 -1.27966 
2.48694 -0.408121 -1.29569 2.43488 -0.438639 -1.34357 2.38121 -0.468567 -1.39149 
2.33989 -0.507712 -1.41736 2.29357 -0.549717 -1.42151 2.26151 -0.601715 -1.40359 
2.23969 -0.661933 -1.3712 2.22924 -0.740801 -1.31102 0.0662099 -0.068035 -1.51948 
2.93355 -0.349932 -1.20878 2.95731 -0.434817 -1.13165 2.96619 -0.518943 -1.03298 
2.93793 -0.591027 -0.927729 2.87603 -0.647654 -0.837643 2.81361 -0.696272 -0.783933 
2.76672 -0.742761 -0.766282 2.70973 -0.779292 -0.777903 2.65465 -0.811717 -0.811278 
2.61456 -0.843041 -0.865835 2.5641 -0.858573 -0.92595 2.50873 -0.857944 -0.975944 
2.44591 -0.871571 -1.01409 2.3826 -0.882801 -1.0594 2.3202 -0.869965 -1.13042 
-0.209963 0.337901 -1.32999 -0.185439 0.249606 -1.23831 -0.160914 0.161312 -1.14662 
-0.279618 0.470431 -1.27382 -0.324125 0.516 -1.13321 -0.368528 0.561533 -0.992604 
-0.410495 0.607736 -0.859216 -0.440542 0.651138 -0.73289 -0.442248 0.687444 -0.620217 
-0.422999 0.72166 -0.512748 -0.387523 0.778421 -0.413278 -0.00421307 0.0674721 -1.35951 
-0.071463 0.0785631 -1.20453 2.58262 2.2356 -0.695403 2.62429 2.18687 -0.746127 
2.67314 2.15909 -0.769718 2.72534 2.14096 -0.783674 2.77819 2.12461 -0.797258 
2.83166 2.1096 -0.818094 2.88386 2.09147 -0.83205 2.93149 2.06111 -0.841098 
2.97007 2.00616 -0.847886 3.008 1.94943 -0.855057 3.05034 1.90487 -0.859609 
3.08749 1.84629 -0.867189 3.11959 1.77913 -0.87678 3.1416 1.71377 -0.886908 
3.14763 1.65415 -0.897355 3.15851 1.59274 -0.907712 3.16444 1.53316 -0.918161 
3.1846 1.46836 -0.928345 3.20486 1.40352 -0.938528 3.21198 1.34193 -0.941681 
3.23208 1.27247 -0.930055 3.25798 1.19618 -0.896512 3.27557 1.12137 -0.855839 
3.27967 1.05307 -0.822701 3.29988 0.983564 -0.811074 3.33071 0.913289 -0.813786 
3.38403 0.778924 -0.833912 3.38996 0.719338 -0.844361 3.40085 0.657936 -0.854718 
3.40688 0.598313 -0.865165 3.42822 0.531513 -0.868053 3.45802 0.458939 -0.858685 
3.48846 0.381653 -0.835006 3.51986 0.29527 -0.810397 2.15702 -0.88807 -1.24605 
2.08453 -0.912751 -1.24927 2.02147 -0.922189 -1.23375 1.95505 -0.941242 -1.19006 
1.88914 -0.957846 -1.1232 1.81968 -0.983458 -1.04319 1.7538 -0.999961 -0.976299 
1.68811 -1.01712 -0.932197 1.62999 -1.01452 -0.906484 1.57586 -1.00095 -0.878409 
1.5238 -0.980489 -0.826216 1.47496 -0.949967 -0.749212 1.41982 -0.936083 -0.660709 
1.36262 -0.928636 -0.588667 1.30667 -0.918518 -0.53115 1.25527 -0.896624 -0.486197 
1.20831 -0.862096 -0.430979 1.15566 -0.842873 -0.371503 1.09905 -0.834191 -0.306745 
1.04187 -0.827086 -0.242327 0.98592 -0.816967 -0.184809 0.935132 -0.793387 -0.139494 
0.893376 -0.745657 -0.104072 0.848284 -0.707132 -0.0706309 0.788492 -0.708396 -0.03066 
0.729183 -0.707937 0.0172408 0.673157 -0.698806 0.059448 0.618381 -0.687006 0.0871408 
0.560912 -0.682633 0.113237 0.501096 -0.68435 0.145571 0.452023 -0.65681 0.17665 
0.403688 -0.628786 0.177646 0.354478 -0.604729 0.147604 0.30141 -0.591702 0.107639 
0.239897 -0.601592 0.0702936 0.18172 -0.602278 0.034929 0.13821 -0.563267 -0.00698583 
0.094226 -0.52634 -0.0644467 0.0448755 -0.504609 -0.132725 -0.00949812 -0.496738 -0.203985 
-0.0561036 -0.467045 -0.263002 -0.0943267 -0.413835 -0.309411 -0.13425 -0.364927 -0.349197 
-0.170556 -0.306814 -0.402101 -0.207911 -0.25237 -0.470893 -0.240861 -0.187555 -0.560061 
-0.271234 -0.127399 -0.657436 -0.271682 -0.0557931 -0.772794 -0.216056 0.0105027 -0.906989 
3.5812 0.0828481 -0.677904 3.57164 -0.00402336 -0.558654 3.5436 -0.0789823 -0.443832 
3.5039 -0.147432 -0.336389 3.44946 -0.206794 -0.246163 3.39866 -0.265927 -0.163153 
3.33371 -0.315181 -0.102208 3.26125 -0.356991 -0.0632222 3.19129 -0.393462 -0.0532745 
3.13123 -0.431997 -0.0504058 3.08487 -0.477115 -0.0400185 3.02424 -0.521694 -0.00808629 
2.96479 -0.568274 0.0311513 2.92967 -0.6222 0.0635586 -0.0748463 1.37254 -0.81818 
-0.0950265 1.32252 -0.829116 -0.12521 1.2746 -0.832964 -0.172303 1.22634 -0.807789 
-0.213609 1.15782 -0.716863 -0.269972 1.05209 -0.541801 3.53579 1.38251 -0.0648469 
3.50738 1.44266 0.026915 3.46999 1.50014 0.0972612 3.42881 1.55014 0.150782 
3.3808 1.5818 0.205382 3.32991 1.60587 0.265901 3.2676 1.59882 0.327275 
3.20574 1.59339 0.396537 3.14198 1.58353 0.479943 3.07123 1.5555 0.582077 
3.00099 1.5293 0.692156 2.92691 1.4917 0.784695 2.85591 1.4607 0.840906 
2.79252 1.44873 0.863487 2.72594 1.42717 0.868916 2.65934 1.40595 0.881958 
2.59875 1.40217 0.921398 2.53921 1.39633 0.96812 2.48131 1.36533 1.00279 
2.43556 1.32257 1.02122 2.37827 1.29245 1.04099 2.31541 1.27706 1.0781 
2.24577 1.24868 1.1198 2.17665 1.22168 1.15424 2.11326 1.20972 1.17682 
2.04539 1.18538 1.19674 1.97627 1.15838 1.23118 1.91097 1.14232 1.27552 
1.84058 1.11219 1.31684 1.76747 1.0742 1.34891 1.69314 1.03319 1.38788 
1.61887 0.992042 1.42684 1.54703 0.951567 1.45856 1.48817 0.91103 1.46872 
1.45415 0.864519 1.4648 1.42071 0.819317 1.45361 1.36285 0.782393 1.44184 
1.28889 0.747269 1.42902 3.52892 1.2076 0.00820934 3.5027 1.11744 0.170778 
3.47341 1.03981 0.300114 3.44734 0.967932 0.400548 3.43329 0.898462 0.469705 
3.43472 0.826447 0.524614 3.42255 0.760982 0.571996 3.39966 0.696319 0.633715 
3.37405 0.634211 0.68812 3.34194 0.577618 0.727856 3.30747 0.528142 0.738466 
3.3027 0.470912 0.735091 3.29361 0.41683 0.724362 3.27504 0.366223 0.713456 
3.24376 0.32027 0.702314 -0.27767 0.898476 -0.0113813 -0.209312 0.90246 0.196476 
-0.146914 0.918891 0.301865 -0.0917056 0.94686 0.356799 -0.0508721 0.979929 0.41174 
0.00356787 1.00644 0.474218 0.0680124 1.03086 0.529599 0.135377 1.05722 0.570476 
0.202237 1.08187 0.610995 0.264476 1.09453 0.664025 0.319761 1.08879 0.728194 
0.375534 1.08478 0.800284 0.426247 1.06681 0.869371 0.478196 1.05186 0.93156 
0.539162 1.0614 0.991468 0.604717 1.08283 1.03883 0.667543 1.09673 1.08459 
0.725326 1.09633 1.11972 0.783597 1.09766 1.16277 0.837432 1.08637 1.19556 
0.891842 1.07666 1.22869 3.00103 -0.221112 0.853974 2.92672 -0.261677 0.90059 
2.8576 -0.288678 0.935025 2.79874 -0.288517 0.952666 2.74117 -0.285585 0.955814 
2.67648 -0.302696 0.947102 2.61179 -0.319808 0.93839 0.973029 1.14045 1.27008 
0.99296 1.03094 1.19119 1.02937 0.968461 1.15259 1.06484 0.905888 1.16681 
1.10263 0.848663 1.23512 1.14352 0.778025 1.3239 1.18558 0.629586 1.39849 
1.15545 0.573566 1.38559 
LINES 39 527
3 35 36 34 
3 35 37 33 
3 35 38 33 
36 33 39 40 41 42 43 44 45 46 47 48 49 50 51 52 53 54 55 56 57 58 59 60 61 62 63 64 65 66 67 68 69 70 71 72 28 
17 33 73 74 75 76 77 78 79 80 81 82 83 84 85 86 87 26 
27 32 88 89 90 91 92 93 94 95 96 97 98 99 100 101 102 103 104 105 106 107 108 109 110 111 112 29 
6 30 120 121 122 123 23 
7 30 124 125 126 127 128 29 
10 30 129 130 131 132 133 134 135 136 25 
9 29 137 138 139 140 141 142 143 25 
7 26 144 145 146 147 148 21 
7 27 149 150 151 152 153 26 
6 25 154 155 156 157 17 
17 24 158 159 160 161 162 163 164 165 166 167 168 169 170 171 172 23 
18 23 173 174 175 176 177 178 179 180 181 182 183 184 185 186 187 188 18 
9 22 189 190 191 192 193 194 195 12 
5 22 196 197 198 19 
6 21 199 200 201 202 14 
10 21 203 204 205 206 207 208 209 210 9 
4 20 211 212 19 
13 20 213 214 215 216 217 218 219 220 221 222 223 13 
3 17 224 16 
17 19 225 226 227 228 229 230 231 232 233 234 235 236 237 238 239 13 
5 18 240 241 242 10 
10 18 243 244 245 246 247 248 249 250 8 
4 17 251 252 10 
28 15 253 254 255 256 257 258 259 260 261 262 263 264 265 266 267 268 269 270 271 272 273 274 275 276 277 278 14 
10 14 279 280 281 282 283 284 285 286 12 
51 13 287 288 289 290 291 292 293 294 295 296 297 298 299 300 301 302 303 304 305 306 307 308 309 310 311 312 313 314 315 316 317 318 319 320 321 322 323 324 325 326 327 328 329 330 331 332 333 334 335 10 
16 12 336 337 338 339 340 341 342 343 344 345 346 347 348 349 7 
8 11 350 351 352 353 354 355 8 
40 9 356 357 358 359 360 361 362 363 364 365 366 367 368 369 370 371 372 373 374 375 376 377 378 379 380 381 382 383 384 385 386 387 388 389 390 391 392 393 1 
17 9 394 395 396 397 398 399 400 401 402 403 404 405 406 407 408 6 
23 8 409 410 411 412 413 414 415 416 417 418 419 420 421 422 423 424 425 426 427 428 429 2 
9 5 430 431 432 433 434 435 436 4 
3 3 437 2 
7 2 438 439 440 441 442 1 
4 1 443 444 0 
10 20 118 117 116 115 114 113 31 119 22 

POINT_DATA 445
SCALARS DY_raw double
LOOKUP_TABLE default
486.943 340.747 314.446 322.72 374.661 355.358 472.441 550.541 294.646 
278.215 439.341 287.085 316.369 275.594 362.998 447.317 470.914 406.172 
299.776 306.349 331.787 258.795 367.492 373.996 427.08 300.687 259.758 
365.576 387.852 393.113 318.332 315.557 311.584 513.263 392.729 365.145 
392.729 504.624 466.733 395.787 336.522 289.255 295.165 314.888 334.603 
297.057 297.566 349.714 319.158 395.618 349.106 348.089 380.694 409.237 
385.93 349.037 336.485 326.328 326.328 307.171 322.86 289.836 333.322 
395.882 369.533 361.96 312.381 327.398 272.528 288.929 309.042 368.701 
343.681 453.201 333.856 325.526 325.526 303.665 306.766 331.79 290.325 
320.06 327.424 330.643 320.544 328.971 304.579 275.089 355.395 323.892 
356.141 405.863 368.022 407.549 394.742 361.882 361.435 388.168 400.401 
408.233 408.233 429.336 388.917 388.917 379.787 397.658 397.658 391.297 
402.038 402.038 365.606 384.338 378.949 279.699 266.893 291.537 303.762 
306.351 288.689 330.491 315.895 327.478 317.541 342.012 347.038 380.085 
411.942 392.299 398.929 325.16 340.374 345.564 341.03 345.264 349.009 
343.788 303.886 396.739 373.547 398.318 335.568 320.417 338.619 309.175 
289.427 292.504 313.418 293.019 275.998 417.322 391.848 393.194 357.699 
320.257 290.54 292.712 332.78 354.534 372.962 372.962 356.533 356.533 
368.451 372.097 331.739 343.607 333.131 334.483 295.903 300.769 321.205 
356.061 372.995 403.144 389.138 402.128 392.779 377.261 377.261 362.796 
360.104 381.348 328.193 329.362 341.233 308.503 297.944 296.678 284.221 
388.333 374.94 372.115 369.591 379.173 369.306 360.223 351.088 256.03 
246.768 278.247 290.203 297.917 329.397 296.011 312.96 344.002 391.304 
346.668 326.869 306.449 279.497 335.786 323.625 376.389 373.64 366.653 
344.439 348.208 269.766 293.628 280.749 286.208 274.737 305.781 439.951 
353.786 360.259 332.408 297.624 326.424 342.119 331.124 331.124 318.516 
315.971 306.685 313.947 295.178 278.835 288.293 346.706 369.402 341.713 
384.352 385.016 331.267 359.727 338.745 352.955 362.842 337.725 376.609 
381.787 395.034 420.942 352.702 352.702 363.791 318.872 318.872 307.293 
336.982 336.982 357.124 396.14 379.751 332.241 368.686 368.686 377.045 
437.527 401.162 371.287 427.32 483.299 569.379 524.861 447.992 405.807 
362.998 380.748 380.748 381.303 431.517 393.576 371.049 336.608 302.51 
366.37 413.118 384.484 395.128 341.235 278.245 304.939 278.585 272.478 
286.325 280.847 294.712 295.269 298.196 298.196 330.489 338.763 389.398 
359.729 391.122 422.64 410.346 354.372 373.522 363.988 363.988 430.701 
436.312 439.895 442.743 409.869 397.518 381.574 394.002 420.081 439.792 
396.48 405.541 438.854 388.316 397.827 442.768 412.928 489.055 435.89 
396.369 371.902 414.714 292.706 313.991 319.899 341.678 387.08 360.02 
377.112 374.828 366.178 390.935 393.05 428.526 431.513 513.002 302.588 
257.086 257.086 256.16 294.102 342.808 283.617 296.112 331.278 314.598 
301.154 324.981 365.513 412.422 425.009 449.686 483.122 549.227 547.228 
496.498 523.923 507.365 523.959 549.608 566.058 522.456 516.954 468.557 
441.932 485.422 508.238 529.129 584.284 596.13 530.054 548.807 454.756 
448.037 434.174 379.797 376.334 330.969 316.052 318.087 346.614 378.77 
347.206 345.183 299.951 309.757 294.435 315.097 336.09 353.364 338.582 
360.333 348.823 348.823 349.039 229.814 248.806 279.492 262.623 257.97 
274.309 279.943 302.957 303.714 302.037 284.047 306.317 313.964 355.711 
354.171 383.454 373.323 360.296 349.387 344.57 328.218 349.953 369.829 
394.455 373.576 373.576 347.031 374.661 314.446 295.144 320.464 324.966 
342 330.161 346.095 368.567 
FIELD FieldData 7
DY_minmax 1 445 double
0.701933 0.302834 0.231034 0.253622 0.395414 0.34272 0.662342 0.875548 0.176982 
0.132128 0.571984 0.156342 0.236283 0.124973 0.363575 0.593758 0.658174 0.481435 
0.190987 0.208931 0.278374 0.0791132 0.375844 0.393599 0.538514 0.193473 0.0817436 
0.370613 0.431424 0.445787 0.241644 0.234067 0.22322 0.773783 0.444739 0.369437 
0.444739 0.7502 0.64676 0.453085 0.2913 0.162265 0.178401 0.232241 0.28606 
0.183565 0.184954 0.327313 0.243898 0.452626 0.325651 0.322877 0.411884 0.489804 
0.426178 0.325463 0.2912 0.263471 0.263471 0.211174 0.254003 0.163852 0.282564 
0.453347 0.381415 0.360743 0.225397 0.266393 0.116604 0.161375 0.216283 0.379144 
0.310844 0.609821 0.28402 0.261282 0.261282 0.201603 0.210068 0.278382 0.165187 
0.24636 0.266462 0.275251 0.247682 0.270687 0.204099 0.123593 0.34282 0.256821 
0.344858 0.480592 0.377292 0.485194 0.450235 0.36053 0.359309 0.432288 0.465683 
0.487064 0.487064 0.544671 0.434331 0.434331 0.409409 0.458194 0.458194 0.440828 
0.47015 0.47015 0.370695 0.421832 0.40712 0.13618 0.101221 0.168495 0.20187 
0.208935 0.160721 0.274835 0.23499 0.266612 0.239483 0.306286 0.320008 0.410223 
0.497188 0.443565 0.461663 0.260282 0.301815 0.315984 0.303606 0.315164 0.325388 
0.311134 0.202206 0.455685 0.392372 0.459994 0.288695 0.247333 0.297025 0.216645 
0.162737 0.171134 0.228228 0.17254 0.126077 0.511874 0.442334 0.446009 0.349111 
0.246898 0.165775 0.171702 0.281085 0.34047 0.390775 0.390775 0.345927 0.345927 
0.378463 0.388416 0.278242 0.310642 0.282042 0.285733 0.180414 0.193697 0.249487 
0.34464 0.390867 0.47317 0.434935 0.470397 0.444876 0.402513 0.402513 0.363026 
0.355675 0.413669 0.268562 0.271754 0.304159 0.21481 0.185985 0.182529 0.148525 
0.432737 0.396177 0.388464 0.381573 0.407731 0.380797 0.356002 0.331062 0.0715665 
0.0462804 0.132215 0.164853 0.185913 0.27185 0.18071 0.226978 0.311718 0.440849 
0.318997 0.264948 0.209204 0.135628 0.289291 0.256093 0.400133 0.392628 0.373554 
0.312912 0.3232 0.109063 0.174203 0.139045 0.153947 0.122632 0.207379 0.57365 
0.338429 0.356099 0.28007 0.185113 0.263733 0.30658 0.276563 0.276563 0.242146 
0.235198 0.209848 0.229673 0.178436 0.133819 0.159641 0.319099 0.381059 0.305471 
0.421869 0.423682 0.276954 0.354646 0.297367 0.336159 0.36315 0.294584 0.400732 
0.414868 0.451029 0.521757 0.335468 0.335468 0.36574 0.243118 0.243118 0.211509 
0.292556 0.292556 0.34754 0.454049 0.409309 0.279614 0.379103 0.379103 0.401922 
0.567031 0.46776 0.386204 0.539167 0.691983 0.926972 0.805444 0.5956 0.480438 
0.363575 0.412033 0.412033 0.413546 0.550624 0.447049 0.385555 0.291534 0.198449 
0.372781 0.500397 0.422232 0.451287 0.304167 0.132209 0.205083 0.133138 0.116465 
0.154267 0.139312 0.177162 0.178683 0.186674 0.186674 0.274831 0.297417 0.435646 
0.354652 0.440351 0.526392 0.492831 0.340029 0.392305 0.36628 0.36628 0.548396 
0.563714 0.573496 0.581271 0.491529 0.457813 0.414287 0.448212 0.519405 0.573215 
0.454977 0.479713 0.570655 0.43269 0.458656 0.581338 0.499878 0.707698 0.562563 
0.454674 0.387883 0.504756 0.171687 0.229794 0.24592 0.305376 0.429316 0.355446 
0.402106 0.395869 0.372256 0.439842 0.445615 0.542459 0.550613 0.773071 0.198664 
0.0744477 0.0744477 0.0719205 0.175497 0.30846 0.146875 0.180984 0.276984 0.231449 
0.194748 0.259793 0.370442 0.498498 0.532858 0.600225 0.691501 0.871959 0.866502 
0.728015 0.802883 0.757682 0.802981 0.873 0.917906 0.798878 0.783859 0.651739 
0.579057 0.697781 0.760063 0.817096 0.967663 1 0.81962 0.870814 0.614065 
0.595724 0.557879 0.409436 0.399983 0.27614 0.235418 0.240975 0.318848 0.406631 
0.320465 0.314944 0.191466 0.218234 0.176405 0.232812 0.290121 0.337276 0.296924 
0.3563 0.324881 0.324881 0.325471 0 0.051846 0.135615 0.0895649 0.0768627 
0.121465 0.136846 0.19967 0.201737 0.197159 0.148049 0.208844 0.229719 0.343683 
0.33948 0.41942 0.391762 0.356199 0.32642 0.313269 0.26863 0.327966 0.382224 
0.449449 0.392452 0.392452 0.319989 0.395414 0.231034 0.178342 0.247463 0.259752 
0.306254 0.273935 0.317432 0.378778 
WidthEq 1 445 double
1.35408 2.22346 2.2891 1.54917 2.03135 1.77654 1.45556 1.37648 2.77332 
3.20176 2.67814 1.05825 2.93929 2.649 1.99114 1.54219 1.55096 2.41742 
2.50767 3.16227 2.92232 2.00073 2.23885 1.56346 1.24754 1.9788 1.92135 
1.16194 1.65295 1.69671 2.0046 2.21848 1.66626 1.41091 1.21727 1.46057 
1.21727 1.2475 1.3927 1.47341 1.55056 1.64318 1.66062 1.73661 1.7203 
1.88293 1.82836 1.66953 1.75467 1.52887 1.66912 1.64385 1.49138 1.45851 
1.4542 1.62925 1.66218 1.87691 1.87691 1.95259 1.93703 1.94182 1.85073 
1.62982 1.67914 1.6859 1.86957 1.85336 2.12946 2.08123 2.08916 1.84024 
1.84493 1.55127 1.81222 1.85278 1.85278 1.88727 1.99145 1.99743 2.14421 
2.09157 2.13231 2.12032 2.11537 1.99749 2.02745 2.00975 1.7308 1.80631 
1.78148 1.70636 1.83969 1.7007 1.69176 1.7627 1.60803 1.54085 1.45701 
1.39699 1.39699 1.34859 1.36936 1.36936 1.35396 1.39961 1.39961 1.43397 
1.46986 1.46986 1.58911 1.66415 1.75873 2.11694 2.05583 2.00845 2.078 
2.3395 2.71762 2.31573 2.04339 1.94907 1.98112 1.92899 1.81795 1.64439 
1.53715 1.54445 1.63475 1.9634 1.82931 1.723 1.81429 1.75445 1.77193 
1.83764 1.99996 1.632 1.60876 1.41962 1.49093 1.62816 1.70436 1.89158 
1.87266 1.75549 1.58389 1.66828 2.01656 1.32528 1.42567 1.49343 1.59555 
1.80183 2.06745 2.37151 2.58461 2.53411 1.45666 1.45666 1.56956 1.56956 
1.50874 1.4222 1.53039 1.47287 1.40785 1.29172 1.58967 1.7296 1.64053 
1.84243 1.63699 1.56222 1.59182 1.54047 1.44773 1.61264 1.61264 1.74461 
1.80034 1.58671 1.79979 1.8557 1.79458 2.07554 2.02622 2.21047 2.36255 
2.32172 2.47295 2.48108 2.37906 2.27468 2.47103 2.65901 2.17051 2.6944 
3.05367 2.00771 1.99119 1.99384 2.13331 1.98218 1.84039 1.83615 1.8103 
2.04948 2.52158 2.79348 3.09949 3.13782 3.224 2.67993 2.35943 2.24882 
2.11044 1.87973 2.14789 2.01458 2.16588 2.45328 2.5615 2.50587 2.03363 
2.6298 2.30364 2.36642 2.38095 2.19126 2.18186 2.09193 2.09193 2.10422 
2.08218 2.02461 1.9279 2.06542 2.32327 2.50036 2.38928 2.3613 2.53771 
1.91298 2.00892 1.94305 1.8045 2.05827 2.22025 2.34542 2.5359 2.63708 
2.65247 1.79602 1.79746 2.04847 2.04847 1.94397 2.03501 2.03501 1.96727 
1.9155 1.9155 1.83177 1.78341 1.81231 1.99731 1.979 1.979 1.95382 
1.62145 1.7863 1.73687 1.54238 1.50782 1.47083 1.56633 1.76909 1.84716 
1.99114 1.84804 1.84804 1.83179 1.79029 2.09189 2.38973 2.79137 2.4055 
1.87228 1.44155 1.26213 1.30284 1.52501 2.00427 1.98153 2.28088 2.26234 
2.31356 2.37627 2.39098 2.3805 2.15247 2.15247 2.01585 1.94241 1.87871 
1.99875 1.95233 1.8992 1.8334 1.89145 1.87196 1.73486 1.73486 1.64174 
1.51664 1.51731 1.46125 1.52026 1.55814 1.65632 1.60968 1.64782 1.58304 
1.70709 1.723 1.60524 1.68424 1.66363 1.57714 1.66351 1.70514 1.95845 
2.34801 2.65298 2.79491 2.94458 2.78653 2.69278 2.49758 2.29017 2.22398 
2.13819 2.08162 2.16766 2.13649 2.17554 2.06153 2.02742 1.64761 1 
1.7109 1.7109 2.2373 2.35261 2.23296 2.9391 2.6031 2.39578 2.37579 
2.11662 1.99968 1.95243 1.73053 1.72763 1.71268 1.62335 1.48641 1.45579 
1.50347 1.45273 1.48151 1.41955 1.34681 1.2831 1.28219 1.32127 1.39097 
1.41659 1.44777 1.42579 1.31788 1.3231 1.26118 1.24072 1.19967 1.27972 
1.33404 1.43055 1.76423 1.7549 2.08708 2.24896 2.33507 2.77493 2.49299 
2.60269 2.60261 2.51467 2.48959 2.56277 2.56482 2.46963 2.47073 2.55426 
2.43574 2.42391 2.42391 2.28151 3.48546 3.12475 2.56801 2.52768 2.45624 
2.31505 2.38376 2.26613 2.33657 2.30226 2.18016 2.08734 1.97344 1.79614 
1.71673 1.74354 1.85268 1.85086 2.14378 2.12543 2.2807 1.96686 2.01114 
2.05975 2.21141 2.21141 2.1647 2.03135 2.2891 2.46801 2.06659 1.83117 
1.86116 2.07265 2.09708 1.94605 
rRFP 1 445 double
3330.25 4029.17 4081.94 3487.09 3874.73 3669.88 3411.84 3348.26 4471.22 
4815.65 4394.7 3092.43 4604.64 4371.27 3842.4 3481.48 3488.53 4185.1 
4257.65 4783.9 4591 3850.11 4041.54 3498.58 3244.6 3832.48 3786.3 
3175.79 3570.52 3605.7 3853.22 4025.17 3581.22 3375.94 3220.27 3415.86 
3220.27 3244.57 3361.3 3426.19 3488.21 3562.67 3576.69 3637.78 3624.67 
3755.41 3711.54 3583.85 3652.3 3470.77 3583.52 3563.21 3440.63 3414.21 
3410.74 3551.47 3577.94 3750.57 3750.57 3811.41 3798.9 3802.75 3729.52 
3551.93 3591.58 3597.01 3744.67 3731.64 3953.6 3914.83 3921.2 3721.09 
3724.86 3488.78 3698.56 3731.17 3731.17 3758.9 3842.65 3847.46 3965.46 
3923.14 3955.89 3946.25 3942.27 3847.51 3871.59 3857.36 3633.11 3693.81 
3673.85 3613.46 3720.65 3608.91 3601.72 3658.75 3534.41 3480.4 3413 
3364.75 3364.75 3325.84 3342.54 3342.54 3330.16 3366.86 3366.86 3394.48 
3423.33 3423.33 3519.2 3579.53 3655.56 3943.54 3894.41 3856.32 3912.23 
4122.46 4426.44 4103.35 3884.41 3808.58 3834.35 3792.44 3703.17 3563.64 
3477.43 3483.3 3555.89 3820.1 3712.3 3626.84 3700.23 3652.12 3666.17 
3719 3849.49 3553.68 3535 3382.94 3440.27 3550.59 3611.85 3762.36 
3747.15 3652.96 3515 3582.85 3862.84 3307.1 3387.81 3442.28 3524.38 
3690.21 3903.75 4148.19 4319.51 4278.91 3412.72 3412.72 3503.48 3503.48 
3454.59 3385.02 3471.99 3425.75 3373.48 3280.12 3519.65 3632.14 3560.54 
3722.85 3557.69 3497.58 3521.38 3480.1 3405.54 3538.12 3538.12 3644.21 
3689.01 3517.27 3688.57 3733.52 3684.38 3910.25 3870.6 4018.73 4140.99 
4108.16 4229.74 4236.28 4154.26 4070.35 4228.2 4379.32 3986.6 4407.77 
4696.6 3855.72 3842.44 3844.57 3956.7 3835.2 3721.21 3717.8 3697.02 
3889.3 4268.84 4487.42 4733.43 4764.25 4833.53 4396.14 4138.48 4049.56 
3938.31 3752.84 3968.42 3861.25 3982.88 4213.93 4300.93 4256.21 3876.56 
4355.84 4093.63 4144.1 4155.78 4003.28 3995.73 3923.43 3923.43 3933.31 
3915.59 3869.31 3791.56 3902.12 4109.41 4251.78 4162.48 4139.98 4281.8 
3779.57 3856.7 3803.74 3692.36 3896.37 4026.59 4127.22 4280.35 4361.69 
4374.06 3685.54 3686.7 3888.49 3888.49 3804.48 3877.67 3877.67 3823.21 
3781.59 3781.59 3714.28 3675.4 3698.64 3847.36 3832.64 3832.64 3812.4 
3545.2 3677.73 3637.99 3481.63 3453.85 3424.11 3500.89 3663.89 3726.65 
3842.4 3727.36 3727.36 3714.3 3680.93 3923.4 4162.84 4485.73 4175.52 
3746.85 3400.57 3256.33 3289.06 3467.67 3852.96 3834.68 4075.33 4060.43 
4101.6 4152.02 4163.84 4155.42 3972.1 3972.1 3862.27 3803.23 3752.02 
3848.52 3811.2 3768.49 3715.59 3762.26 3746.59 3636.37 3636.37 3561.51 
3460.94 3461.48 3416.41 3463.85 3494.3 3573.23 3535.74 3566.4 3514.32 
3614.05 3626.84 3532.17 3595.68 3579.11 3509.58 3579.01 3612.48 3816.12 
4129.3 4374.47 4488.57 4608.9 4481.84 4406.47 4249.54 4082.8 4029.59 
3960.62 3915.14 3984.31 3959.25 3990.65 3898.99 3871.57 3566.23 3045.6 
3617.11 3617.11 4040.3 4133 4036.81 4604.49 4334.37 4167.7 4151.63 
3943.28 3849.27 3811.28 3632.89 3630.56 3618.54 3546.73 3436.64 3412.02 
3450.35 3409.56 3432.7 3382.89 3324.41 3273.19 3272.46 3303.88 3359.91 
3380.51 3405.57 3387.9 3301.15 3305.35 3255.57 3239.12 3206.12 3270.47 
3314.14 3391.73 3659.98 3652.48 3919.53 4049.67 4118.9 4472.51 4245.85 
4334.04 4333.98 4263.28 4243.12 4301.95 4303.6 4227.07 4227.96 4295.11 
4199.83 4190.32 4190.32 4075.84 5043.72 4753.74 4306.16 4273.74 4216.31 
4102.8 4158.04 4063.47 4120.1 4092.52 3994.36 3919.74 3828.17 3685.64 
3621.8 3643.35 3731.09 3729.63 3965.11 3950.36 4075.19 3822.88 3858.48 
3897.56 4019.48 4019.48 3981.93 3874.73 4081.94 4225.77 3903.06 3713.8 
3737.91 3907.93 3927.57 3806.15 
rGFP 1 445 double
2932.46 3030.74 2992.9 2773.05 3034.17 2904.41 2960.77 3030.91 3090.25 
3163.88 3449.72 2576.91 3203 3003.15 2995.88 2962.95 3003.47 3254.99 
3024.84 3241.86 3242.69 2790.88 3095.86 2857.83 2805.9 2868.1 2772.19 
2697.88 2914.2 2940.1 2911.23 2973.16 2792.28 2997.27 2751.16 2806.42 
2751.16 2902.62 2923.12 2856.26 2794.9 2748.4 2763.26 2819.94 2848.72 
2832.44 2817.16 2856.96 2833.12 2877.95 2855.8 2845.31 2840.86 2869.98 
2834.32 2841.77 2832.4 2885.59 2885.59 2872.88 2898.49 2835.91 2889.99 
2918.32 2893.6 2883.33 2857.12 2879.89 2853.44 2874.43 2918.74 2951.6 
2907.17 2976.14 2878.12 2876.23 2876.23 2846.2 2884.01 2935.83 2895.62 
2942.53 2971.27 2974.17 2951.17 2930.22 2890.62 2825.96 2888.22 2858.15 
2907.56 2965.65 2950.15 2966.22 2940.91 2910.99 2854.3 2871.21 2856.49 
2843.4 2843.4 2852.1 2805.67 2805.67 2787.32 2829.67 2829.67 2834.21 
2864.04 2864.04 2854.09 2912.7 2939.57 2865.21 2821.79 2858.64 2904.32 
2989.81 3057.65 3038.43 2918.6 2911.38 2902.19 2932.84 2904 2898.11 
2906.32 2878.99 2925.25 2911.52 2895.75 2868.51 2891.83 2878.85 2891.52 
2904.86 2880.86 2920.58 2874.05 2838.56 2773.41 2794.79 2850.23 2857.93 
2815.1 2786.59 2769.52 2761.94 2829.67 2826.17 2831.75 2860.31 2843.83 
2850.15 2873.78 2967.27 3133.21 3171.53 2816.38 2816.38 2832.7 2832.7 