# vtk DataFile Version 3.0
vtk output
ASCII
DATASET POLYDATA
POINTS 677 float
1.50852 1.53069 1.24052 3.06842 0.502668 0.759603 2.84019 0.801753 0.85812 
2.77249 1.33045 0.631514 0.999455 2.14708 0.646296 0.200032 2.00617 0.296738 
1.83748 2.12626 0.50161 -0.681144 1.06212 -0.311644 -0.646388 1.16778 -0.19366 
3.47507 -0.24119 -0.799385 3.45504 0.335727 -0.785601 6.20219 0.716806 -0.153198 
6.45331 0.852678 -0.290948 5.34872 -0.223499 -1.11813 4.41648 0.785773 -1.10005 
6.01451 1.52521 -0.278733 5.88147 1.61788 -0.254165 -0.514465 1.79594 -0.918258 
5.16264 1.76676 -0.767993 3.27056 1.39668 -1.02564 3.25371 1.35675 -1.40403 
6.08277 2.03827 -0.85934 6.2443 2.10406 -0.889572 5.47618 -0.159974 -2.09038 
6.58372 0.433743 -1.88989 4.28911 1.37943 -1.77458 6.85089 1.01432 -1.7029 
6.64671 0.835792 -2.29925 0.433609 2.57619 -2.12086 6.64917 1.69619 -2.19331 
1.08833 2.82054 -1.95996 1.21353 2.90142 -1.91544 5.68179 2.39434 -1.69227 
6.46894 0.643846 -2.53776 6.70112 1.12739 -2.39315 1.49608 1.8439 -2.96321 
1.43283 1.80071 -2.97862 1.36891 1.75476 -2.98719 1.30437 1.70615 -2.98887 
1.24141 1.66472 -3.00355 1.18066 1.63524 -3.02121 1.12253 1.62124 -3.03241 
1.061 1.59161 -3.01815 0.999255 1.56294 -2.98748 0.936732 1.52966 -2.95876 
0.87879 1.52012 -2.94409 0.823696 1.5252 -2.9393 0.769256 1.53302 -2.94135 
0.713294 1.53185 -2.94718 0.654325 1.51401 -2.95198 0.596083 1.5027 -2.93805 
0.535582 1.48137 -2.90432 0.470533 1.43428 -2.87337 0.403681 1.37652 -2.84689 
0.337467 1.32141 -2.82731 0.272121 1.27256 -2.7971 0.208455 1.23476 -2.75427 
0.141818 1.1805 -2.71033 0.0739204 1.11879 -2.6695 0.00729944 1.06462 -2.62553 
-0.0567059 1.02593 -2.57507 -0.121862 0.981541 -2.51901 -0.185695 0.947213 -2.44273 
-0.249934 0.913829 -2.34207 -0.315202 0.876594 -2.22701 -0.380436 0.839559 -2.11188 
-0.444717 0.807043 -2.00286 -0.505868 0.790802 -1.90301 -0.563146 0.79747 -1.79359 
-0.620298 0.804214 -1.68411 -0.680544 0.78399 -1.56976 -0.730833 0.762084 -1.45513 
-0.759787 0.762828 -1.33736 -0.788125 0.783176 -1.23569 -0.798048 0.80778 -1.14658 
-0.797468 0.833484 -1.06404 -0.796779 0.859164 -0.981499 -0.804024 0.886264 -0.899141 
-0.815691 0.917029 -0.823751 -0.796885 0.945211 -0.754504 -0.782503 0.977057 -0.692225 
-0.777068 1.00576 -0.618704 -0.771359 1.02926 -0.531209 -0.747291 1.04648 -0.425787 
1.44655 1.87857 -2.88185 1.4074 1.91426 -2.80711 1.38457 1.95276 -2.74571 
1.35071 2.00186 -2.70515 1.32071 2.05887 -2.68507 1.31751 2.1197 -2.68495 
1.32715 2.18398 -2.69825 1.33623 2.24549 -2.70469 1.33298 2.29772 -2.68399 
1.31219 2.3416 -2.63626 1.30556 2.38008 -2.58133 1.30762 2.41987 -2.53306 
1.30229 2.46386 -2.49182 1.28141 2.50776 -2.44409 1.27363 2.54931 -2.39605 
1.26509 2.58813 -2.34117 1.2423 2.63237 -2.29348 1.22459 2.6757 -2.24568 
1.20054 2.72304 -2.20488 1.18017 2.76397 -2.15028 1.14047 2.79689 -2.0687 
1.55622 1.86975 -2.94706 1.61248 1.8727 -2.9405 1.66628 1.86221 -2.93155 
1.71943 1.84898 -2.91577 1.77373 1.84366 -2.88867 1.83257 1.8641 -2.85878 
1.89171 1.88631 -2.82817 1.94814 1.89362 -2.79578 2.00534 1.90766 -2.74459 
2.06252 1.9216 -2.69343 2.11867 1.92724 -2.66174 2.17692 1.9431 -2.64178 
2.23409 1.95249 -2.62451 2.29072 1.96098 -2.59164 2.34344 1.94858 -2.5515 
2.39489 1.92865 -2.51453 2.44891 1.92166 -2.48813 2.50524 1.92839 -2.45598 
2.55793 1.9158 -2.41593 2.60581 1.88033 -2.34547 2.6521 1.83769 -2.26201 
2.69772 1.7922 -2.17175 2.7453 1.75497 -2.10202 2.79419 1.72325 -2.04598 
2.84439 1.69704 -2.00364 2.89328 1.66532 -1.9476 2.94086 1.62808 -1.87786 
2.98711 1.58525 -1.7945 3.03439 1.54626 -1.7255 3.08131 1.50281 -1.6717 
3.12735 1.44649 -1.62315 3.18165 1.39692 -1.5337 6.52734 1.76507 -2.23514 
6.4525 1.81279 -2.26316 6.4005 1.85709 -2.26812 6.35052 1.89191 -2.26335 
6.30272 1.939 -2.24897 6.25492 1.98609 -2.23459 6.20478 2.01937 -2.226 
6.15546 2.05746 -2.21539 6.10534 2.09083 -2.20675 6.05784 2.13968 -2.19164 
6.01189 2.19774 -2.17267 5.96556 2.2546 -2.1462 5.91765 2.3044 -2.1067 
5.86555 2.33414 -2.04361 5.80808 2.34035 -1.95843 5.74765 2.35722 -1.83718 
6.60628 1.64711 -2.33918 6.59969 1.608 -2.4357 6.61878 1.55676 -2.4723 
6.63139 1.49284 -2.46921 6.64819 1.42383 -2.45529 6.64932 1.36141 -2.4509 
6.64359 1.29963 -2.44692 6.65331 1.22468 -2.42804 6.73212 1.7401 -2.01718 
6.76217 1.76786 -1.89092 6.76678 1.7938 -1.80166 6.75436 1.81498 -1.7026 
6.71324 1.82517 -1.56615 6.66627 1.81909 -1.38873 6.63012 1.80053 -1.19124 
6.57863 1.77171 -0.999348 6.52253 1.71284 -0.836015 6.47817 1.62673 -0.714584 
6.43215 1.53653 -0.619013 6.41453 1.44794 -0.544114 6.42419 1.35724 -0.475485 
6.43187 1.27263 -0.42061 6.44605 1.19261 -0.379316 6.44483 1.12108 -0.352103 
6.43509 1.05682 -0.338808 6.42546 0.992541 -0.32551 6.42735 0.926198 -0.31194 
6.75716 1.55909 -2.08762 6.81885 1.45475 -2.0195 6.85035 1.37736 -1.99329 
6.85415 1.30936 -1.97665 6.85288 1.22923 -1.92886 6.86012 1.12748 -1.83283 
6.758 1.09109 -2.15115 6.80623 1.0523 -1.92168 6.69548 1.02898 -2.37183 
6.67826 0.937218 -2.33825 6.58183 0.834285 -2.44767 6.54668 0.821919 -2.56022 
6.51116 0.789392 -2.61411 6.48728 0.726667 -2.59888 6.42199 0.600604 -2.55965 
6.39722 0.55062 -2.57411 6.37132 0.496808 -2.57419 6.32027 0.448266 -2.55051 
6.25927 0.412864 -2.51447 6.19469 0.366744 -2.49111 6.12976 0.317044 -2.48525 
6.06458 0.265786 -2.48004 5.99836 0.21068 -2.46046 5.93266 0.160837 -2.42266 
5.8702 0.131244 -2.3684 5.80803 0.10341 -2.31339 5.74446 0.0661998 -2.27032 
5.68371 0.0438566 -2.229 5.62511 0.0221887 -2.19524 5.57179 -0.0269987 -2.16401 
5.53101 -0.0924023 -2.1301 6.50087 0.534906 -2.34875 6.54028 0.471669 -2.12995 
5.74706 2.39281 -1.54236 5.80034 2.37159 -1.39351 5.8443 2.32005 -1.24972 
5.8857 2.25715 -1.11075 5.92917 2.20245 -0.997679 5.97612 2.15895 -0.919846 
6.02737 2.11232 -0.877597 5.5887 2.35515 -1.53257 5.51029 2.3001 -1.39388 
5.43504 2.21617 -1.26919 5.35618 2.10921 -1.13006 5.26714 1.96434 -0.956386 
1.15093 2.86098 -1.9377 1.03806 2.85304 -1.95168 0.981567 2.84873 -1.95882 
0.923766 2.83668 -1.9692 0.863051 2.8074 -1.98678 0.801043 2.77047 -2.00756 
0.74033 2.7412 -2.02515 0.682496 2.72896 -2.0356 0.625407 2.72112 -2.04422 
0.571555 2.73176 -2.04508 0.514653 2.7128 -2.05815 0.466385 2.67342 -2.07861 
0.444202 2.62594 -2.09983 6.63047 0.693104 -2.13377 6.60869 0.563437 -1.99564 
6.89621 0.991809 -1.52326 6.92933 0.97723 -1.35762 6.92535 0.97493 -1.20662 
6.88336 0.980495 -1.06412 6.82655 0.980387 -0.933319 6.76423 0.958816 -0.819712 
6.70155 0.933561 -0.723636 6.64012 0.915656 -0.624496 6.58101 0.911465 -0.519605 
6.51825 0.887953 -0.406821 4.32492 1.51067 -1.89699 4.37791 1.60187 -1.96745 
4.41656 1.67096 -2.00008 4.4551 1.72153 -1.99209 4.47611 1.76367 -1.95708 
4.49696 1.79723 -1.90152 4.54329 1.829 -1.85224 4.60293 1.86529 -1.82392 
4.66488 1.90029 -1.81994 4.72301 1.91429 -1.80875 4.77932 1.92199 -1.7682 
4.83091 1.90845 -1.68857 4.88381 1.90487 -1.58875 4.93759 1.90765 -1.47829 
4.99167 1.91135 -1.3701 5.0425 1.8924 -1.23124 5.09433 1.83462 -1.03311 
4.31056 1.2199 -1.59509 4.35197 1.02734 -1.35943 6.53741 0.290123 -1.70629 
6.47203 0.176941 -1.5657 6.40108 0.0923709 -1.48093 6.33096 0.0198416 -1.4233 
6.26146 -0.0491404 -1.36952 6.19286 -0.111665 -1.30505 6.1282 -0.153118 -1.24775 
6.065 -0.189241 -1.21222 6.00704 -0.198881 -1.19759 5.95168 -0.195375 -1.19345 
5.89599 -0.194984 -1.19862 5.83856 -0.20372 -1.19961 5.78267 -0.201118 -1.17986 
5.72015 -0.234386 -1.15113 5.65571 -0.277859 -1.11866 5.59554 -0.297227 -1.08412 
5.53929 -0.296702 -1.06791 5.48414 -0.285328 -1.07128 5.42359 -0.261541 -1.09155 
6.17364 2.08436 -0.869518 3.30831 1.28049 -1.45621 3.34535 1.21354 -1.47961 
3.36111 1.14153 -1.46166 3.38872 1.05711 -1.41549 3.42385 0.961854 -1.34626 
3.45887 0.86661 -1.27703 3.48228 0.77345 -1.20807 3.47976 0.687759 -1.1466 
3.46496 0.594923 -1.06513 3.4529 0.479932 -0.944213 6.00016 1.90986 -0.633015 
5.9421 1.76951 -0.430506 3.26018 1.34575 -1.2021 3.2641 1.35796 -1.07658 
4.3805 0.903953 -1.07769 4.37303 0.977174 -1.05354 4.38042 1.02778 -1.0256 
4.402 1.08227 -1.01993 4.44181 1.14689 -1.04623 4.46982 1.21936 -1.08654 
4.49465 1.27805 -1.09262 4.52851 1.30928 -1.03673 4.55205 1.31938 -0.926207 
4.5805 1.32 -0.794984 4.60284 1.32458 -0.67077 4.63466 1.33884 -0.573815 
4.66383 1.36336 -0.505053 4.7108 1.38679 -0.467089 4.76667 1.40013 -0.448359 
4.82731 1.42963 -0.430693 4.89095 1.47308 -0.425825 4.95975 1.53026 -0.471062 
5.04513 1.61731 -0.596213 4.38621 0.818296 -1.36812 4.40504 0.840752 -1.59433 
4.43081 0.8441 -1.76 4.45887 0.822654 -1.86443 4.4662 0.778307 -1.90562 
4.4714 0.717116 -1.90569 4.49949 0.643213 -1.88464 4.53854 0.564477 -1.85648 
4.57754 0.477139 -1.80774 4.6147 0.381617 -1.73841 4.65213 0.287753 -1.66839 
4.69375 0.214116 -1.6219 4.74125 0.169723 -1.60316 4.78991 0.12888 -1.60692 
4.84005 0.0956037 -1.61551 4.8872 0.0457554 -1.62304 4.93303 -0.00959941 -1.61689 
4.97927 -0.0592072 -1.58434 5.02463 -0.11295 -1.5455 5.07416 -0.142007 -1.49635 
5.12823 -0.145314 -1.44442 5.17922 -0.165223 -1.3861 5.2284 -0.197408 -1.31686 
5.28209 -0.224025 -1.22624 3.2308 1.48129 -1.06755 3.19039 1.56314 -1.10261 
3.14867 1.63948 -1.12397 3.10574 1.7103 -1.13165 3.06396 1.77803 -1.13243 
3.03202 1.84401 -1.13298 3.01376 1.9018 -1.1195 2.9811 1.95642 -1.09262 
2.94713 2.00553 -1.05207 2.92626 2.0523 -1.0112 2.88984 2.09898 -0.963834 
2.84406 2.1416 -0.902974 2.80502 2.17726 -0.82823 2.78013 2.20752 -0.746288 
2.73977 2.23768 -0.657858 2.69073 2.26651 -0.562761 2.64905 2.29106 -0.460687 
2.62321 2.31681 -0.372634 2.58222 2.34163 -0.302439 2.53034 2.35971 -0.252034 
2.47713 2.38308 -0.18359 2.42094 2.39176 -0.105305 2.35877 2.36722 -0.0249409 
2.30075 2.36503 0.0487963 2.24293 2.36179 0.106092 2.18487 2.35496 0.145882 
2.12463 2.33626 0.188708 2.06236 2.30731 0.237906 2.00022 2.28636 0.314382 
1.92625 2.22303 0.402067 3.30225 1.37662 -0.846322 3.31003 1.37232 -0.695008 
3.29951 1.38565 -0.578431 3.27356 1.4161 -0.496515 3.25001 1.44324 -0.407679 
3.2077 1.46514 -0.298715 3.15282 1.4778 -0.162596 3.0968 1.49343 -0.0334083 
[...]
POINT_DATA 677
SCALARS DY_raw double
LOOKUP_TABLE default
3040.12 3967.72 3046.85 3354.04 2195.45 2099.99 2664.79 2260.72 2047.34 
2130.64 2572.6 3988.92 2899.56 2697.37 3355.37 3666.43 3156.02 3089.54 
3226.77 2810.48 2504.41 2637 2510.94 5220.85 2508.72 2804.96 3586.52 
2815.26 2904.5 3076.66 3365.87 2695.45 2039.14 2270.53 2912.61 1992.9 
1992.9 2225.64 2306.22 2512.25 2335.37 2335.49 2163.5 2121 2334.27 
2238.33 1999.62 2198.81 2025.32 1818.77 2026.96 2149.4 2323.81 2303.81 
2519.62 2561.03 2222.81 2389.63 2296.53 2212.2 2444.86 2361.19 2090.19 
2092.85 2117.36 1909.49 2048.4 2276.33 2241.43 2343.08 2700.87 2806.45 
2908.8 2653.74 2932.15 2598.83 2471.78 2533.45 2465.98 2397.74 2555.1 
2309.46 2428.95 2425.62 1993.35 2283.02 2685.85 2766.97 3232.35 3232.35 
2562.08 2728.91 2479.19 2458.25 2688.65 2835.49 2616.78 2616.78 2523.34 
2505.86 2717.13 2568.77 2565.68 2991.99 2765.95 1908.72 2249.2 2108.57 
2562.97 2688.75 2735.96 2797.55 2522.7 2634.92 2603.93 2467.26 2369.72 
2152.92 2353.56 2044.95 1962.18 2164.75 1940.84 2055.16 2262.55 2620.14 
2874.18 3263.34 2923.88 3230.26 3083.13 2555.92 2928.76 2377.1 2230.99 
2147.87 2309.72 3459.68 3442.72 3399.99 3161.02 3754.39 3317.46 2884.12 
3096.47 2962.87 2623.66 2322.78 2653.61 2568.72 2555.65 2305.6 2054.75 
2971.42 2906.23 3152.7 2961.43 3357.28 3342.19 2944.81 2880.42 2386.77 
2359.94 2222.52 2080.69 2274.57 2746.35 2834.6 2671.44 2627.73 2672.09 
2976.67 3264.88 3721.37 3484.37 3546.17 3144.06 3275.73 3038.32 2813.71 
2909.54 3034.05 2586.57 2730.66 2517.66 2924.16 3108.83 3362.72 3058.82 
2814.76 2782.79 2770 2542.93 2131.7 2270.53 2321.21 2212.54 2238.85 
2134.8 2038.28 2247.26 2079.41 1939.86 1997.08 2135.02 2211.11 2102.82 
2448.74 2534.33 2949.92 3612.65 2250.52 2268.86 2180.01 2355.19 2682.92 
2619.74 2459.89 2539.37 2541.84 2449.58 2454.23 2653.02 2644.24 2558.2 
2860.99 3410.56 3410.56 3765.17 3561.23 3140.98 3105.24 2608.89 2067.29 
2067.29 2078.98 2309.32 2309.32 2645.76 2417.11 3453.09 2987.33 2668.38 
2753.92 2578.56 2692.6 2584.4 2800.31 2992.09 2972.71 2428.08 2408.1 
2616.25 2928.8 3002.05 3262.7 3229.13 3064.12 2551.44 2246.65 2401.79 
2154.04 2352.08 2471.9 2655.77 3185.17 3439.48 3192.33 3040.58 2555.45 
2403.88 2267.52 2346.32 2660.11 2745.81 2709.97 2793.38 2939.86 3112.17 
2762.92 2646.56 2646.56 2899.24 2800.91 2916.15 2626.14 2622.33 2713.99 
2513.81 2487.62 2472.56 2493.84 2666.11 2518.3 2649.28 2329.01 2341.97 
2133.59 2279.51 2950.34 3247.21 3088.7 3171.58 3303.39 3171.47 3055.83 
3035.24 2925.11 2845.44 2617.23 3077.87 3126.28 3254.03 3237.49 3538.63 
3691.85 3726.31 4248.34 4421.59 4261.57 4158.15 3683.5 3580.09 3176.24 
2651.62 2371.97 2264.22 2342.96 2197.82 2210.23 2177.14 2700.49 2526.47 
2674.98 3261.57 2936.76 2650.2 2880 2626.27 2778.83 2902.79 3195.74 
3346.52 3329.91 3013.61 3134.22 2415.15 2335.36 2919.08 2619.27 2560 
2726.91 2629.58 2453.51 2745.82 3026.87 3212.92 2851.66 2794.79 3058.8 
3024.75 2368.39 2740.22 2643.79 2575.44 2515.2 2729.32 2573.07 2832.6 
3015.09 3049.69 2954.58 2822.4 2656.4 2664.03 2713.07 2549.62 2375.32 
2520.64 2367.98 2606.9 2941.58 2786.9 2769.84 2784.81 2664.31 2873.87 
3068.08 3118.81 2396.55 1953.37 2110.96 2050.23 2603.99 2406.64 2428.27 
2437.39 2626.41 2829.67 2880.71 2981.45 3201.41 2867.43 2565.77 2890.59 
2343.82 2234.53 2132.66 3310.47 3104.82 2694 2278.63 2313.63 2733.22 
2749.88 2680.45 2929.78 3337.25 3332.35 3562.86 3816.14 3902.76 4036.17 
3441.45 3163.18 3102.28 3015.93 3110.15 3167.02 3161.4 3100.65 2744.78 
2519.07 2631.82 2878.02 3177.24 3281.54 3385.35 3317.07 2943.67 2843.02 
2776.55 2669.9 2841.07 2637.45 2912.24 3611.13 3611.13 4278.34 4059.97 
3886.9 3526.01 3313.09 2527.12 2573.3 2735.8 3077.23 3154.65 2612.64 
2540.65 2105.21 2935.77 3303.08 3297.6 2684.08 2892.22 2859.27 2771.31 
2942.55 2880.32 3131.57 3496.41 3361.93 3176.56 3616.78 3293.03 2669.76 
3317.04 3576.3 3350.39 3258.33 3235.68 2959.75 2539.7 2438.98 3177.45 
3522.42 3773.72 3072.43 3286.84 3020.98 2662.79 2822.53 2599.39 2361.22 
2433.11 2214.11 2083.88 2261.3 2231.83 2319.64 2552.45 2552.45 2636.9 
2536.75 2783.06 2748.39 2761.48 2808.85 2474.45 2569.37 2569.37 2859.98 
2859.98 2783.22 2519.6 2643.23 2473.43 2884.15 2937.82 3041.11 2879.79 
2699.55 3242.01 3142.26 3387.98 3473.38 3225.53 3222.83 3792.32 3792.32 
3655.93 3410.76 3131.39 3406.89 3135.04 3135.04 3043.92 3043.92 2581.51 
2562.97 2737.72 3084.59 3655.02 3146.66 3425.99 3782.88 4023.71 3480.08 
2972.49 3426.38 3157.44 3196.05 3427.72 3303.43 3393.08 3559.54 3751.13 
3140.98 3224.38 4064.13 3811.07 4857.97 4568.29 4654.68 4265.14 4558 
4459.74 5008.71 4901.85 4595.07 4982.24 4665.91 4665.91 4100.1 3940.85 
3940.85 3771.87 3412.53 3258.84 3025.45 2823.09 2823.09 2643.21 2396.73 
2396.73 2315.2 2242.31 2287.33 2593.1 2173.87 2037.08 1933.83 2087.39 
2205.4 2205.4 2096.03 2060.09 2118.17 1942.96 1922.11 1981.83 2221.26 
2139.8 2248.75 2338.48 2167.87 2115.7 2115.7 2136.43 2388.9 2304.81 
2254.42 2156.23 2299.84 2406.88 2358.64 2292.39 2240.93 2435.18 2311.39 
2388.25 2512.18 2330.36 2250.3 2366.87 2676.62 2538.48 2480.52 2523.81 
2313.58 2366.41 2461.78 2518.91 2381.82 2471.71 2579.64 2723.37 2717.41 
2340.56 2426.83 2484.77 2453.49 2453.49 2768.91 3109.34 3231.6 3353.5 
2957.52 3031.58 3236.05 3401.48 3498.96 3163.06 3311.96 3182.42 3175.93 
3191.4 3526.54 3728.69 3852.5 3494.91 3293.32 2922.23 2958.33 3089.42 
3157.76 3429.3 3292.75 3265.06 3515.99 3528.99 3528.99 3486.52 3552.12 
3016.07 2846.59 
FIELD FieldData 7
DY_minmax 1 677 double
0.359001 0.631658 0.360978 0.451275 0.11072 0.0826597 0.248678 0.129907 0.0671854 
0.0916702 0.22158 0.637888 0.317684 0.258255 0.451664 0.543098 0.393069 0.373526 
0.413866 0.291502 0.201534 0.240508 0.203454 1 0.202803 0.289878 0.519609 
0.292907 0.319138 0.369741 0.454752 0.257688 0.0647759 0.132788 0.32152 0.0511819 
0.0511819 0.119593 0.143278 0.203841 0.151848 0.151882 0.101328 0.0888367 0.151524 
0.123324 0.0531591 0.111708 0.0607134 0 0.0611937 0.0971852 0.148449 0.142571 
0.206005 0.218177 0.118764 0.167796 0.140432 0.115644 0.18403 0.159436 0.0797798 
0.0805626 0.0877666 0.0266665 0.0674977 0.134493 0.124235 0.154116 0.259283 0.290317 
0.320402 0.245429 0.327264 0.22929 0.191943 0.210072 0.190238 0.170182 0.216436 
0.144232 0.179354 0.178376 0.0513157 0.13646 0.254869 0.278711 0.415504 0.415504 
0.218487 0.267524 0.194123 0.187968 0.255689 0.298853 0.234564 0.234564 0.2071 
0.201961 0.264061 0.220453 0.219546 0.344852 0.278412 0.0264388 0.12652 0.0851815 
0.218748 0.255719 0.269597 0.287699 0.20691 0.239897 0.230787 0.190615 0.161945 
0.0982195 0.157194 0.0664835 0.0421526 0.101697 0.03588 0.069482 0.130444 0.235552 
0.310223 0.424614 0.324833 0.414891 0.371645 0.216674 0.326269 0.164114 0.121165 
0.0967331 0.144309 0.482325 0.477339 0.46478 0.394539 0.568953 0.440521 0.313147 
0.375563 0.336294 0.236588 0.148147 0.245389 0.220437 0.216597 0.143096 0.0693634 
0.338808 0.319646 0.392092 0.335871 0.452226 0.447791 0.330986 0.31206 0.166956 
0.159071 0.118677 0.0769871 0.133976 0.272649 0.298592 0.250633 0.237785 0.250821 
0.34035 0.425067 0.559245 0.489582 0.507749 0.389552 0.428254 0.358472 0.29245 
0.320619 0.357216 0.225684 0.268037 0.205431 0.324916 0.379198 0.453827 0.364498 
0.292759 0.283362 0.279602 0.212858 0.0919806 0.132788 0.147686 0.115744 0.123478 
0.092893 0.0645221 0.12595 0.0766102 0.0355921 0.0524121 0.0929585 0.115322 0.0834927 
0.18517 0.21033 0.332488 0.527288 0.126907 0.132299 0.106181 0.157674 0.254007 
0.235434 0.188448 0.211811 0.212536 0.18542 0.186785 0.245216 0.242635 0.217345 
0.306347 0.467887 0.467887 0.57212 0.512175 0.388647 0.378143 0.232247 0.073049 
0.073049 0.0764856 0.14419 0.14419 0.243084 0.175874 0.480387 0.343484 0.249732 
0.274876 0.223332 0.256852 0.225047 0.288511 0.344883 0.339188 0.179099 0.173227 
0.234409 0.326279 0.347812 0.424424 0.414558 0.366055 0.215358 0.12577 0.17137 
0.0985486 0.156759 0.191979 0.246025 0.401637 0.476388 0.40374 0.359136 0.216538 
0.171985 0.131905 0.155066 0.2473 0.272491 0.261957 0.286473 0.329532 0.38018 
0.277521 0.24332 0.24332 0.317591 0.288689 0.32256 0.237316 0.236197 0.263138 
0.204298 0.196601 0.192173 0.198428 0.249066 0.205619 0.244117 0.14998 0.153787 
0.0925364 0.135429 0.332612 0.419872 0.373279 0.397641 0.436387 0.39761 0.363618 
0.357566 0.325194 0.301778 0.234698 0.370096 0.384326 0.421879 0.417015 0.505531 
0.550568 0.560697 0.714143 0.765066 0.718031 0.687632 0.548113 0.517719 0.399012 
0.244807 0.162607 0.130935 0.15408 0.111417 0.115064 0.105339 0.259171 0.208019 
0.251672 0.424094 0.328618 0.244389 0.311936 0.237354 0.282199 0.318634 0.404744 
0.449063 0.444181 0.351208 0.386659 0.175298 0.151844 0.323423 0.235297 0.217875 
0.266937 0.238328 0.186574 0.272496 0.355107 0.409794 0.303606 0.28689 0.364492 
0.354484 0.161554 0.270849 0.242503 0.222415 0.204706 0.267643 0.221718 0.298003 
0.351644 0.361813 0.333858 0.295005 0.246211 0.248452 0.262868 0.214825 0.16359 
0.206305 0.161433 0.231661 0.330035 0.284569 0.279554 0.283956 0.248536 0.310134 
0.36722 0.38213 0.169831 0.0395633 0.0858844 0.0680332 0.230805 0.172797 0.179155 
0.181835 0.237397 0.297142 0.312144 0.341755 0.40641 0.308239 0.219572 0.315047 
0.154331 0.122206 0.0922625 0.438467 0.378018 0.257262 0.13517 0.145457 0.26879 
0.273688 0.25328 0.326568 0.446338 0.444899 0.512653 0.587102 0.612564 0.651777 
0.476968 0.395174 0.377273 0.351892 0.379584 0.396302 0.394649 0.376792 0.27219 
0.205844 0.238985 0.311354 0.399305 0.429963 0.460476 0.440407 0.33065 0.301065 
0.281528 0.250178 0.300494 0.24064 0.321412 0.526843 0.526843 0.722961 0.658773 
0.607902 0.501822 0.439236 0.208211 0.221784 0.26955 0.369909 0.392667 0.233349 
0.212187 0.084194 0.328329 0.436294 0.434685 0.254346 0.315527 0.305842 0.279988 
0.33032 0.312029 0.385883 0.493121 0.453593 0.399107 0.528504 0.433342 0.250139 
0.440398 0.516604 0.4502 0.423142 0.416484 0.335377 0.21191 0.182303 0.399368 
0.500766 0.574634 0.368498 0.431521 0.353375 0.248088 0.295044 0.229453 0.159446 
0.180579 0.116206 0.0779247 0.130076 0.121414 0.147224 0.215656 0.215656 0.24048 
0.211041 0.283441 0.273252 0.277098 0.291022 0.192728 0.220629 0.220629 0.306052 
0.306052 0.283488 0.205999 0.242339 0.192429 0.313154 0.328931 0.35929 0.311874 
0.258894 0.418345 0.389024 0.46125 0.486352 0.413499 0.412706 0.580103 0.580103 
0.54001 0.467947 0.385828 0.466807 0.386903 0.386903 0.360119 0.360119 0.224199 
0.218749 0.270114 0.372073 0.539743 0.390318 0.472424 0.577326 0.648115 0.488322 
0.339122 0.472536 0.393486 0.404834 0.472932 0.436398 0.46275 0.511679 0.567995 
0.388646 0.413162 0.659997 0.585613 0.893338 0.808187 0.833581 0.719082 0.805163 
0.77628 0.937646 0.906235 0.81606 0.929865 0.836882 0.836882 0.670569 0.62376 
0.62376 0.574089 0.468467 0.423291 0.354688 0.295209 0.295209 0.242335 0.169885 
0.169885 0.145919 0.124495 0.137726 0.227605 0.104378 0.0641695 0.0338187 0.0789578 
0.113645 0.113645 0.0814972 0.0709323 0.0880056 0.0365043 0.030375 0.0479277 0.118306 
0.0943621 0.126388 0.152761 0.102614 0.0872797 0.0872797 0.0933726 0.167581 0.142866 
0.128054 0.0991904 0.141405 0.172868 0.158689 0.139215 0.124087 0.181185 0.144798 
0.167392 0.203819 0.150376 0.126843 0.161107 0.252155 0.21155 0.194513 0.207236 
0.145442 0.160971 0.189005 0.205798 0.1655 0.191923 0.223649 0.265896 0.264144 
0.153372 0.178731 0.195761 0.186568 0.186568 0.279281 0.379346 0.415285 0.451115 
0.334721 0.356489 0.416592 0.465218 0.493872 0.395139 0.438904 0.400829 0.398922 
0.403466 0.501977 0.561397 0.59779 0.492682 0.433425 0.324348 0.334959 0.373492 
0.393579 0.473395 0.433259 0.42512 0.498878 0.502698 0.502698 0.490214 0.509496 
0.351933 0.302114 
WidthEq 1 677 double
1.69323 1 1.33604 1.49443 2.43871 3.25552 2.0774 3.35718 3.78284 
3.42913 3.47312 1.50524 2.80376 2.48168 3.61065 1.86251 2.71344 2.26989 
2.58725 3.15962 3.23404 3.55983 3.7894 1.03689 3.90093 3.67858 2.85911 
3.4429 2.34735 2.67919 2.31502 1.74119 3.81369 3.33547 3.20227 3.37373 
3.37373 2.95333 2.70246 2.67553 2.59253 2.67197 2.78015 2.89653 2.70142 
2.7693 2.94068 3.01777 3.16047 3.13526 3.13323 3.11304 3.10075 2.85775 
2.92721 2.90625 3.12424 3.15792 3.2466 3.32599 3.27069 3.35846 3.55922 
3.92912 4.16073 4.64566 4.52936 4.39566 3.79912 3.81303 3.32102 2.96715 
2.84648 3.05236 2.98445 2.99848 3.03731 3.09394 2.96574 2.792 2.75466 
2.77577 2.81091 2.87603 2.9822 2.38496 2.11758 1.73157 1.64508 1.64508 
2.13365 2.08115 2.42478 2.86115 2.75078 2.79809 3.17052 3.17052 3.25678 
3.24546 3.13395 2.99036 2.99381 2.66407 2.7176 3.29977 2.81248 2.75752 
2.41101 2.33654 2.28511 2.40062 2.58136 2.38799 2.75144 2.60654 2.81658 
3.05139 2.9931 3.47021 3.73214 3.58348 3.86708 3.73371 3.58947 3.08372 
2.90433 2.51171 2.5206 2.40001 2.48982 2.91238 2.79372 3.34683 3.52694 
3.58256 3.46226 2.46001 2.41433 2.35423 2.48602 2.10243 2.386 2.60593 
2.49554 2.59379 2.7241 2.88065 2.51239 2.49414 2.53727 2.8364 3.4452 
2.55802 2.36833 2.13333 2.23398 2.16835 2.18141 2.75127 2.84738 3.28673 
3.57536 3.74942 3.83174 3.60163 3.25081 2.96841 3.03568 3.3359 3.40766 
3.07514 2.83519 2.29495 1.95286 1.91803 2.03014 2.0236 2.36211 2.82021 
2.94059 2.99124 3.14605 3.21262 3.63597 3.38386 3.2616 3.04368 3.20501 
3.44379 3.31116 2.99843 3.17467 3.29487 3.33547 2.94631 2.89682 2.67825 
2.68181 2.75866 2.67616 2.81171 2.90283 2.96228 2.96545 3.00704 2.98506 
2.87002 2.76913 2.32893 1.76247 3.47603 3.87553 3.88254 3.45499 3.1388 
3.08316 3.26664 3.39654 3.62272 3.32953 3.06668 2.74261 2.52041 2.75107 
2.10178 1.95235 1.95235 1.79058 1.78089 1.97098 2.08166 2.57731 3.36804 
3.36804 3.46556 3.09821 3.09821 3.73713 3.99865 2.97599 3.30963 3.63721 
3.45092 3.24834 3.19403 2.77708 2.61967 2.63072 2.72272 4.0564 3.64252 
3.42351 2.73585 2.9931 2.58613 2.82298 3.05323 3.52117 3.79265 3.71992 
3.65817 3.39978 3.06678 2.8848 2.49285 2.31662 3.65306 4.30436 3.84337 
3.72862 3.54914 3.20031 2.77705 2.80138 2.60918 2.42221 2.3329 2.20308 
2.20514 2.21444 2.21444 2.22079 2.50412 2.45805 2.77957 2.76942 2.64684 
3.86468 3.17297 3.03866 2.95217 2.71266 2.83572 2.77909 3.26535 3.32851 
3.85804 3.78141 3.1023 2.78524 2.83999 2.87632 4.10879 4.32281 4.4235 
4.28357 3.94271 4.09175 3.99608 3.13037 2.91752 2.459 2.43752 2.30673 
2.21544 2.1533 1.90906 1.77822 1.85546 1.8993 2.12962 3.10848 3.21914 
3.45809 3.50554 3.65762 3.52411 3.62812 3.19961 3.08563 2.86124 2.90307 
2.73782 2.34698 2.53878 2.62619 2.38595 2.5744 2.3717 2.28851 2.20768 
2.03857 1.82824 1.94866 2.12417 3.31407 2.90462 2.42366 2.51188 2.53378 
2.40011 2.43939 2.56997 2.33266 2.20994 1.98342 2.25419 2.25853 2.06712 
2.15129 2.59961 2.47143 2.48786 2.43653 2.35052 2.19402 2.26299 2.16198 
1.92314 1.97685 1.88788 1.90446 1.98613 2.02786 2.08246 3.23572 3.17969 
3.10269 2.76149 2.47237 2.24326 2.08481 2.00179 1.9516 1.93696 1.73763 
1.70244 1.99897 2.27096 2.90591 3.1736 3.66159 2.75669 3.05156 3.13332 
3.18511 2.88948 2.70871 2.43151 2.2435 2.12831 2.32762 2.62733 2.45459 
3.04974 3.2592 3.35214 2.97842 2.86573 2.92081 2.86684 2.89183 2.81239 
2.72032 2.60712 2.46598 2.2617 1.97287 1.95921 1.94069 1.89857 1.91178 
2.14198 2.36659 2.58921 2.76241 2.67153 2.60935 2.50802 2.4073 2.56439 
2.65784 2.55012 2.4185 2.27353 2.12982 1.97498 2.05258 2.22424 2.22428 
2.29195 2.31681 2.15856 2.21709 1.93335 1.69551 1.69551 1.5089 1.79199 
2.03012 2.60222 3.36033 3.39729 3.18073 2.8412 2.58533 2.51161 2.82353 
3.0026 3.47976 2.67158 2.25189 2.02066 3.21744 2.68498 2.36492 2.1216 
1.92552 1.85565 1.62319 1.43714 1.23626 1.25948 1.14521 1.10016 3.38815 
2.6314 2.33545 2.48997 2.61184 2.80691 3.00217 3.42971 3.49997 2.5278 
2.04839 1.8825 2.00011 1.93851 2.04206 2.06928 2.06184 1.99197 2.13052 
2.09048 2.2239 2.29299 1.94454 2.10214 2.00193 1.66223 1.66223 1.54453 
1.36277 1.40903 1.3633 1.47003 1.50025 1.65942 1.706 1.706 1.71172 
1.71172 1.83871 2.00312 2.0361 2.08544 1.8439 1.84147 1.80108 1.83563 
1.82274 1.71829 1.70719 1.7306 1.78387 1.85759 1.87327 1.7971 1.7971 
1.81852 1.85095 1.90078 1.74771 1.85764 1.85764 2.07102 2.07102 2.34412 
2.67086 2.56686 2.39557 2.12761 2.34737 2.22346 2.01039 1.90477 2.15856 
2.4231 2.26568 2.46569 2.46212 2.38714 2.36308 2.19637 1.97501 1.93022 
2.11787 2.04912 1.73867 1.81867 1.52451 1.55832 1.40334 1.48639 1.30594 
1.29254 1.17081 1.33175 1.48547 1.45568 1.74531 1.74531 1.90892 1.98065 
1.98065 2.02861 2.11763 2.13522 2.28897 2.40815 2.40815 2.64643 2.85533 
2.85533 2.97856 3.06753 3.29492 2.25184 2.48839 2.58693 2.46736 2.20591 
2.06252 2.06252 1.99241 1.95906 2.07519 2.21381 2.29163 2.53907 3.13878 
3.01712 2.69797 2.38639 2.27944 2.27399 2.27399 2.14288 1.97081 2.06766 
2.18166 2.34744 3.408 3.33193 3.10216 3.03011 3.02633 2.76724 2.68564 
2.50107 2.36196 2.29648 2.28128 2.15364 1.86881 1.96354 2.01177 2.03118 
2.16636 2.53218 2.71227 2.79348 1.95707 2.02985 2.07861 1.96815 1.89457 
2.32243 2.14259 1.94583 2.0171 2.0171 1.84666 1.65332 1.59925 1.43748 
1.71676 1.65397 1.46346 1.3104 1.30242 1.41562 1.32799 1.51942 1.52621 
1.30853 1.20132 1.14616 1.03805 1.11635 1.1931 1.38611 1.38884 1.38191 
1.3443 1.23818 1.26627 1.27734 1.21823 1.2794 1.2794 1.3325 1.35305 
1.67489 1.851 
rRFP 1 677 double
2927.83 2641.78 2780.44 2845.8 3235.44 3572.48 3086.35 3614.43 3790.07 
3644.12 3662.27 2850.26 3386.07 3253.17 3719.02 2997.68 3348.8 3165.78 
3296.73 3532.91 3563.62 3698.05 3792.78 2657 3838.8 3747.05 3408.91 
3649.8 3197.74 3334.67 3184.4 2947.62 3802.8 3605.47 3550.51 3621.26 
3621.26 3447.79 3344.27 3333.16 3298.91 3331.69 3376.33 3424.35 3343.84 
3371.85 3442.57 3474.38 3533.26 3522.86 3522.02 3513.69 3508.62 3408.35 
3437.01 3428.36 3518.31 3532.21 3568.8 3601.56 3578.74 3614.96 3697.8 
3850.43 3946 4146.1 4098.11 4042.94 3796.79 3802.53 3599.51 3453.49 
3403.7 3488.65 3460.63 3466.42 3482.44 3505.81 3452.91 3381.22 3365.81 
3374.52 3389.02 3415.89 3459.7 3213.26 3102.93 2943.65 2907.96 2907.96 
3109.56 3087.9 3229.69 3409.75 3364.21 3383.73 3537.41 3537.41 3573 
3568.33 3522.32 3463.07 3464.49 3328.43 3350.52 3590.74 3389.67 3366.99 
3224.01 3193.28 3172.06 3219.72 3294.3 3214.51 3364.48 3304.69 3391.36 
3488.25 3464.2 3661.07 3769.15 3707.81 3824.83 3769.8 3710.28 3501.59 
3427.57 3265.56 3269.23 3219.47 3256.53 3430.89 3381.93 3610.16 3684.48 
3707.43 3657.79 3244.23 3225.38 3200.58 3254.96 3096.68 3213.69 3304.44 
3258.89 3299.43 3353.2 3417.8 3265.84 3258.31 3276.11 3399.54 3650.75 
3284.67 3206.4 3109.43 3150.96 3123.88 3129.27 3364.41 3404.07 3585.36 
3704.46 3776.28 3810.25 3715.3 3570.54 3454.01 3481.77 3605.65 3635.26 
3498.05 3399.04 3176.12 3034.96 3020.59 3066.85 3064.15 3203.83 3392.86 
3442.53 3463.43 3527.31 3554.78 3729.47 3625.44 3574.99 3485.07 3551.64 
3650.17 3595.44 3466.4 3539.12 3588.72 3605.47 3444.89 3424.47 3334.28 
3335.75 3367.46 3333.42 3389.35 3426.95 3451.48 3452.79 3469.95 3460.88 
3413.41 3371.78 3190.14 2956.4 3663.47 3828.32 3831.21 3654.79 3524.32 
3501.36 3577.07 3630.67 3724 3603.02 3494.56 3360.84 3269.15 3364.33 
3096.41 3034.75 3034.75 2968 2964 3042.44 3088.11 3292.63 3618.91 
3618.91 3659.15 3507.57 3507.57 3771.21 3879.12 3457.14 3594.81 3729.98 
3653.11 3569.52 3547.11 3375.06 3310.11 3314.67 3352.63 3902.95 3732.17 
3641.8 3358.05 3464.2 3296.27 3394 3489.01 3682.1 3794.12 3764.11 
3738.63 3632.01 3494.6 3419.51 3257.78 3185.06 3736.52 4005.27 3815.05 
3767.7 3693.64 3549.7 3375.05 3385.09 3305.78 3228.63 3191.78 3138.21 
3139.06 3142.9 3142.9 3145.52 3262.43 3243.42 3376.09 3371.9 3321.32 
3823.84 3538.42 3483 3447.31 3348.48 3399.26 3375.89 3576.54 3602.6 
3821.1 3789.48 3509.26 3378.43 3401.02 3416.01 3924.57 4012.88 4054.43 
3996.69 3856.04 3917.54 3878.06 3520.84 3433.01 3243.81 3234.95 3180.98 
3143.31 3117.67 3016.89 2962.9 2994.77 3012.86 3107.9 3511.81 3557.47 
3656.07 3675.65 3738.4 3683.31 3726.23 3549.41 3502.38 3409.79 3427.05 
3358.86 3197.59 3276.73 3312.8 3213.67 3291.43 3207.79 3173.46 3140.11 
3070.33 2983.54 3033.23 3105.65 3596.64 3427.69 3229.23 3265.63 3274.67 
3219.51 3235.72 3289.6 3191.68 3141.04 3047.57 3159.3 3161.09 3082.11 