# vtk DataFile Version 3.0
vtk output
ASCII
DATASET POLYDATA
POINTS 508 float
0.301911 1.09638 -0.0832983 0.525047 1.35466 -0.503926 0.261433 1.00707 -0.322619 
4.87449 0.543135 0.16161 3.15998 0.637553 -0.0330955 -0.103921 0.560457 0.0195876 
1.39872 -0.468543 1.3643 4.62841 0.0444724 0.206719 4.23483 0.355321 -0.314616 
5.19102 0.908974 -1.20539 3.24583 0.378456 -0.503832 2.71234 0.841276 -1.08246 
4.26932 0.12309 -0.316657 2.47063 0.553384 -1.4525 -0.3176 -0.381739 0.0252857 
4.21493 -0.41248 -0.463411 3.23984 -0.826067 0.0675281 4.08832 0.0309015 -1.06859 
1.28061 0.506941 -1.78868 3.34105 -0.755321 -0.0467739 5.70791 0.292776 -1.84892 
3.39104 -0.655277 -0.210535 3.57758 -0.376071 -0.666491 5.59075 -1.01102 0.0403521 
2.93662 -1.15038 0.0810189 3.42465 -0.543989 -0.778809 6.64718 -0.798658 -0.671203 
4.75684 -1.00386 -0.376055 4.13924 -0.607774 -1.04299 6.08369 -1.16054 -0.47317 
2.73615 -1.55765 -0.666143 5.77843 -0.980321 -1.934 2.23306 -1.5663 -1.43456 
2.21222 -1.59538 -1.77271 2.20705 -1.57867 -1.67183 2.20341 -1.56761 -1.57588 
2.20877 -1.56506 -1.49429 2.22859 -1.60662 -1.3682 2.2243 -1.65324 -1.30574 
2.22145 -1.70555 -1.24815 2.22623 -1.76063 -1.2001 2.24358 -1.79065 -1.15022 
2.25953 -1.79583 -1.08419 2.29534 -1.75977 -1.01429 2.35143 -1.71411 -0.959719 
2.40648 -1.67533 -0.90814 2.47318 -1.64379 -0.87292 2.5398 -1.60592 -0.833858 
2.59502 -1.57342 -0.786179 2.65282 -1.54609 -0.744227 2.69813 -1.54378 -0.704163 
2.30984 -1.51087 -1.39563 2.38543 -1.46876 -1.36335 2.45375 -1.4492 -1.3369 
2.50967 -1.461 -1.31619 2.56798 -1.46529 -1.2935 2.61465 -1.45596 -1.25068 
2.6608 -1.41501 -1.1886 2.71696 -1.36932 -1.13409 2.76328 -1.33466 -1.07591 
2.81122 -1.31199 -1.0265 2.87783 -1.27404 -0.987567 2.95198 -1.2249 -0.952626 
3.02075 -1.16489 -0.921419 3.07831 -1.09839 -0.901181 3.13932 -1.04014 -0.881536 
3.1957 -0.985535 -0.870295 3.25544 -0.93285 -0.855803 3.30363 -0.854709 -0.840694 
3.34483 -0.75372 -0.820542 3.38473 -0.645712 -0.797721 5.77121 -0.971009 -2.00665 
5.74361 -0.952212 -2.05254 5.69938 -0.922139 -2.07455 5.64104 -0.898819 -2.08576 
5.58631 -0.875129 -2.09748 5.5266 -0.855633 -2.08814 5.4758 -0.830266 -2.04542 
5.42357 -0.799197 -1.99784 5.35469 -0.76499 -1.97011 5.27933 -0.739639 -1.95648 
5.20941 -0.717397 -1.93761 5.15069 -0.695277 -1.90399 5.08992 -0.678267 -1.87629 
5.04086 -0.693086 -1.85298 4.99871 -0.730711 -1.83478 4.95639 -0.76195 -1.81281 
4.90585 -0.757077 -1.77915 4.83833 -0.723638 -1.75011 4.77081 -0.690207 -1.72107 
4.7202 -0.685293 -1.68748 4.67625 -0.690467 -1.65138 4.62566 -0.691849 -1.6217 
4.55695 -0.6703 -1.60166 4.48031 -0.644214 -1.58928 4.40228 -0.604767 -1.57037 
4.32522 -0.553309 -1.54269 4.2543 -0.463521 -1.48284 4.19453 -0.336625 -1.38393 
4.13411 -0.160069 -1.24787 6.09908 -1.1516 -0.544689 6.13008 -1.16414 -0.608986 
6.16117 -1.18303 -0.677132 6.17667 -1.18671 -0.756402 6.19069 -1.1707 -0.825316 
6.21332 -1.14705 -0.878064 6.2258 -1.11759 -0.940614 6.23173 -1.09704 -1.0172 
6.23535 -1.09543 -1.10545 6.23145 -1.10368 -1.19193 6.21479 -1.11158 -1.26497 
6.20172 -1.10504 -1.33318 6.18336 -1.10099 -1.3974 6.16887 -1.10786 -1.47208 
6.14043 -1.12771 -1.54001 6.09691 -1.15467 -1.59653 6.03927 -1.18193 -1.6386 
5.98541 -1.21377 -1.6873 5.92625 -1.24813 -1.73201 5.87079 -1.27436 -1.77572 
5.80238 -1.28758 -1.79833 5.72626 -1.29171 -1.80755 5.64869 -1.29014 -1.81191 
5.57105 -1.28861 -1.8162 5.4934 -1.28708 -1.82049 5.41574 -1.27925 -1.82087 
5.3392 -1.26579 -1.81624 5.26929 -1.24985 -1.80128 5.21085 -1.25302 -1.7831 
5.14914 -1.2606 -1.77201 5.09208 -1.27084 -1.75643 5.03001 -1.25309 -1.72997 
4.97121 -1.22464 -1.6925 4.9024 -1.19047 -1.66471 4.83513 -1.17604 -1.6472 
4.78597 -1.17823 -1.61614 4.75115 -1.18234 -1.5673 4.72623 -1.17327 -1.49714 
4.68449 -1.1483 -1.43927 4.62481 -1.11307 -1.39873 4.56736 -1.0854 -1.35996 
4.50512 -1.04861 -1.32204 4.44751 -1.00678 -1.27806 4.38606 -0.948664 -1.2467 
4.33031 -0.875733 -1.22537 4.26852 -0.798588 -1.18256 4.20907 -0.711727 -1.11286 
4.13469 -0.641763 -0.972788 4.13004 -0.663052 -0.894962 4.12651 -0.656224 -0.801568 
4.13235 -0.613536 -0.69565 4.16346 -0.525535 -0.582925 4.10303 -0.497436 -1.02575 
4.07543 -0.365996 -1.00499 4.06848 -0.217989 -0.996805 4.07402 -0.0847065 -1.01641 
2.95327 -1.1362 -0.00860042 2.98688 -1.10258 -0.0489755 3.03753 -1.0342 -0.0415189 
3.12044 -0.937858 0.00627142 4.81293 -0.958209 -0.321485 4.84778 -0.928968 -0.254631 
4.89676 -0.905803 -0.206016 4.94215 -0.903453 -0.166013 4.99044 -0.912477 -0.135752 
5.05774 -0.918896 -0.123638 5.13379 -0.921185 -0.118132 5.20991 -0.923435 -0.112688 
5.27858 -0.929208 -0.101607 5.33457 -0.94097 -0.0809442 5.39434 -0.950947 -0.0631368 
5.44881 -0.963428 -0.041323 5.50706 -0.974125 -0.0223646 5.55263 -0.990809 0.00617498 
6.61219 -0.776973 -0.707744 6.58602 -0.751122 -0.750949 6.58006 -0.715722 -0.809435 
6.58308 -0.676159 -0.874577 6.58874 -0.636608 -0.939638 6.60106 -0.600859 -0.998282 
6.6221 -0.571519 -1.04616 6.62559 -0.539935 -1.09814 6.61105 -0.509931 -1.14793 
6.60516 -0.474575 -1.20634 6.59792 -0.446155 -1.26763 6.57338 -0.438655 -1.3234 
6.54766 -0.444466 -1.38582 6.5317 -0.439284 -1.45185 6.5041 -0.420479 -1.49774 
6.46886 -0.392545 -1.53032 6.43244 -0.377905 -1.56955 6.39619 -0.382308 -1.62025 
6.36004 -0.393046 -1.67479 6.32388 -0.397411 -1.72555 6.28908 -0.401134 -1.77733 
6.26175 -0.407703 -1.83854 6.24427 -0.403244 -1.90342 6.2076 -0.382352 -1.93869 
6.15045 -0.345641 -1.94337 6.0957 -0.30142 -1.94609 6.03702 -0.265432 -1.94962 
5.98957 -0.224136 -1.96164 5.94058 -0.164451 -1.96117 5.87385 -0.0897264 -1.93352 
5.80647 0.0110892 -1.89175 5.75534 0.139922 -1.86249 3.50107 -0.456867 -0.720731 
3.41559 -0.395328 -0.766985 3.38757 -0.244967 -0.734584 3.34947 -0.073429 -0.680189 
3.30381 0.137638 -0.600677 2.85905 -1.2236 0.0761858 2.79047 -1.27216 0.0689541 
2.74026 -1.31042 0.078506 2.69679 -1.34524 0.0968319 2.64808 -1.38539 0.104772 
2.58929 -1.41977 0.10298 2.53938 -1.46552 0.105831 2.48817 -1.50424 0.111355 
2.42138 -1.53405 0.101837 2.35329 -1.55683 0.0949929 2.29407 -1.59097 0.0927902 
2.22488 -1.63197 0.0731048 2.14913 -1.6755 0.0431536 2.07208 -1.71201 0.015882 
1.99469 -1.72947 6.446e-005 1.91713 -1.73428 -0.00807209 1.83948 -1.73275 -0.0123647 
1.76184 -1.73121 -0.0166577 1.68419 -1.72968 -0.0209509 1.60654 -1.72815 -0.0252436 
1.52889 -1.72662 -0.0295365 1.45133 -1.72505 -0.0338916 1.37512 -1.72284 -0.0392735 
1.30637 -1.71711 -0.0502928 1.24893 -1.70603 -0.0698607 1.1801 -1.69396 -0.0770418 
1.10363 -1.67275 -0.0708993 1.02554 -1.63319 -0.0522051 0.947357 -1.58728 -0.029662 
0.870624 -1.54708 -0.0119949 0.801532 -1.51601 -0.00765159 0.74374 -1.4796 -0.0118512 
0.674538 -1.43592 0.000249236 0.598914 -1.38378 0.0268428 0.52849 -1.32975 0.0647239 
0.467984 -1.2752 0.116242 0.397302 -1.20854 0.161872 0.319882 -1.12539 0.208698 
0.24261 -1.04089 0.253334 0.172803 -0.9528 0.292195 0.116179 -0.883968 0.305993 
0.0588599 -0.840961 0.305213 0.0221056 -0.813734 0.273785 0.00401006 -0.764948 0.235801 
-0.0243719 -0.695526 0.220696 -0.0603986 -0.610596 0.222696 -0.0976094 -0.538968 0.218042 
-0.134552 -0.49271 0.198082 -0.171231 -0.465448 0.166598 -0.207823 -0.444521 0.13127 
-0.244416 -0.423593 0.0959417 -0.281007 -0.402666 0.0606138 3.27913 -0.781462 -0.0193844 
3.03781 -1.01492 0.179033 3.11286 -0.891921 0.249355 3.15677 -0.807116 0.258147 
3.18807 -0.788055 0.189363 3.36063 -0.680765 -0.169216 3.34695 -0.715815 -0.111756 
5.79543 0.364426 -1.83172 5.87441 0.443223 -1.78842 5.94221 0.535248 -1.71957 
5.99521 0.626206 -1.63501 6.04163 0.711973 -1.54683 6.05406 0.770215 -1.44259 
6.04343 0.81819 -1.33625 6.01871 0.858724 -1.24651 5.99479 0.892349 -1.15967 
5.95173 0.930645 -1.09523 5.88525 0.976049 -1.05733 5.81651 1.01018 -1.02947 
5.75797 1.01963 -1.00354 5.69609 1.01842 -0.988674 5.63775 1.00891 -0.974333 
5.5681 1.00587 -0.970899 5.49191 1.00037 -0.977857 5.41603 0.989915 -0.990912 
5.34908 0.971054 -1.01848 5.30109 0.955667 -1.06562 5.25399 0.933435 -1.13002 
5.61074 0.385403 -1.79909 5.52663 0.474977 -1.74871 5.45486 0.556388 -1.69411 
5.39553 0.618612 -1.63616 5.33423 0.673614 -1.58541 5.28436 0.72205 -1.52357 
5.24227 0.778104 -1.44554 5.20867 0.845077 -1.34247 3.30982 -0.786448 0.0181063 
4.26949 -0.445108 -0.413149 4.32889 -0.44256 -0.373153 4.37564 -0.417142 -0.318777 
4.42175 -0.372003 -0.254061 4.47758 -0.307353 -0.187966 4.52176 -0.229089 -0.101736 
4.5583 -0.141687 -0.00218721 4.5934 -0.0485835 0.102237 1.33231 0.520246 -1.80944 
1.40057 0.530285 -1.81014 1.47525 0.541511 -1.79839 1.54349 0.56111 -1.77201 
1.59913 0.574679 -1.73598 1.65847 0.596448 -1.69909 1.71283 0.610751 -1.6643 
1.77315 0.634886 -1.64558 1.82988 0.656374 -1.65115 1.8915 0.67021 -1.65826 
1.94976 0.679679 -1.67254 2.01797 0.682045 -1.67489 2.08535 0.677005 -1.66505 
2.14127 0.665286 -1.64446 2.20104 0.655309 -1.62665 2.25551 0.642828 -1.60483 
2.31376 0.632131 -1.58588 2.35933 0.615446 -1.55734 2.39736 0.5952 -1.5231 
2.43404 0.574311 -1.48783 4.17101 0.227188 -0.957025 4.22554 0.399538 -0.882811 
4.26629 0.515974 -0.854813 4.29916 0.567309 -0.876788 4.32253 0.577971 -0.936671 
4.35731 0.569546 -0.993405 4.40399 0.566879 -1.03079 4.45521 0.574176 -1.05593 
4.48747 0.598603 -1.09546 4.52982 0.617262 -1.12525 4.58774 0.627013 -1.14 
4.63786 0.647512 -1.15836 4.68794 0.680593 -1.16891 4.74776 0.733236 -1.15434 
4.80387 0.80685 -1.13157 4.86446 0.890458 -1.09664 4.92065 0.96403 -1.07379 
4.98184 1.00966 -1.06193 5.04039 1.01383 -1.08174 5.11148 0.972993 -1.12706 
4.25302 -0.142802 -0.388152 4.34447 0.204662 -0.263727 4.41332 0.270989 -0.228674 
4.47233 0.324089 -0.214882 4.54136 0.371381 -0.191291 4.61542 0.420488 -0.156289 
4.68042 0.470426 -0.108578 4.71919 0.507899 -0.0409161 4.7453 0.533009 0.0325453 
4.79275 0.555455 0.0823121 4.83654 0.557047 0.123528 4.26069 0.24646 -0.320263 
2.61834 0.950126 -1.0248 2.53238 1.05902 -0.95989 2.45246 1.1456 -0.911614 
2.37388 1.21514 -0.87449 2.29681 1.2666 -0.846808 2.22657 1.30158 -0.820395 
2.16666 1.3181 -0.791861 2.09788 1.33969 -0.771884 2.02893 1.37394 -0.744225 
1.96875 1.40946 -0.704162 1.89858 1.44441 -0.677678 1.82331 1.46342 -0.667896 
1.75487 1.46597 -0.659373 1.70316 1.45267 -0.638621 1.65153 1.43932 -0.617799 
1.58437 1.44114 -0.608036 1.51711 1.45557 -0.59052 1.46638 1.4794 -0.545268 
1.42457 1.50442 -0.487476 1.38949 1.5193 -0.42711 1.35703 1.51383 -0.375994 
1.29916 1.51033 -0.357264 1.24132 1.50054 -0.342441 1.20783 1.47681 -0.304097 
1.16542 1.45819 -0.274372 1.10764 1.44836 -0.259485 1.06001 1.43272 -0.234796 
1.0256 1.40953 -0.197344 1.00248 1.37987 -0.148985 0.969359 1.35594 -0.110294 
0.929586 1.3358 -0.0780189 0.88853 1.31641 -0.0469839 0.846117 1.29779 -0.0172594 
0.79584 1.28367 0.00487321 0.72877 1.27915 0.0107932 0.660416 1.27536 0.0154738 
0.600851 1.26655 0.0286392 0.531222 1.25721 0.0281595 0.455208 1.23268 0.00973828 
0.378421 1.17718 -0.029058 2.79035 0.730269 -1.10123 2.84047 0.651673 -1.09552 
2.87932 0.595419 -1.08046 2.91621 0.560218 -1.05372 2.95289 0.532956 -1.02223 
2.98948 0.512028 -0.986905 3.02607 0.491101 -0.951577 3.06266 0.470174 -0.916249 
3.09917 0.455581 -0.877078 3.1355 0.45365 -0.830225 3.17148 0.470675 -0.771785 
3.20599 0.491215 -0.709628 3.23214 0.494149 -0.647235 3.24081 0.453606 -0.580212 
3.20212 0.479512 -0.352422 3.17895 0.567407 -0.19792 1.33373 -0.5184 1.31646 
1.28597 -0.553742 1.25937 1.23794 -0.570079 1.21381 1.17225 -0.569275 1.1967 
1.10621 -0.543141 1.19496 1.05756 -0.502417 1.18385 1.01146 -0.447732 1.17837 
0.962787 -0.387895 1.1786 0.935175 -0.292613 1.17801 0.897532 -0.195694 1.18879 
0.849859 -0.0971458 1.21092 0.823782 -0.00750596 1.2054 0.794109 0.0613059 1.19127 
0.760061 0.102555 1.16535 0.732361 0.13406 1.12708 0.715976 0.164534 1.07647 
0.688207 0.18963 1.03448 0.651615 0.210557 0.999148 0.6062 0.227316 0.970489 
0.549401 0.238697 0.950436 0.503911 0.25542 0.921834 0.465878 0.275667 0.887596 
0.429286 0.296594 0.852268 0.394134 0.318202 0.81585 0.366441 0.343333 0.773796 
0.350055 0.373807 0.723193 0.322369 0.398942 0.681133 0.28713 0.426884 0.64856 
0.250439 0.466885 0.624632 0.214932 0.520197 0.607364 0.188248 0.577669 0.583422 
0.180581 0.631391 0.53756 0.174529 0.673114 0.482918 0.158777 0.70381 0.431963 
0.155701 0.739154 0.373636 0.167857 0.779859 0.321108 0.198004 0.817978 0.287538 
0.22822 0.86242 0.257814 0.243013 0.909397 0.209275 0.256684 0.95074 0.155729 
0.279232 0.980722 0.106824 0.291626 1.01651 0.0481175 0.297374 1.0561 -0.0170058 
-0.127423 0.504704 -0.0747216 -0.131992 0.445152 -0.190892 -0.127737 0.389769 -0.313733 
-0.122319 0.360355 -0.422224 -0.11641 0.393568 -0.49112 -0.103373 0.485535 -0.513866 
-0.0718098 0.617166 -0.487313 -0.0256833 0.746745 -0.442778 0.033322 0.856428 -0.393711 
0.0915996 0.935612 -0.365802 0.167153 0.982856 -0.341983 3.07333 0.722049 0.0255953 
3.0142 0.784784 0.0922256 2.96202 0.834049 0.152663 2.9022 0.875615 0.197043 
2.85404 0.897969 0.244782 2.82057 0.899368 0.298841 2.80511 0.890463 0.370295 
2.79076 0.893484 0.45067 2.76631 0.908575 0.525226 2.74538 0.915356 0.599255 
2.72007 0.9058 0.657269 2.69976 0.874628 0.708186 2.67769 0.833401 0.747083 
2.67599 0.783621 0.786255 2.7025 0.746596 0.819312 2.74682 0.711695 0.835008 
2.80527 0.672475 0.815283 2.85643 0.609119 0.749513 2.90802 0.528166 0.66988 
2.96854 0.442194 0.598739 3.01979 0.380367 0.530432 3.06966 0.331902 0.468643 
3.12165 0.2885 0.412824 3.15326 0.263038 0.341258 3.18684 0.24902 0.279446 
3.21764 0.255433 0.226738 3.23125 0.290444 0.169339 3.23537 0.348307 0.1169 
3.23037 0.422375 0.0803833 3.2121 0.497525 0.0560869 3.19409 0.571894 0.0187782 
0.311854 1.1419 -0.315197 0.355683 1.24231 -0.30831 0.396864 1.2941 -0.321343 
0.437873 1.31358 -0.352514 0.477834 1.31475 -0.396384 0.509844 1.32676 -0.444003 
0.27523 1.04649 -0.187345 
LINES 32 571
5 33 34 35 36 32 
16 32 37 38 39 40 41 42 43 44 45 46 47 48 49 50 30 
22 32 51 52 53 54 55 56 57 58 59 60 61 62 63 64 65 66 67 68 69 70 25 
31 31 71 72 73 74 75 76 77 78 79 80 81 82 83 84 85 86 87 88 89 90 91 92 93 94 95 96 97 98 99 17 
49 29 100 101 102 103 104 105 106 107 108 109 110 111 112 113 114 115 116 117 118 119 120 121 122 123 124 125 126 127 128 129 130 131 132 133 134 135 136 137 138 139 140 141 142 143 144 145 146 28 
7 28 147 148 149 150 151 15 
6 28 152 153 154 155 17 
6 24 156 157 158 159 16 
16 27 160 161 162 163 164 165 166 167 168 169 170 171 172 173 23 
34 26 174 175 176 177 178 179 180 181 182 183 184 185 186 187 188 189 190 191 192 193 194 195 196 197 198 199 200 201 202 203 204 205 20 
3 25 206 22 
6 25 207 208 209 210 10 
54 24 211 212 213 214 215 216 217 218 219 220 221 222 223 224 225 226 227 228 229 230 231 232 233 234 235 236 237 238 239 240 241 242 243 244 245 246 247 248 249 250 251 252 253 254 255 256 257 258 259 260 261 262 14 
3 16 263 19 
6 24 264 265 266 267 16 
4 21 268 269 19 
23 20 270 271 272 273 274 275 276 277 278 279 280 281 282 283 284 285 286 287 288 289 290 9 
10 20 291 292 293 294 295 296 297 298 9 
3 19 299 16 
10 15 300 301 302 303 304 305 306 307 7 
22 18 308 309 310 311 312 313 314 315 316 317 318 319 320 321 322 323 324 325 326 327 13 
22 17 328 329 330 331 332 333 334 335 336 337 338 339 340 341 342 343 344 345 346 347 9 
3 15 348 12 
12 12 349 350 351 352 353 354 355 356 357 358 3 
3 12 359 8 
4 10 414 415 4 
45 6 416 417 418 419 420 421 422 423 424 425 426 427 428 429 430 431 432 433 434 435 436 437 438 439 440 441 442 443 444 445 446 447 448 449 450 451 452 453 454 455 456 457 458 0 
13 5 459 460 461 462 463 464 465 466 467 468 469 2 
33 4 470 471 472 473 474 475 476 477 478 479 480 481 482 483 484 485 486 487 488 489 490 491 492 493 494 495 496 497 498 499 500 4 
8 2 501 502 503 504 505 506 1 
3 2 507 0 
57 0 399 398 397 396 395 394 393 392 391 390 389 388 387 386 385 384 383 382 381 380 379 378 377 376 375 374 373 372 371 370 369 368 367 366 365 364 363 362 361 360 11 400 401 402 403 404 405 406 407 408 409 410 411 412 413 10 

POINT_DATA 508
SCALARS DY_raw double
LOOKUP_TABLE default
1038.32 907.709 859.822 1288.53 1168.92 1650.66 2105.46 1759.49 1471.74 
1074 1193.2 977.744 1122.13 1424.17 693.91 1105.93 1621.41 1385.51 
1469.28 1551.38 1205.43 1083.79 1372.72 2540.44 1082.78 1017.29 1858.84 
839.752 923.652 1681.47 1218.55 1338.53 963.984 859.04 858.034 811.714 
889.659 1017.89 955.49 1019.36 1017.46 1106.52 1025.73 1137.94 1264.77 
1155.29 1069.84 1187.04 1113.15 1113.15 1225.68 1100.35 1187.34 1170.19 
1091.66 1091.66 1148.06 976.148 1058.09 940.453 962.559 916.373 898.819 
991.161 1104.43 1104.97 1179.31 1261.12 1137.48 1098.23 1258.45 1338.53 
1069.62 981.322 981.322 971.934 956.364 921.444 960.66 948.306 1070.45 
974.004 1048.46 1412.79 1478.51 1275.71 1167.53 1147.4 1188.07 1211.22 
1110.44 1092.57 1011.46 928.117 891.208 906.62 866.076 878.677 904.944 
1198.24 1529.85 1328.92 1081.77 944.481 1039.97 1104.89 1046.25 1165.71 
1142.83 1126.16 1084.39 1084.39 1025.71 1236.11 1139.97 1259.86 1321.82 
1452.31 1423.21 1453.07 1699.12 1670.27 1891.89 1616.96 1352.45 1495.96 
1318.95 1156.65 1335.4 1411.99 1246.14 1254.49 1071.04 1169.05 985.105 
985.105 1055.98 1079.15 1155.23 1175.04 1074.39 1131.67 979.741 865.152 
889.818 793.264 798.239 923.652 1042.06 1076.56 1075.69 1052.45 1014.73 
1159.93 1435.55 1522.99 1065.17 1117.89 1215.58 1376.4 1003.72 1054.64 
1304.96 1439.46 1439.46 1496.29 1370.32 1370.32 1361.32 1248.47 1248.47 
1468.32 1468.32 1732.49 1545.27 1462.12 1389.63 1361.53 1330.15 1345.76 
1232.42 1120.51 1052.41 1052.41 1041.63 951.997 952.656 994.884 994.884 
1145.2 1233.95 1124.18 1217.86 1038.64 1038.64 992.913 921.387 932.177 
1004.59 1250.39 1171.56 1309.5 1380.63 1149.13 1222.55 1205.18 1184.87 
1079.75 1143.39 1210.1 1275.07 937.437 872.788 886.16 937.885 937.885 
1111.05 1034.22 1100.59 1278.41 1208.58 1207.26 1352.42 1180.41 1299.8 
1433.65 1217.69 1334.27 1486.73 1189.62 1468.31 1318.96 1279.87 1340.89 
1067.11 980.646 1033.77 872.413 866.725 1011.57 946.873 982.497 953.723 
913.239 944.011 971.854 921.272 1058.3 1051.98 1035.34 1066.71 1224.78 
1140.8 1019.43 1019.43 979.015 1198.86 922.835 831.648 831.648 743.513 
686.117 686.117 1495.56 1549.57 2149.48 1964.15 1902.08 1219.26 1404.35 
1362.18 1358.62 1183.22 1065.22 982.007 1025.67 1207.22 1324.56 1522.55 
1674.55 1590.14 1717.6 1943.75 2222.48 1954.2 1886.78 1826.92 1909.78 
1580.04 1435.56 1214.85 1192.75 1237.85 1132.29 988.58 1000.3 1126.52 
1132.28 1044.91 1560.82 1119.32 1194.72 1037.94 1052.14 1084.16 1184.96 
1169.66 1239.31 1308.27 1433.59 1498.11 1463.15 1660.37 1784.2 1711.26 
1712.3 1506.42 1506.42 1368.54 1216.02 1101.99 1020.5 1100.63 944.521 
1044.39 1216.92 1216.92 1424.17 1681.99 1831.77 2022.82 2097.08 2010.66 
1635.1 1494.8 1494.8 1313.72 1313.72 1267.96 1212.21 1374.33 1446.21 
1479.16 1514.71 1489.79 1219.51 1152.13 1054.69 1132.64 1248.94 1224.61 
1003.02 991.18 907.741 898.781 976.705 1130.2 1229.95 1407.82 1316.15 
973.679 1042.61 1220.13 1245.08 1274.58 1598.17 1615.16 1696.04 1792.96 
1681.61 1439.68 1440.7 1322.04 1304.96 1216.56 1216.56 1228.51 1228.51 
1332.25 1492.76 1612.75 1460.66 1484.39 1484.39 1534.7 1503.95 1503.95 
1358 1358 1325.37 1405.72 1405.72 1448.94 1588.53 1324.4 1561.99 
1417.4 1265.14 1201.41 1197.81 936.13 934.315 962.754 1018.57 1072.69 
1072.69 1201.88 1201.88 1244.89 1227.56 1332.5 1231.63 1234.42 1206.82 
1189.46 1011.21 1466.82 1276.81 1171.09 1008.34 1162.36 1056.83 1106.58 
1233.01 1070.81 1035.35 1147.65 1041.7 1119.64 959.664 934.175 934.175 
938.626 1031.47 1031.47 1094.62 1084.35 1084.35 1009.52 1018.17 1018.17 
1042.08 1042.63 1042.63 915.39 1045.41 1008.39 1133.1 1133.1 1131.79 
1182.95 1230.28 1230.28 1306.7 1233.84 1233.84 1177.8 1110.07 1098.48 
1617.7 1310.27 1151.48 1051.98 882.427 868.964 958.359 1019.06 1066.92 
984.667 900.304 1181.21 1221.71 1292.32 1334.97 1368.96 1350.25 1510.64 
1362.26 1369.35 1501.06 1361.41 1361.41 1222.26 1343.82 1343.82 1326.28 
1279.87 1185.34 1301.1 1316.23 1201.49 1355.3 1346.51 1270.32 1104.85 
1063.69 1078.31 1171.53 1218.32 1239.78 1159.51 944.723 1024.65 1116.13 
1143.26 1143.26 1037.18 965.781 
FIELD FieldData 7
DY_minmax 1 508 double
0.189934 0.1195 0.0936751 0.32487 0.260364 0.520158 0.765425 0.57885 0.423671 
0.209176 0.27346 0.157268 0.235133 0.398016 0.00420236 0.226395 0.504383 0.377167 
0.422342 0.466616 0.280057 0.214454 0.370269 1 0.213911 0.178594 0.632428 
0.0828523 0.128097 0.536774 0.287131 0.351834 0.149848 0.0932537 0.0927111 0.0677319 
0.109766 0.178918 0.145267 0.179713 0.178685 0.226712 0.183146 0.243657 0.312057 
0.253014 0.206932 0.270136 0.230289 0.230289 0.290974 0.223386 0.270299 0.26105 
0.218699 0.218699 0.249115 0.156407 0.200598 0.137158 0.149079 0.124172 0.114706 
0.164504 0.225586 0.225877 0.265967 0.310086 0.243411 0.222246 0.308647 0.351834 
0.206814 0.159198 0.159198 0.154135 0.145739 0.126907 0.148055 0.141393 0.207264 
0.155252 0.195407 0.39188 0.427323 0.317954 0.259619 0.24876 0.270693 0.283177 
0.22883 0.219191 0.175452 0.130505 0.110601 0.118913 0.0970479 0.103844 0.118009 
0.276175 0.455009 0.34665 0.213365 0.139331 0.190827 0.225836 0.194211 0.258635 
0.246297 0.237303 0.214781 0.214781 0.183135 0.296601 0.244755 0.309409 0.342819 
0.41319 0.397498 0.413604 0.546294 0.530732 0.650247 0.501984 0.359337 0.436732 
0.341273 0.253747 0.350147 0.391448 0.302006 0.306513 0.207582 0.260433 0.161238 
0.161238 0.199458 0.211954 0.252985 0.263666 0.209386 0.240275 0.158345 0.0965496 
0.109852 0.0577817 0.0604652 0.128097 0.19195 0.210558 0.210086 0.197555 0.177213 
0.255519 0.404155 0.45131 0.204418 0.232845 0.28553 0.372253 0.171278 0.198737 
0.333731 0.40626 0.40626 0.436909 0.368975 0.368975 0.364125 0.303264 0.303264 
0.421826 0.421826 0.564287 0.463326 0.418483 0.37939 0.364238 0.347312 0.355733 
0.29461 0.234257 0.197533 0.197533 0.19172 0.143384 0.143739 0.166511 0.166511 
0.247572 0.295435 0.236239 0.28676 0.190108 0.190108 0.165448 0.126876 0.132695 
0.171748 0.304302 0.261788 0.33618 0.374536 0.249691 0.289287 0.279921 0.268965 
0.212279 0.2466 0.282573 0.317609 0.135532 0.100668 0.107879 0.135773 0.135773 
0.229157 0.187726 0.223519 0.319409 0.281752 0.281042 0.359326 0.266564 0.330948 
0.403129 0.286667 0.349535 0.431754 0.271526 0.421819 0.341279 0.320198 0.353103 
0.205463 0.158833 0.187481 0.100465 0.0973978 0.175512 0.14062 0.159831 0.144314 
0.122482 0.139077 0.154092 0.126814 0.200708 0.197303 0.188331 0.205244 0.290488 
0.245202 0.179751 0.179751 0.157954 0.27651 0.127657 0.0784816 0.0784816 0.0309524 
0 0 0.436514 0.465643 0.789163 0.689218 0.655744 0.287511 0.387327 
0.364585 0.362668 0.268078 0.20444 0.159567 0.183116 0.281022 0.344299 0.451072 
0.533042 0.487522 0.556256 0.678214 0.82853 0.683851 0.647495 0.615211 0.659899 
0.482074 0.404161 0.285135 0.273215 0.297538 0.240613 0.163112 0.169433 0.237501 
0.240609 0.193491 0.471711 0.233619 0.274281 0.189733 0.197386 0.214657 0.269018 
0.260766 0.298326 0.335516 0.403096 0.437892 0.419038 0.525395 0.592173 0.552836 
0.5534 0.442371 0.442371 0.368016 0.285764 0.224273 0.180324 0.223541 0.139352 
0.193207 0.286253 0.286253 0.398016 0.537054 0.617829 0.720855 0.760904 0.7143 
0.511767 0.436109 0.436109 0.338452 0.338452 0.313774 0.283711 0.371139 0.409901 
0.427673 0.446841 0.433403 0.287649 0.25131 0.198764 0.240803 0.303518 0.290396 
0.1709 0.164514 0.119517 0.114685 0.156708 0.239482 0.293276 0.389198 0.339764 
0.155076 0.192251 0.287985 0.301439 0.317344 0.491854 0.501014 0.544631 0.596897 
0.536847 0.406379 0.406932 0.342942 0.333727 0.286055 0.286055 0.292502 0.292502 
0.348448 0.435004 0.499716 0.417698 0.430492 0.430492 0.457624 0.441042 0.441042 
0.362331 0.362331 0.344738 0.388069 0.388069 0.411376 0.486655 0.344214 0.472338 
0.394367 0.312255 0.277889 0.275946 0.134827 0.133848 0.149184 0.179287 0.208473 
0.208473 0.278138 0.278138 0.301333 0.29199 0.348582 0.294183 0.295687 0.280804 
0.271442 0.175314 0.421018 0.318549 0.261537 0.173766 0.256828 0.199919 0.226746 
0.294926 0.207454 0.188333 0.248895 0.191757 0.233791 0.147518 0.133772 0.133772 
0.136173 0.186241 0.186241 0.220298 0.21476 0.21476 0.174404 0.179067 0.179067 
0.191961 0.192259 0.192259 0.123642 0.193759 0.173798 0.24105 0.24105 0.24034 
0.267931 0.293457 0.293457 0.33467 0.295375 0.295375 0.265157 0.228631 0.222376 
0.502382 0.336593 0.250963 0.197302 0.105866 0.0986054 0.146814 0.179552 0.205357 
0.161002 0.115507 0.266992 0.288836 0.326915 0.349911 0.368243 0.358154 0.444649 
0.364632 0.368456 0.43948 0.36417 0.36417 0.289131 0.354685 0.354685 0.345227 
0.3202 0.269221 0.331647 0.339808 0.277928 0.360875 0.356137 0.315051 0.225814 
0.203618 0.2115 0.261774 0.287008 0.298579 0.255292 0.139461 0.182565 0.231898 
0.246527 0.246527 0.189324 0.150817 
WidthEq 1 508 double
2.95759 1.47931 3.23956 2.61667 2.93996 1.23135 1 2.48934 2.22999 
3.74963 3.31569 4.17678 3.23763 1.65091 2.72752 3.48432 2.45775 3.53646 
2.53292 2.20909 4.05267 2.80174 2.95171 1.22239 3.90975 3.41417 1.31099 
2.59867 5.01054 1.73424 2.96776 2.40128 3.38418 1.83901 1.8552 3.17231 
3.48693 3.3035 3.24134 3.03112 2.94802 2.62499 2.84433 2.8305 2.58589 
2.99266 3.39177 3.13994 3.52083 3.52083 3.26913 3.22588 3.04036 2.89194 
2.76338 2.76338 2.73165 3.1928 3.0723 3.47766 3.59619 3.54472 3.72053 
3.58102 3.53841 3.21274 2.95866 2.86562 2.55636 2.65803 2.71639 2.40128 
3.07925 3.1939 3.1939 3.14245 3.13593 3.14573 3.17636 3.15021 3.16127 
3.11497 2.97631 2.74184 2.61439 2.76089 2.70054 2.77939 2.59446 2.79076 
3.23657 3.08583 3.69828 3.61954 3.62226 3.79354 3.65121 3.32036 3.5019 
3.68776 2.17171 2.78053 3.20926 3.3722 3.23144 3.05843 3.00235 2.8055 
3.14382 3.29363 3.29473 3.29473 3.34358 2.72837 2.91085 2.56543 2.4185 
2.2914 2.42027 2.46865 2.17187 2.40395 2.14298 2.57701 2.95265 2.75365 
2.96207 3.20469 2.88671 2.66189 2.91603 2.82293 3.10874 3.04473 3.31949 
3.31949 3.30573 3.3512 3.29255 3.21218 3.34989 3.49663 3.98808 4.57832 
4.6195 4.88819 4.95986 5.01054 4.56348 4.41158 4.30486 3.9393 4.86387 
4.04134 3.34279 3.21758 4.15839 4.01367 3.65727 3.10606 3.17638 3.15276 
2.90012 2.68593 2.68593 2.5174 2.60926 2.60926 2.66121 2.85425 2.85425 
2.56273 2.56273 2.16594 2.1776 2.43762 2.44339 2.43957 2.47566 2.34563 
2.46178 2.65147 2.89794 2.89794 3.2418 3.42498 3.58766 3.55248 3.55248 
3.1407 2.86988 2.96738 2.67511 2.86527 2.86527 2.75023 2.67873 2.64736 
2.65629 2.48676 2.5977 2.5647 2.65963 3.15789 3.4732 3.81581 3.36504 
3.33895 3.00092 2.85989 3.0266 4.3411 4.4171 4.20895 3.68379 3.68379 
3.11136 3.14955 2.96284 2.43978 2.56709 2.36753 2.0801 2.16627 2.17416 
2.068 2.11492 2.13016 1.9631 2.11978 1.86275 2.07495 2.16862 2.13277 
2.53919 2.72708 2.64525 3.12435 3.12371 3.01134 3.00978 2.97745 2.98313 
2.83198 2.86485 2.67663 2.62402 2.34491 2.35582 2.5153 2.5922 2.29209 
2.46786 2.62781 2.62781 2.62287 2.41342 2.88432 3.06067 3.06067 3.18869 
3.04071 3.04071 2.66036 2.74751 1.8245 1.95773 1.97356 2.62509 2.59253 
3.49173 3.37181 3.53857 3.64895 3.95547 4.13724 3.8153 3.48038 2.95352 
2.44932 2.52439 2.27127 1.89503 1.61303 1.8223 1.90225 2.04467 1.9173 
2.58141 2.96259 3.381 4.34728 4.0432 3.79616 3.62039 3.68925 3.23097 
3.21021 3.62549 2.32635 3.34126 3.14187 3.35784 3.46134 3.41155 3.54625 
3.76513 3.55051 2.9067 2.8404 2.62848 2.51364 2.06783 2.03188 1.87647 
1.79875 1.9026 1.9026 2.09996 2.36954 2.6297 2.83424 2.72673 2.94598 
2.80716 2.33934 2.33934 1.65091 2.79265 2.24418 1.84418 1.69167 1.78382 
2.03568 2.17484 2.17484 2.36608 2.36608 2.33395 2.34202 2.26197 2.23086 
2.37513 2.35211 2.40968 2.75672 3.22644 3.58396 3.14753 3.11391 3.1141 
3.14446 3.19147 3.29371 3.16156 3.39779 3.16823 3.01047 2.54913 2.62933 
3.85324 3.31496 2.71517 2.52273 2.34852 1.80852 1.88861 1.71581 1.54689 
1.78824 2.08711 2.02879 2.22241 2.19448 2.28522 2.28522 2.35012 2.35012 
2.36431 2.26228 2.16473 2.19315 2.09913 2.09913 1.95993 1.90412 1.90412 
1.89156 1.89156 1.80113 1.56229 1.56229 1.48498 1.36028 1.52472 1.48448 
1.83478 2.11824 2.61588 2.66833 4.37219 4.38094 4.20781 4.41874 4.1409 
4.1409 3.59486 3.59486 3.39034 3.25791 3.04652 3.35315 3.40875 3.44775 
3.09037 3.16789 1.7976 2.3057 2.42363 2.69659 2.5564 2.65868 2.44804 
2.31543 2.44853 2.52925 2.41367 2.54436 2.36674 2.52875 2.51833 2.51833 
2.49953 2.3509 2.3509 2.26129 2.17576 2.17576 2.17856 2.14174 2.14174 
2.05085 2.02483 2.02483 2.05102 1.96354 1.83399 1.77208 1.77208 1.83978 
1.8443 1.84611 1.84611 1.84708 1.96244 1.96244 2.23958 2.55301 2.62146 
1.86439 2.64612 2.99287 3.62852 4.15044 3.98526 3.77704 2.99731 2.66895 
2.7791 3.05696 2.79512 2.72111 2.61152 2.61424 2.46528 2.30825 2.25659 
1.99675 1.96783 1.90586 2.04911 2.04911 2.26274 2.15209 2.15209 2.18202 
2.34422 2.46977 2.22986 2.44355 2.52022 2.54625 2.7709 2.79416 3.01362 
3.01952 2.9981 2.73825 2.59926 2.63086 2.78196 3.11279 2.88887 2.61874 
2.14716 2.14716 1.8541 3.1636 
rRFP 1 508 double
3670.21 2957.95 3806.07 3505.95 3661.72 2838.48 2727.01 3444.6 3319.64 
4051.83 3842.75 4257.64 3805.14 3040.63 3559.36 3924 3429.38 3949.12 
3465.6 3309.57 4197.84 3595.12 3667.38 2834.16 4128.98 3890.2 2876.85 
3497.28 4659.36 3080.78 3675.11 3402.17 3875.75 3131.26 3139.06 3773.67 
3925.26 3836.88 3806.93 3705.64 3665.6 3509.96 3615.64 3608.98 3491.12 
3687.11 3879.41 3758.07 3941.59 3941.59 3820.32 3799.48 3710.09 3638.58 
3576.64 3576.64 3561.35 3783.54 3725.48 3920.79 3977.9 3953.1 4037.81 
3970.59 3950.06 3793.15 3670.73 3625.9 3476.89 3525.88 3554 3402.17 
3728.83 3784.07 3784.07 3759.28 3756.14 3760.86 3775.62 3763.02 3768.35 
3746.04 3679.23 3566.26 3504.85 3575.44 3546.36 3584.35 3495.25 3589.83 
3804.63 3732 4027.09 3989.15 3990.46 4072.99 4004.41 3845 3932.47 
4022.02 3291.56 3584.9 3791.47 3869.98 3802.16 3718.8 3691.78 3596.93 
3759.94 3832.12 3832.65 3832.65 3856.19 3559.77 3647.69 3481.26 3410.47 
3349.23 3411.32 3434.63 3291.64 3403.46 3277.72 3486.84 3667.83 3571.95 
3672.37 3789.27 3636.06 3527.74 3650.19 3605.33 3743.04 3712.2 3844.58 
3844.58 3837.95 3859.86 3831.6 3792.88 3859.23 3929.93 4166.72 4451.11 
4470.95 4600.41 4634.94 4659.36 4443.96 4370.77 4319.35 4143.22 4588.69 