# vtk DataFile Version 3.0
vtk output
ASCII
DATASET POLYDATA
POINTS 530 float
0.952092 -0.315342 1.14963 5.41265 -0.288605 0.990421 0.691758 0.882536 0.764096 
2.88535 1.03123 0.686413 6.60414 -0.571175 0.346192 4.55408 -0.230999 0.220832 
6.34602 -0.66078 0.154877 -0.547735 -0.168648 -0.163684 2.71204 -0.795473 0.0839454 
6.95419 -0.0658062 -0.224387 2.84197 1.25434 -0.111546 4.32786 -0.353806 -0.171903 
4.51091 -0.617022 -0.179633 6.96899 -0.879262 -0.428728 4.08653 -0.148276 -0.362482 
0.727503 -1.0912 -0.446893 5.21202 0.923042 -0.798094 7.13503 0.156863 -0.870253 
0.0403212 -0.914509 -0.821806 3.11355 0.892434 -0.923404 6.66458 0.0589023 -1.15409 
-0.146162 -0.705261 -1.01433 5.12142 0.423554 -1.19738 5.40006 0.642785 -1.28139 
4.46361 0.270103 -1.37471 5.63405 -0.0350438 -1.61802 5.88011 -1.23111 -1.63223 
6.29879 0.72664 -1.63832 6.49742 -0.582893 -1.65134 6.63895 0.584323 -1.65112 
5.33789 0.166769 -1.80666 6.47841 0.409455 -1.8463 0.460368 0.49903 -1.83106 
5.91621 -0.343889 -2.02976 5.92658 0.318312 -2.02713 5.87832 0.273088 -1.92185 
5.83072 0.241309 -1.82393 5.7941 0.194981 -1.72647 5.77328 0.13971 -1.62962 
5.7364 0.0817324 -1.56185 5.68719 0.023272 -1.56036 5.97771 0.376903 -2.02869 
6.02859 0.435418 -2.03766 6.07932 0.492151 -2.05404 6.13073 0.538916 -2.07049 
6.18437 0.570381 -2.05002 6.23718 0.616573 -1.97017 6.27991 0.671631 -1.82321 
5.98948 0.268621 -1.90359 6.05092 0.228998 -1.8022 6.10989 0.206484 -1.7377 
6.16788 0.179088 -1.71024 6.22486 0.158844 -1.69755 6.28245 0.133417 -1.67749 
6.34009 0.122962 -1.62771 6.39877 0.112483 -1.54831 6.45933 0.0885502 -1.44311 
6.52002 0.0789236 -1.33413 6.58594 0.0738072 -1.23646 5.86175 -0.402037 -2.12444 
5.81016 -0.460196 -2.18956 5.76985 -0.517848 -2.21804 5.74582 -0.574601 -2.21743 
5.7093 -0.632356 -2.19416 5.67357 -0.690212 -2.14867 5.65139 -0.7472 -2.09625 
5.61399 -0.80522 -2.04329 5.56636 -0.863772 -1.99738 5.51732 -0.920698 -1.93659 
5.46803 -0.967731 -1.86092 5.4185 -0.999531 -1.76294 5.36974 -1.0428 -1.66503 
5.32029 -1.07589 -1.56706 5.26814 -1.07676 -1.48366 5.21629 -1.08596 -1.40773 
5.16256 -1.07112 -1.33903 5.10835 -1.05313 -1.27771 5.0534 -1.02814 -1.22375 
4.99947 -1.01806 -1.1699 4.94621 -1.00635 -1.09383 4.89217 -0.971497 -0.995375 
4.83813 -0.93664 -0.896924 4.78487 -0.924829 -0.82085 4.7308 -0.912808 -0.766981 
4.6753 -0.875748 -0.705532 4.61954 -0.826962 -0.629192 4.56465 -0.776337 -0.530649 
4.51388 -0.725373 -0.424828 4.48719 -0.67288 -0.30505 5.87254 -0.29193 -1.99832 
5.84295 -0.239171 -1.94514 5.79893 -0.187545 -1.8692 5.74548 -0.13666 -1.77813 
5.68995 -0.0858649 -1.69437 5.97476 -0.340751 -1.92807 6.0329 -0.339361 -1.84119 
6.0912 -0.347981 -1.76919 6.15011 -0.373475 -1.71211 6.20815 -0.393854 -1.66981 
6.26587 -0.421216 -1.64976 6.32273 -0.443462 -1.64447 6.38046 -0.482616 -1.64671 
6.43888 -0.531847 -1.64902 0.518638 0.502422 -1.73676 0.575463 0.507796 -1.67947 
0.629763 0.523383 -1.67393 0.68145 0.554376 -1.71269 0.733505 0.572156 -1.76637 
0.785553 0.590036 -1.82003 0.837109 0.622974 -1.85878 0.889285 0.65061 -1.89016 
0.941905 0.683304 -1.89931 0.996199 0.698991 -1.89376 1.05169 0.704643 -1.87349 
1.10719 0.710295 -1.85321 1.16202 0.725805 -1.83286 1.21583 0.756439 -1.81241 
1.27012 0.772125 -1.80686 1.3247 0.779694 -1.80878 1.37847 0.795447 -1.81804 
1.43175 0.826149 -1.81239 1.48604 0.841835 -1.80685 1.54115 0.849337 -1.79396 
1.59597 0.864955 -1.7736 1.6503 0.895623 -1.73835 1.70553 0.913001 -1.70318 
1.76023 0.930446 -1.68282 1.8135 0.961237 -1.67717 1.86754 0.976857 -1.67903 
1.92224 0.98261 -1.68096 1.97694 0.988363 -1.68289 2.03098 1.00397 -1.68475 
2.08426 1.03467 -1.6791 2.13882 1.05022 -1.66616 2.19433 1.05576 -1.64588 
2.24943 1.05944 -1.64042 2.30414 1.06127 -1.64978 2.35899 1.05308 -1.67401 
2.41552 1.02789 -1.68356 2.47251 1.00765 -1.67085 2.53102 0.980294 -1.6286 
2.58932 0.959882 -1.57888 2.64771 0.934345 -1.53661 2.70455 0.924001 -1.50904 
2.76139 0.913656 -1.48147 2.81978 0.888119 -1.4392 2.87834 0.867784 -1.38209 
2.93777 0.842332 -1.3102 2.99672 0.835646 -1.21598 3.05552 0.850653 -1.08459 
6.53086 0.467878 -1.81085 6.58438 0.526168 -1.74579 5.39788 0.129139 -1.74226 
5.45671 0.104832 -1.68517 5.51604 0.0653677 -1.643 5.57525 0.0160364 -1.62311 
6.62034 0.637871 -1.62056 6.57708 0.687761 -1.58173 6.52283 0.72496 -1.54256 
6.46769 0.73511 -1.52572 6.41218 0.733495 -1.53857 6.35575 0.730089 -1.58104 
6.69989 0.546552 -1.5571 6.7571 0.522032 -1.48514 6.80085 0.48146 -1.435 
6.80847 0.428374 -1.37622 6.78782 0.371446 -1.30161 6.7691 0.314435 -1.21226 
6.73445 0.256423 -1.14087 6.69955 0.197652 -1.10282 6.68261 0.13451 -1.11362 
6.24383 0.775215 -1.53978 6.1886 0.812142 -1.47093 6.13388 0.822219 -1.43928 
6.07916 0.820503 -1.42992 6.02432 0.816895 -1.42798 5.96948 0.813178 -1.42604 
5.91464 0.809461 -1.42409 5.86007 0.8056 -1.41475 5.80615 0.799857 -1.39061 
5.75371 0.783936 -1.34434 5.70294 0.751007 -1.28338 5.65156 0.723198 -1.22515 
5.59634 0.689437 -1.19739 5.51931 0.66712 -1.21975 5.93519 -1.26599 -1.70107 
5.99017 -1.276 -1.72531 6.0462 -1.27436 -1.69766 6.10304 -1.26908 -1.64036 
6.15945 -1.25377 -1.5756 6.21458 -1.22331 -1.51813 6.2702 -1.20779 -1.47558 
6.32556 -1.20021 -1.45529 6.37973 -1.18259 -1.44973 6.43194 -1.13997 -1.4514 
6.48414 -1.09724 -1.45307 6.53818 -1.0778 -1.4475 6.59288 -1.06025 -1.42714 
6.64774 -1.02965 -1.37707 6.70468 -1.01441 -1.29751 6.76396 -1.0091 -1.17211 
6.82587 -1.00157 -0.990466 6.89338 -0.968233 -0.734779 5.29261 0.595406 -1.33058 
5.22169 0.54076 -1.34033 5.16943 0.482529 -1.29056 4.51595 0.326414 -1.34667 
4.56962 0.370767 -1.30392 4.6255 0.386252 -1.25395 4.68259 0.379911 -1.21155 
4.74004 0.35662 -1.19147 4.79595 0.348411 -1.18609 4.85064 0.350336 -1.19545 
4.90457 0.35598 -1.21959 4.95728 0.371758 -1.25846 5.0095 0.402593 -1.28242 
5.06433 0.418103 -1.26208 6.69612 0.00393478 -1.37412 6.73897 -0.0127376 -1.55733 
6.78825 -0.0116487 -1.6925 6.8404 -0.00955813 -1.77218 6.89511 -0.0156076 -1.7964 
6.95269 -0.0251949 -1.74662 7.0098 0.00691997 -1.62991 7.06714 0.0588854 -1.46125 
7.12105 0.10486 -1.27025 7.15028 0.13447 -1.07103 5.38117 0.522273 -1.17841 
5.34279 0.443486 -1.1005 5.29339 0.395566 -1.0656 5.23874 0.379869 -1.08317 
5.18126 0.388168 -1.13296 5.36932 0.748186 -1.08061 5.32351 0.818261 -0.927632 
5.26908 0.871911 -0.8402 -0.208411 -0.653636 -1.11564 -0.27002 -0.60207 -1.20215 
-0.329286 -0.550448 -1.27393 -0.377689 -0.498244 -1.32385 -0.407737 -0.445054 -1.33735 
-0.438728 -0.392389 -1.28412 -0.451682 -0.339037 -1.14876 -0.463244 -0.285643 -0.913395 
-0.498563 -0.230632 -0.574625 -0.143933 -0.665366 -0.814097 -0.15245 -0.641494 -0.613555 
-0.188465 -0.615986 -0.419438 -0.236136 -0.606298 -0.247211 -0.287442 -0.594714 -0.119314 
-0.342301 -0.557714 -0.043069 -0.397727 -0.508596 -0.0112177 -0.444263 -0.456494 -0.00807871 
-0.475325 -0.398533 -0.0314129 -0.514622 -0.313272 -0.0852191 -0.0862134 -0.756992 -0.92034 
-0.0371727 -0.809255 -0.855626 -0.00467023 -0.862382 -0.827378 6.74937 0.0275902 -0.9297 
6.82223 -0.0151638 -0.707911 6.8892 -0.0524711 -0.474759 3.11355 0.946839 -0.81939 
3.11291 1.0013 -0.730173 3.10981 1.0557 -0.655688 3.09456 1.10933 -0.588198 
3.05233 1.16102 -0.519742 2.9986 1.20994 -0.443483 2.94427 1.24678 -0.352428 
2.89246 1.25649 -0.239351 3.17344 0.854797 -0.859 3.23034 0.83036 -0.801845 
3.27779 0.790089 -0.759253 3.31 0.738928 -0.738401 3.3568 0.687034 -0.732893 
3.41176 0.635584 -0.727674 3.459 0.583507 -0.707363 3.4902 0.530188 -0.66425 
3.52672 0.477179 -0.613901 3.55589 0.423723 -0.570716 3.58969 0.370683 -0.542515 
3.60849 0.316627 -0.513781 3.62979 0.262585 -0.462903 3.67475 0.210045 -0.398034 
3.71795 0.157335 -0.325698 3.7234 0.102219 -0.274258 3.68992 0.0445159 -0.228845 
3.64391 -0.0139333 -0.197817 3.60583 -0.0718455 -0.167069 3.58222 -0.128563 -0.151663 
3.54309 -0.184347 -0.143103 3.49295 -0.228979 -0.141514 3.4393 -0.248663 -0.139687 
3.3858 -0.268277 -0.13045 3.33439 -0.311215 -0.106573 3.2839 -0.356069 -0.0605042 
3.23279 -0.387777 -0.0069285 3.18244 -0.434676 0.0391266 3.13197 -0.491442 0.062907 
3.08109 -0.549957 0.071874 3.02995 -0.608438 0.0734361 2.97869 -0.665104 0.0750107 
2.92674 -0.711693 0.0766553 2.87365 -0.74124 0.0784181 2.82077 -0.774001 0.0801587 
2.76674 -0.789721 0.0820174 7.13936 0.132996 -0.670387 7.13631 0.114314 -0.483571 
7.10066 0.0920967 -0.335643 7.04066 0.0322992 -0.253719 0.782607 -1.08752 -0.44143 
0.838247 -1.08401 -0.421168 0.894804 -1.08242 -0.378712 0.952299 -1.09084 -0.32891 
1.01028 -1.1143 -0.294033 1.06594 -1.12259 -0.296059 1.11971 -1.12255 -0.335034 
1.17325 -1.13057 -0.396281 1.22754 -1.15367 -0.465038 1.28093 -1.16348 -0.533703 
1.33459 -1.17332 -0.594962 1.38968 -1.19652 -0.641504 1.44453 -1.20459 -0.665734 
1.49923 -1.20277 -0.675095 1.55408 -1.19916 -0.677038 1.60892 -1.19544 -0.67898 
1.66376 -1.19173 -0.680922 1.7186 -1.18801 -0.682864 1.77344 -1.18429 -0.684806 
1.82828 -1.18057 -0.686748 1.88312 -1.17686 -0.68869 1.93796 -1.17314 -0.690632 
1.99279 -1.16931 -0.692573 2.0475 -1.16367 -0.694502 2.10154 -1.14806 -0.696362 
2.15481 -1.11726 -0.69071 2.20951 -1.09981 -0.670351 2.26527 -1.0825 -0.620381 
2.32092 -1.052 -0.548102 2.37813 -1.03679 -0.46114 2.43548 -1.03138 -0.389035 
2.49229 -1.02578 -0.331741 2.54766 -1.00835 -0.289171 2.59993 -0.964081 -0.231539 
2.64222 -0.908699 -0.151267 2.67023 -0.852558 -0.040831 7.04718 -0.905455 -0.367898 
7.08116 -0.882522 -0.331944 7.04458 -0.859219 -0.352766 4.14852 -0.199868 -0.268567 
4.20944 -0.251326 -0.204273 4.26905 -0.302616 -0.176985 -0.643754 -0.0543204 -0.2425 
-0.701931 0.0205022 -0.310499 -0.709435 0.0788693 -0.359388 -0.677492 0.136554 -0.391148 
-0.643379 0.194197 -0.421755 -0.632818 0.250346 -0.466347 -0.622412 0.306537 -0.518358 
-0.586685 0.364392 -0.563841 -0.538378 0.422946 -0.587536 -0.487883 0.481596 -0.603904 
-0.437271 0.540144 -0.620266 -0.3868 0.59691 -0.644046 -0.335128 0.643642 -0.653095 
-0.281898 0.675082 -0.64744 -0.22903 0.719635 -0.626892 -0.176568 0.762439 -0.621157 
-0.123321 0.781977 -0.637801 -0.0710152 0.799933 -0.684056 -0.0199962 0.833038 -0.737623 
0.0315203 0.862677 -0.783797 0.0828092 0.907331 -0.807662 0.134742 0.950202 -0.816738 
0.188518 0.969673 -0.81857 0.24241 0.987428 -0.820415 0.295287 1.0202 -0.822156 
0.348778 1.04778 -0.816527 0.402326 1.08226 -0.796049 0.457131 1.10978 -0.753413 
0.511737 1.14414 -0.703314 0.566542 1.17166 -0.660679 0.620355 1.20611 -0.632796 
0.674374 1.23362 -0.612366 0.72831 1.26626 -0.584496 0.783266 1.28377 -0.556731 
0.838494 1.30115 -0.521561 0.892561 1.33185 -0.493704 0.947647 1.34743 -0.465952 
1.00276 1.35493 -0.453067 1.05704 1.37073 -0.44752 1.10993 1.40339 -0.449261 
1.16315 1.431 -0.451037 1.21591 1.46559 -0.452765 1.26913 1.4932 -0.454541 
1.32202 1.52586 -0.456283 1.37605 1.54158 -0.458141 1.43049 1.54737 -0.467475 
1.48467 1.55308 -0.484204 1.53804 1.56686 -0.508282 1.59159 1.58573 -0.517525 
1.64746 1.57433 -0.519572 1.70323 1.56805 -0.514178 1.75793 1.56998 -0.523538 
1.81279 1.57348 -0.525481 1.86802 1.57524 -0.520031 1.92446 1.56696 -0.49985 
1.98165 1.5436 -0.487179 2.03729 1.53542 -0.489204 2.09148 1.5372 -0.513366 
2.14513 1.53905 -0.552338 2.19972 1.53101 -0.583973 2.25638 1.50771 -0.586103 
2.31309 1.49929 -0.558518 2.36952 1.49888 -0.523471 2.4261 1.48846 -0.503305 
2.48396 1.45131 -0.498125 2.54223 1.40422 -0.50042 2.6001 1.36697 -0.495241 
2.65708 1.35458 -0.467683 2.71564 1.34199 -0.395714 2.77775 1.30409 -0.272092 
7.004 -0.752619 -0.255962 7.04021 -0.670875 -0.136809 7.0629 -0.610843 -0.0913871 
7.08784 -0.553775 -0.100916 7.09455 -0.497887 -0.145371 7.09091 -0.442649 -0.196885 
7.08573 -0.387566 -0.240919 7.08112 -0.3326 -0.26274 7.07516 -0.277728 -0.268213 
7.05761 -0.221789 -0.261399 7.01253 -0.155921 -0.246151 6.89819 -0.798825 -0.274627 
6.83858 -0.739558 -0.129917 6.78469 -0.699295 0.00709756 6.73163 -0.675001 0.133623 
6.67294 -0.631943 0.247097 4.4545 -0.56572 -0.177386 4.40978 -0.513627 -0.175552 
4.39011 -0.459836 -0.174606 4.37055 -0.406037 -0.173664 4.56761 -0.574864 -0.0554559 
4.62561 -0.555929 0.0611446 4.68321 -0.538643 0.162943 4.73979 -0.506342 0.264835 
4.79646 -0.479275 0.359296 4.85277 -0.44694 0.453783 4.90932 -0.42963 0.525969 
4.96534 -0.412353 0.583345 5.01993 -0.381619 0.626003 5.07568 -0.364308 0.675973 
5.13144 -0.346997 0.725954 5.18603 -0.316363 0.768611 5.24113 -0.300887 0.796362 
5.29716 -0.295412 0.83145 5.35437 -0.291887 0.896125 4.38575 -0.30988 -0.0107062 
4.44335 -0.281011 0.113379 4.49886 -0.248486 0.185661 2.84103 1.19777 0.088361 
2.83667 1.14096 0.288389 2.86272 1.08621 0.48734 6.90543 -0.033844 0.017655 
6.85699 -0.0383723 0.198741 6.80814 -0.0795071 0.298143 6.75743 -0.124214 0.335325 
6.70677 -0.155583 0.344408 6.66865 -0.201344 0.345562 6.65637 -0.255367 0.345756 
6.64614 -0.311075 0.345869 6.62272 -0.367858 0.346449 6.61395 -0.424941 0.346504 
6.61174 -0.489476 0.34629 2.66038 -0.760918 0.249013 2.60897 -0.749451 0.376913 
2.5561 -0.739599 0.460379 2.50128 -0.716434 0.514325 2.44749 -0.708493 0.568166 
2.39437 -0.710519 0.621948 2.34111 -0.714328 0.668302 2.28706 -0.718146 0.69245 
2.23248 -0.721897 0.701797 2.1779 -0.725538 0.711145 2.12373 -0.72743 0.735306 
2.06967 -0.719456 0.781742 2.01486 -0.69639 0.835698 1.96079 -0.688306 0.882135 
1.90674 -0.688197 0.913715 1.85202 -0.67811 0.945365 1.79613 -0.643018 0.991989 
1.74038 -0.606135 1.04604 1.68513 -0.584298 1.08517 1.62858 -0.558896 1.09472 
1.57227 -0.548619 1.08196 1.51623 -0.538375 1.07659 1.45969 -0.512973 1.08614 
1.40416 -0.490994 1.11787 1.34749 -0.452084 1.14971 1.29027 -0.405022 1.18162 
1.23293 -0.367837 1.19125 1.17675 -0.355657 1.18589 1.12018 -0.345336 1.16573 
1.06298 -0.321879 1.15306 1.00707 -0.31366 1.14768 -0.445464 -0.0455444 0.113652 
-0.371296 0.0222931 0.322557 -0.31067 0.0429103 0.448968 -0.25325 0.048522 0.519829 
-0.196831 0.0521482 0.562299 -0.141205 0.0558745 0.582563 -0.0859741 0.0615605 0.595446 
-0.0312746 0.0790052 0.615805 0.0225246 0.121422 0.658544 0.0765803 0.163915 0.708699 
0.131935 0.183295 0.751279 0.18649 0.202885 0.771653 0.238829 0.247504 0.7774 
0.29023 0.302135 0.775811 0.34244 0.34869 0.781572 0.396191 0.380162 0.802029 
0.449341 0.426686 0.837405 0.500002 0.483053 0.872904 0.540041 0.540628 0.893979 
0.564712 0.597322 0.908174 0.604116 0.655066 0.914443 0.65129 0.713389 0.913022 
0.687338 0.771163 0.882347 0.6957 0.827215 0.830418 6.40198 -0.657052 0.182544 
6.45958 -0.65073 0.224984 6.5245 -0.628219 0.282065 
LINES 38 610
8 34 35 36 37 38 39 40 25 
9 34 41 42 43 44 45 46 47 27 
13 34 48 49 50 51 52 53 54 55 56 57 58 20 
32 33 59 60 61 62 63 64 65 66 67 68 69 70 71 72 73 74 75 76 77 78 79 80 81 82 83 84 85 86 87 88 12 
7 33 89 90 91 92 93 25 
11 33 94 95 96 97 98 99 100 101 102 28 
49 32 103 104 105 106 107 108 109 110 111 112 113 114 115 116 117 118 119 120 121 122 123 124 125 126 127 128 129 130 131 132 133 134 135 136 137 138 139 140 141 142 143 144 145 146 147 148 149 19 
4 31 150 151 29 
6 30 152 153 154 155 25 
8 29 156 157 158 159 160 161 27 
11 29 162 163 164 165 166 167 168 169 170 20 
16 27 171 172 173 174 175 176 177 178 179 180 181 182 183 184 23 
20 26 185 186 187 188 189 190 191 192 193 194 195 196 197 198 199 200 201 202 13 
5 23 203 204 205 22 
13 24 206 207 208 209 210 211 212 213 214 215 216 22 
7 23 227 228 229 230 231 22 
5 23 232 233 234 16 
11 21 235 236 237 238 239 240 241 242 243 7 
12 21 244 245 246 247 248 249 250 251 252 253 7 
5 21 254 255 256 18 
5 20 257 258 259 9 
10 19 260 261 262 263 264 265 266 267 10 
38 19 268 269 270 271 272 273 274 275 276 277 278 279 280 281 282 283 284 285 286 287 288 289 290 291 292 293 294 295 296 297 298 299 300 301 302 303 8 
38 15 308 309 310 311 312 313 314 315 316 317 318 319 320 321 322 323 324 325 326 327 328 329 330 331 332 333 334 335 336 337 338 339 340 341 342 343 8 
5 13 344 345 346 13 
5 14 347 348 349 11 
72 7 350 351 352 353 354 355 356 357 358 359 360 361 362 363 364 365 366 367 368 369 370 371 372 373 374 375 376 377 378 379 380 381 382 383 384 385 386 387 388 389 390 391 392 393 394 395 396 397 398 399 400 401 402 403 404 405 406 407 408 409 410 411 412 413 414 415 416 417 418 419 10 
13 13 420 421 422 423 424 425 426 427 428 429 430 9 
7 13 431 432 433 434 435 4 
6 12 436 437 438 439 11 
17 12 440 441 442 443 444 445 446 447 448 449 450 451 452 453 454 1 
5 11 455 456 457 5 
5 10 458 459 460 3 
13 9 461 462 463 464 465 466 467 468 469 470 471 4 
33 8 472 473 474 475 476 477 478 479 480 481 482 483 484 485 486 487 488 489 490 491 492 493 494 495 496 497 498 499 500 501 502 0 
26 7 503 504 505 506 507 508 509 510 511 512 513 514 515 516 517 518 519 520 521 522 523 524 525 526 2 
5 6 527 528 529 4 
17 20 217 218 219 220 221 222 223 224 225 226 17 304 305 306 307 9 

POINT_DATA 530
SCALARS DY_raw double
LOOKUP_TABLE default
1465.81 1009.87 1190.64 1056.54 939.874 883.852 1042.8 861.221 929.348 
1015.87 903.724 756.756 768.931 850.861 1064.33 1290.98 1088.25 818.693 
851.427 1039.48 861.485 788.158 1217.94 692.25 870.358 802.977 815.82 
865.807 911.233 817.076 998.43 755.741 1240.39 776.51 792.233 778.102 
765.004 800.637 901.87 839.677 809.09 753.75 806.563 832.598 788.756 
805.234 831.588 850.287 773.913 803.951 791.572 829.742 814.498 833.906 
846.294 936.105 962.613 927.653 845.801 705.835 742.043 747.728 829.952 
848.615 820.678 940.329 895.521 1016.6 953.299 852.022 819.649 753.956 
707.487 694.672 741.701 741.114 800.859 789.009 770.887 785.364 781.248 
750.784 784.201 832.667 849.866 763.855 784.671 689.892 716.867 839.317 
961.773 979.126 859.694 808.129 732.537 774.251 796.406 819.65 805.892 
835.369 827.237 903.691 911.233 1474.17 1246.48 1236.06 1193.24 1288.4 
1240.64 1178.05 1288.46 1288.46 1216.69 1064.2 1241.29 1110.05 937.73 
1028.99 1051.23 987.36 1042.18 1011.44 1054.16 1054.16 945.985 1004.15 
1022.57 945.062 945.062 949.336 941.668 941.668 913.323 943.149 943.149 
885.813 885.813 886.99 921.602 949.2 1010.28 1017.98 1017.98 960.413 
900.866 945.822 809.648 840.002 902.324 939.771 699.617 762.973 878.222 
899.389 792.728 770.891 808.621 837.045 864.091 880.219 908.387 863.532 
882.076 843.841 780.249 798.626 849.445 935.744 920.66 972.438 981.886 
870.234 856.678 856.678 889.58 921.484 921.484 926.326 822.252 794.904 
873.001 932.285 797.94 769.07 683.188 788.544 700.582 679.16 680.774 
699.26 750.372 752.218 855.937 890.206 894.206 830.776 830.776 843.972 
722.271 771.533 784.082 761.706 869.543 766.282 858.449 916.329 906.038 
879.143 868.261 920.707 870.067 883.687 883.687 952.197 894.878 945.731 
945.731 717.086 776.323 731.013 652.49 635.351 571.362 740.073 808.304 
766.534 735.191 899.388 1130.27 1262.89 1166.29 1141.52 833.467 875.881 
936.77 772.967 774.476 691.562 718.181 772.352 828.483 908.093 986.953 
895.37 974.222 950.305 835.66 811.422 870.872 930.27 868.147 852.578 
860.158 801.098 838.57 828.54 829.541 874.596 1059.33 1048.87 1058.28 
1033.81 958.421 1013.85 943.928 866.94 900.023 883.576 1016.61 969.709 
910.074 870.213 863.133 923.7 959.696 1050.85 1161.71 1247.81 1242.71 
1253.57 1253.47 1348.44 1246.6 1274.23 1592.59 1540.73 1275.52 1284.06 
1062.97 906.371 800.113 847.89 789.361 1049.67 1132.95 983.683 1118.79 
1015.53 1096.4 1089.03 942.309 875.206 882.052 882.052 849.145 950.261 
986.744 981.375 1121.14 1146.46 925.624 954.087 1010.27 999.091 908.698 
944.806 1052.95 944.084 915.513 960.877 960.877 951.937 1003.36 1003.36 
1055.54 1053.57 1053.57 1000.92 1000.92 966.364 888.44 888.44 833.769 
841.986 841.986 813.527 768.596 886.083 761.682 850.873 800.247 778.089 
778.555 808.463 778.411 778.426 804.579 1119.53 831.51 718.443 919.252 
1069.69 1107.69 1033.53 1178.53 1135.88 1139.75 1084.75 996.264 1203.43 
982.281 1048.24 1200.21 1309.89 1203.2 1383.68 1222.29 1356.2 1296.95 
1349.99 1245.03 1393.98 1088.94 1076.69 1076.69 1070.2 897.489 938.353 
1007.34 960.765 884.09 1054.86 875.631 906.699 1107.98 989.46 1072.84 
1136.16 1020.78 1020.78 1136.2 1154.05 1292.26 1197.71 1136.37 1303.86 
1224.95 1110.32 1110.32 1137.03 1137.03 1073.3 908.19 908.19 929.866 
933.235 933.235 953.446 948.839 895.605 1015.56 1072.35 1078.2 1272.8 
1206.88 1291.7 1197.05 1275.96 1073.91 966.372 844.837 908.663 907.661 
978.248 1061.06 977.185 996.345 939.049 950.155 925.903 955.266 936.633 
983.618 1036.1 893.116 842.524 685.051 711.138 711.138 684.049 656.9 
747.319 741.47 778.654 859.337 942.835 908.307 1069.27 1029.28 962.75 
919.086 1004.91 976.285 804.856 827.426 661.058 732.311 791.717 977.619 
832.356 865.027 961.426 1073.28 996.424 1026.28 978.89 978.828 964.699 
982.857 959.952 945.407 973.694 998.292 1058.45 1092.01 1064.94 1147.23 
998.514 1097.58 1060.96 984.441 984.441 973.972 1075.48 1177.17 1273.75 
1406.77 1406.77 1462.97 1538.81 1526 1388.39 1301.95 1257.82 1157.13 
1269.32 1205.55 1238.92 1269.99 1256.5 1372.1 1263.9 1293.72 794.054 
949.927 1078.64 1039.54 1048.38 963.572 963.572 974.405 1054.2 1235.75 
1152.12 1234.26 1321.88 996.786 913.561 958.955 1048.18 1180.18 1175.65 
1151.54 1112.7 1410.26 1157.77 1199.64 938.111 913.279 911.895 
FIELD FieldData 7
DY_minmax 1 530 double
0.875854 0.429392 0.606403 0.475094 0.360852 0.305994 0.461641 0.283834 0.350545 
0.435265 0.325454 0.181541 0.193463 0.273689 0.482718 0.70466 0.506144 0.24219 
0.274243 0.458385 0.284093 0.212289 0.633137 0.118375 0.292781 0.2268 0.239376 
0.288325 0.332807 0.240607 0.418191 0.180546 0.655121 0.200884 0.21628 0.202443 
0.189617 0.224509 0.323638 0.262738 0.232786 0.178597 0.230312 0.255806 0.212875 
0.22901 0.254817 0.273127 0.198341 0.227755 0.215632 0.253009 0.238082 0.257087 
0.269217 0.357162 0.383118 0.348885 0.268734 0.131678 0.167133 0.1727 0.253215 
0.27149 0.244134 0.361298 0.317421 0.435984 0.373998 0.274826 0.243126 0.178799 
0.133296 0.120747 0.166799 0.166223 0.224726 0.213123 0.195378 0.209553 0.205523 
0.175693 0.208415 0.255874 0.272715 0.188492 0.208876 0.116067 0.142481 0.262385 
0.382295 0.399289 0.282338 0.231846 0.157825 0.198672 0.220366 0.243127 0.229655 
0.258519 0.250556 0.325421 0.332807 0.884045 0.661083 0.650883 0.608946 0.702131 
0.65537 0.594074 0.702188 0.702188 0.631913 0.482589 0.656 0.527492 0.358753 
0.448113 0.469897 0.407351 0.461034 0.430931 0.472763 0.472763 0.366836 0.423787 
0.441833 0.365932 0.365932 0.370118 0.362608 0.362608 0.334853 0.364058 0.364058 
0.307914 0.307914 0.309067 0.34296 0.369984 0.429798 0.437333 0.437333 0.380964 
0.322655 0.366676 0.233332 0.263056 0.324082 0.360751 0.125589 0.187628 0.300482 
0.321209 0.216765 0.195381 0.232328 0.260161 0.286644 0.302437 0.33002 0.286097 
0.304255 0.266815 0.204545 0.22254 0.272302 0.356808 0.342037 0.392739 0.40199 
0.292659 0.279385 0.279385 0.311603 0.342844 0.342844 0.347586 0.245675 0.218895 
0.295369 0.35342 0.221868 0.193599 0.109502 0.212668 0.126535 0.105557 0.107138 
0.12524 0.175289 0.177097 0.278659 0.312217 0.316134 0.254022 0.254022 0.266944 
0.147772 0.196011 0.208299 0.186387 0.291982 0.190868 0.281119 0.337796 0.327719 
0.301384 0.290728 0.342083 0.292496 0.305833 0.305833 0.372919 0.316791 0.366587 
0.366587 0.142695 0.200701 0.156332 0.0794422 0.0626594 0 0.165204 0.232017 
0.191115 0.160424 0.321208 0.547288 0.677156 0.582559 0.558303 0.256657 0.298189 
0.357812 0.197414 0.198892 0.117702 0.143767 0.196812 0.251776 0.329732 0.406952 
0.317273 0.394486 0.371066 0.258804 0.23507 0.293284 0.351448 0.290616 0.275371 
0.282793 0.224961 0.261654 0.251832 0.252812 0.296931 0.477828 0.467587 0.476793 
0.452832 0.379013 0.433286 0.364822 0.289434 0.321829 0.305724 0.435994 0.390067 
0.331671 0.292639 0.285706 0.345014 0.380262 0.469522 0.578076 0.662385 0.657397 
0.668023 0.667932 0.760929 0.661198 0.688261 1 0.949222 0.689518 0.697887 
0.481393 0.328045 0.223996 0.27078 0.213467 0.46837 0.54991 0.40375 0.536046 
0.434939 0.514129 0.50691 0.363237 0.297528 0.304232 0.304232 0.272009 0.371023 
0.406747 0.401491 0.538346 0.563145 0.346898 0.37477 0.429786 0.418838 0.330324 
0.365681 0.47158 0.364975 0.336997 0.381419 0.381419 0.372664 0.42302 0.42302 
0.474116 0.472186 0.472186 0.42063 0.42063 0.386792 0.310487 0.310487 0.256953 
0.264999 0.264999 0.237132 0.193134 0.308179 0.186364 0.273701 0.224128 0.20243 
0.202886 0.232173 0.202746 0.20276 0.228369 0.536777 0.25474 0.144024 0.340659 
0.487965 0.525178 0.45256 0.594545 0.552783 0.556574 0.502715 0.41607 0.618934 
0.402378 0.466968 0.615773 0.723177 0.618707 0.795431 0.637394 0.768521 0.710506 
0.762448 0.659665 0.805519 0.506815 0.494827 0.494827 0.488469 0.319348 0.359363 
0.426912 0.381309 0.306227 0.473444 0.297944 0.328366 0.525463 0.409407 0.491053 
0.553062 0.440077 0.440077 0.553096 0.570578 0.705912 0.613325 0.55326 0.717268 
0.640005 0.527752 0.527752 0.553905 0.553905 0.491508 0.329826 0.329826 0.351052 
0.354351 0.354351 0.374142 0.369631 0.317503 0.434968 0.490571 0.496302 0.686861 
0.622312 0.705366 0.612678 0.689954 0.492105 0.386799 0.26779 0.33029 0.329308 
0.398428 0.47952 0.397388 0.416149 0.360045 0.370919 0.347171 0.375924 0.357678 
0.403686 0.455081 0.315066 0.265525 0.111326 0.13687 0.13687 0.110345 0.08376 
0.1723 0.166572 0.202984 0.281989 0.363751 0.329942 0.487553 0.448395 0.383253 
0.340496 0.424535 0.396506 0.228641 0.250741 0.0878313 0.157603 0.215775 0.397812 
0.255569 0.287561 0.381956 0.491489 0.416227 0.445466 0.399057 0.398996 0.385161 
0.402942 0.380513 0.36627 0.393969 0.418056 0.476959 0.509824 0.483317 0.563902 
0.418274 0.515277 0.479423 0.404493 0.404493 0.394242 0.49364 0.593211 0.687787 
0.818047 0.818047 0.873073 0.947336 0.934791 0.800046 0.715405 0.672186 0.573592 
0.683447 0.621008 0.653685 0.68411 0.670901 0.784097 0.678145 0.707345 0.218063 
0.370696 0.496738 0.458449 0.467106 0.384057 0.384057 0.394665 0.472797 0.650578 
0.568688 0.649114 0.734922 0.416581 0.335086 0.379536 0.466908 0.596161 0.591725 
0.568118 0.530088 0.821458 0.574221 0.615222 0.359125 0.33481 0.333455 
WidthEq 1 530 double
1.54184 1.66509 1.80751 2.61543 1.85152 1.86432 1.0783 3.68893 2.90746 
2.79066 2.44284 2.76082 2.89859 2.67277 1.63486 1.19338 1.11183 3.35044 
2.18794 2.58536 3.13179 2.50349 1.08447 1.67934 1.38485 1.78343 1.72659 
1.78061 1.41835 2.19941 1.41146 2.16544 1.42911 1.77763 2.2114 2.27021 
2.21415 1.89637 1.64889 1.75373 1.87858 2.36302 2.13262 2.03644 1.89831 
1.76283 1.72332 1.65325 2.45586 2.40843 2.32468 2.17033 2.19251 2.20168 
2.31608 2.2866 2.37372 2.59692 2.98721 1.85375 1.81893 1.73859 1.59945 
1.53518 1.66843 1.48362 1.67955 1.42578 1.50475 1.7141 1.75033 1.8451 
2.05155 2.20843 2.3108 2.28949 2.14815 2.10937 1.8775 1.82737 1.80669 
1.946 1.89088 1.93797 1.91921 2.18102 2.21037 2.68286 2.96859 1.56986 
1.4012 1.27352 1.50191 1.60481 1.89441 1.89125 1.88527 1.78633 1.71402 
1.68582 1.63156 1.51292 1.41835 1.24343 1.55544 1.56734 1.61218 1.45248 
1.42006 1.43413 1.25814 1.25814 1.30996 1.42543 1.34558 1.46428 1.6797 
1.60352 1.65348 1.73029 1.67329 1.72823 1.70167 1.70167 1.82726 1.76833 
1.72606 1.95156 1.95156 1.95088 2.0135 2.0135 2.06917 2.03037 2.03037 
2.01313 2.01313 1.95546 1.78726 1.89451 1.84699 1.92509 1.92509 2.1363 
2.29724 2.28494 2.79127 2.92409 2.8291 2.9917 2.33507 2.15348 1.71568 
1.75527 1.89058 1.93612 2.00058 1.83 1.72913 1.74777 1.74221 1.78861 
2.14568 2.45538 2.79736 2.92796 2.85731 2.64482 2.78546 2.83861 2.90453 
1.68229 1.61954 1.61954 1.64362 1.49776 1.49776 1.44874 1.51701 1.44587 
1.39634 1.29787 1.44107 1.52212 1.71754 1.79074 2.05912 2.25464 2.31871 
2.2769 2.2005 2.13459 1.95166 1.91812 1.97455 2.1949 2.1949 2.23233 
2.66747 2.59784 2.77298 2.99799 2.78447 1.46893 1.40389 1.34361 1.42753 
1.67859 1.6774 1.60787 1.63227 1.5166 1.5166 1.39609 1.395 1.32533 
1.32533 2.97503 2.56532 2.47036 2.4298 2.37586 2.48859 2.51716 2.61277 
2.97982 3.21499 1.56864 1.31952 1.14601 1.22243 1.20211 1.487 1.54568 
1.43719 2.60489 2.56189 2.49533 2.44613 2.23798 1.97635 1.97915 2.11943 
2.69344 2.19472 1.96505 2.18828 2.56224 2.63582 2.63865 2.64356 2.69701 
2.82583 3.08759 2.57182 2.49798 2.44473 3.16066 3.00112 2.8935 2.54458 
2.32702 2.02656 2.03247 2.12204 2.29373 2.13761 2.34195 2.84975 3.05088 
3.13107 3.01539 2.68201 2.56936 2.22609 1.83409 1.72466 1.46182 1.41569 
1.32432 1.30532 1.20358 1.22092 1.13994 1.00369 1 1.18045 1.28412 
1.71385 2.17993 2.40333 2.40473 2.5786 2.10213 1.94139 2.09612 1.92892 
2.00708 1.99517 2.19334 2.49066 2.79721 3.08353 3.08353 3.43268 3.02281 
2.92975 2.97497 1.49649 1.71464 2.35346 2.48575 2.44939 2.37731 2.61293 
2.42297 2.00996 2.16036 2.13433 1.97828 1.97828 2.0506 2.02409 2.02409 
2.00479 2.00856 2.00856 2.14566 2.14566 2.23207 2.41758 2.41758 2.65557 
2.68078 2.68078 2.78248 3.03153 2.93887 3.41999 3.31075 3.50061 3.55338 
3.50513 3.37714 2.62644 2.27037 2.57969 1.6474 2.45823 2.81667 3.81084 
3.30666 3.06778 2.99894 2.39755 2.43027 2.13394 2.09065 2.17353 1.8791 
2.11054 1.99907 1.84314 1.65048 1.67454 1.53622 1.54788 1.50416 1.57324 
1.54529 1.62641 1.5224 1.81625 1.8201 1.8201 1.81139 2.0825 2.07473 
2.03855 2.14026 2.22289 1.92171 2.1619 2.11206 1.84964 2.05905 1.9443 
1.87458 2.00445 2.00445 1.83562 1.74501 1.52278 1.47088 1.45 1.24292 
1.30987 1.37708 1.37708 1.41195 1.41195 1.47541 1.75316 1.75316 1.80802 
1.78337 1.78337 1.76555 1.76043 1.80276 1.6388 1.60571 1.67129 1.49051 
1.56894 1.53309 1.67357 1.62245 1.91557 2.20335 2.22802 2.01567 1.78336 
1.80138 1.80947 1.91396 2.20273 2.45745 2.56189 2.70208 2.72561 2.42348 
2.00014 1.73156 1.82567 1.99287 3.21035 3.09792 3.09792 2.97576 3.22908 
3.00851 2.74084 2.46322 2.38867 2.16098 2.08966 1.95895 1.98205 2.03565 
2.11433 1.98623 1.97995 2.11833 1.95743 3.00806 2.72562 2.6172 2.40226 
3.13672 3.20822 2.77987 2.08109 2.09591 1.87368 1.74921 1.61737 1.58211 
1.49751 1.54501 1.62359 1.72034 2.79068 2.6295 2.14201 2.13738 2.05386 
2.17973 1.90722 1.96364 2.1043 2.1043 2.11416 1.9552 1.85866 1.62535 
1.51592 1.51592 1.48464 1.4542 1.39829 1.57535 1.62547 1.55971 1.72454 
1.6305 1.81808 1.89735 1.83047 1.98757 1.87649 1.92686 1.73356 3.4667 
3.12395 2.87703 2.84503 2.70942 2.79131 2.79131 2.61914 2.40808 2.22856 
2.33857 2.30013 2.18939 2.41887 2.4214 2.33701 2.21241 2.09607 2.11514 