# vtk DataFile Version 3.0
vtk output
ASCII
DATASET POLYDATA
POINTS 415 float
1.07131 -1.74109 1.55266 -0.546 -1.03426 1.66772 -0.224675 -0.68529 1.86727 
-0.37973 -1.07112 1.424 0.613055 0.534585 1.94904 0.157027 0.164101 1.88612 
-0.14455 -0.0478258 1.76207 -0.37907 0.179123 1.65186 0.329876 0.844474 2.03492 
0.341772 0.78125 1.77262 0.154183 0.628894 1.68423 -0.886253 -0.0460078 0.83096 
2.10954 -1.59885 -0.165812 2.22003 -1.28504 -0.24525 2.38862 0.176691 0.584923 
2.19125 -0.94958 -0.644561 0.62899 -0.936163 -0.527282 1.41345 1.44604 -0.115173 
0.630311 1.56432 -0.0715641 3.2856 0.663688 -0.720739 0.443544 0.932131 -0.878474 
1.91183 0.481804 -1.31329 0.98909 1.10902 -0.995051 0.815251 1.51471 -0.777812 
0.355202 1.36737 -0.870799 0.313415 1.37215 -0.80175 0.271905 1.38395 -0.745734 
0.229684 1.40527 -0.709877 0.180861 1.42377 -0.684178 0.121653 1.42914 -0.657499 
0.073439 1.43466 -0.605103 0.0384302 1.44579 -0.532391 0.0146917 1.46411 -0.447005 
-0.0204924 1.47169 -0.367794 -0.0694058 1.46299 -0.289417 -0.130014 1.43993 -0.210756 
-0.180687 1.41941 -0.113557 -0.223274 1.40648 -0.0119797 -0.256633 1.39869 0.10109 
-0.269954 1.41058 0.217037 -0.266611 1.41933 0.340143 -0.241898 1.4165 0.44906 
-0.208284 1.40649 0.554276 -0.171553 1.40131 0.645341 -0.127237 1.39359 0.726766 
-0.0715401 1.38022 0.796964 -0.0253692 1.37837 0.864763 0.0224884 1.38254 0.918998 
0.0882433 1.38678 0.939985 0.156034 1.40413 0.93441 0.214825 1.44368 0.906957 
0.284916 1.47764 0.868292 0.360831 1.50311 0.8336 0.430322 1.52633 0.814393 
0.487527 1.55748 0.79919 0.549362 1.58015 0.76259 0.607188 1.58955 0.710156 
0.669683 1.59757 0.665561 0.728152 1.59151 0.638484 0.796656 1.59148 0.623415 
0.864093 1.59383 0.601184 0.914932 1.59077 0.550213 0.957928 1.58375 0.488401 
0.999438 1.57194 0.43239 1.04035 1.5494 0.395826 1.08091 1.51975 0.372253 
1.1213 1.48655 0.355178 1.16176 1.45341 0.338144 1.20345 1.42144 0.321777 
1.25203 1.39932 0.302536 1.31017 1.39633 0.268685 1.35231 1.39867 0.186646 
1.37854 1.40981 0.0498696 0.808343 1.53188 -0.650369 0.795009 1.54979 -0.539581 
0.770262 1.56039 -0.441555 0.747699 1.57303 -0.342337 0.713375 1.57125 -0.242898 
0.672373 1.56658 -0.153644 1.0402 1.113 -1.05906 1.09859 1.11364 -1.09937 
1.13898 1.08044 -1.11644 1.16161 1.01702 -1.11674 1.19311 0.958521 -1.10566 
1.23166 0.913428 -1.10395 1.27179 0.876602 -1.11457 1.31218 0.843399 -1.13165 
1.35249 0.810127 -1.14876 1.39157 0.775695 -1.16654 1.42369 0.731344 -1.1815 
1.44518 0.670244 -1.189 1.47643 0.608129 -1.17146 1.51453 0.552437 -1.15023 
1.55563 0.509739 -1.14714 1.60463 0.494787 -1.17934 1.66451 0.500214 -1.22543 
1.71542 0.497229 -1.27636 1.76712 0.484812 -1.3071 1.83559 0.481357 -1.31559 
0.472271 0.904182 -0.926772 0.477044 0.873305 -0.994207 0.462842 0.847608 -1.06777 
0.458206 0.808042 -1.14021 0.458889 0.75288 -1.1957 0.451631 0.693152 -1.22857 
0.424125 0.638979 -1.2336 0.388933 0.583727 -1.22255 0.361097 0.526127 -1.22102 
0.350998 0.468736 -1.25269 0.334262 0.431591 -1.30724 0.288124 0.422317 -1.35579 
0.244074 0.40393 -1.39237 0.205599 0.373564 -1.41846 0.168125 0.338679 -1.43855 
0.129314 0.304892 -1.45808 0.0817503 0.278301 -1.47391 0.014127 0.264504 -1.47483 
-0.0627741 0.24724 -1.45256 -0.141893 0.213443 -1.39717 -0.220483 0.166725 -1.31505 
-0.290987 0.127596 -1.22856 -0.342493 0.119858 -1.15817 -0.386448 0.132761 -1.11007 
-0.435696 0.144089 -1.07141 -0.495503 0.138728 -1.02529 -0.545451 0.13584 -0.960648 
-0.590206 0.131043 -0.880015 -0.640928 0.113869 -0.789428 -0.703371 0.078918 -0.691994 
-0.76107 0.0484179 -0.591998 -0.815218 0.0280282 -0.503262 -0.848568 0.0305495 -0.409881 
-0.890879 0.0246551 -0.321334 -0.942502 0.00324939 -0.224648 -0.973433 0.00125829 -0.116773 
-1.00001 -3.68177e-005 3.63436e-005 -1.01369 0.0106308 0.123749 -1.01938 0.0195334 0.263585 
-1.01517 0.0188595 0.40691 -0.989846 -0.00120159 0.548635 -0.94752 -0.0258306 0.68833 
3.20701 0.616968 -0.638615 3.13495 0.572989 -0.546379 3.07343 0.542146 -0.455111 
3.00348 0.511218 -0.389462 2.93462 0.478558 -0.350065 2.87548 0.432033 -0.309542 
2.80486 0.38755 -0.251315 2.72768 0.33967 -0.169799 2.65726 0.300474 -0.0833398 
2.60495 0.275035 0.0195702 2.56081 0.257251 0.126898 2.51878 0.234685 0.248542 
2.48231 0.217321 0.373192 2.44833 0.205697 0.492601 2.15018 -0.841595 -0.690761 
2.10252 -0.776159 -0.723816 2.04261 -0.755 -0.72512 1.98533 -0.749991 -0.692956 
1.923 -0.754329 -0.654776 1.86446 -0.748335 -0.62774 1.79475 -0.746046 -0.619918 
1.71836 -0.746633 -0.622296 1.64073 -0.748379 -0.625342 1.56311 -0.750125 -0.628388 
1.48672 -0.750713 -0.630767 1.41719 -0.745005 -0.629517 1.35927 -0.730751 -0.62328 
1.29842 -0.732167 -0.625694 1.24191 -0.749102 -0.636479 1.17312 -0.75811 -0.64326 
1.09825 -0.762257 -0.647544 1.02947 -0.771402 -0.654399 0.972897 -0.794285 -0.659992 
0.912179 -0.821154 -0.650991 0.854732 -0.861804 -0.624106 0.784641 -0.895763 -0.585441 
0.707309 -0.920065 -0.55015 2.17006 -0.934497 -0.817059 2.1647 -0.938431 -0.962924 
2.1577 -0.964665 -1.05629 2.13071 -1.00329 -1.08941 2.09268 -1.05621 -1.07715 
2.04654 -1.11725 -1.03577 1.99608 -1.18584 -0.973301 1.96861 -1.28441 -0.901279 
1.94299 -1.3919 -0.817201 1.91491 -1.50108 -0.72565 1.86198 -1.58968 -0.623527 
1.80541 -1.66943 -0.525092 1.74191 -1.72784 -0.423636 1.68162 -1.76327 -0.326397 
1.61113 -1.80253 -0.239983 1.54109 -1.83106 -0.173015 1.48043 -1.844 -0.114163 
1.40976 -1.85955 -0.0739027 1.33215 -1.88501 -0.0308049 1.25337 -1.91157 0.0116748 
1.17593 -1.93348 0.0482732 1.1058 -1.93836 0.0690486 1.04629 -1.92649 0.0823844 
0.976755 -1.92065 0.0837078 0.901675 -1.92001 0.0820367 0.832137 -1.91417 0.0833602 
0.772809 -1.89874 0.0902005 0.703197 -1.89297 0.0914838 0.626881 -1.89348 0.0891453 
0.550566 -1.894 0.0868069 0.481028 -1.88816 0.0881307 0.42301 -1.8715 0.0956783 
0.361559 -1.85807 0.101371 0.30485 -1.84019 0.109626 0.243473 -1.82668 0.11536 
0.186838 -1.80873 0.123655 0.126596 -1.79755 0.136595 0.0775237 -1.78267 0.168748 
0.0347779 -1.77202 0.224093 -0.00690787 -1.76377 0.286612 -0.0484186 -1.75196 0.342623 
-0.0907399 -1.73413 0.385018 -0.138428 -1.71795 0.41792 -0.189793 -1.70861 0.455428 
-0.220533 -1.67991 0.50408 -0.253701 -1.65688 0.558015 -0.285391 -1.62908 0.606154 
-0.306722 -1.59155 0.65989 -0.33121 -1.5502 0.698734 -0.350707 -1.50079 0.733689 
-0.373461 -1.45104 0.76029 -0.384871 -1.39403 0.799615 -0.389779 -1.3377 0.855631 
-0.393977 -1.29087 0.931803 -0.398194 -1.2476 1.01449 -0.401076 -1.20542 1.0966 
-0.396446 -1.16571 1.16911 -0.380866 -1.13871 1.24342 -0.37658 -1.10612 1.32893 
2.20276 -1.12162 -0.413916 2.34719 0.0642075 0.750308 2.31164 -0.025402 0.928364 
2.28605 -0.119492 1.09579 2.24357 -0.220152 1.24228 2.18185 -0.296075 1.37645 
2.12077 -0.34934 1.50613 2.04809 -0.407602 1.62432 1.96872 -0.468606 1.73239 
1.88847 -0.52366 1.8268 1.80885 -0.564568 1.89517 1.72992 -0.591261 1.93756 
1.6517 -0.603737 1.95397 1.5739 -0.609038 1.95742 1.49751 -0.609625 1.95504 
1.42772 -0.607407 1.96282 1.36787 -0.602642 1.98915 1.29721 -0.61819 2.02941 
1.21959 -0.643658 2.07252 1.14092 -0.666725 2.10845 1.06252 -0.682757 2.13135 
0.98412 -0.698789 2.15425 0.905371 -0.721926 2.19015 0.826447 -0.748623 2.23254 
0.747698 -0.77176 2.26844 0.669729 -0.780753 2.27831 0.593797 -0.776624 2.26163 
0.525901 -0.764314 2.21587 0.469311 -0.757597 2.15889 0.401495 -0.745354 2.11309 
0.327155 -0.73884 2.08932 0.258464 -0.744363 2.076 0.200898 -0.759032 2.05797 
0.133902 -0.758554 2.0311 0.0674291 -0.747416 1.98473 0.0108819 -0.740686 1.92776 
-0.0575452 -0.727129 1.88266 -0.136959 -0.710936 1.86405 2.38573 0.275599 0.562936 
2.3759 0.364592 0.543786 2.35413 0.4356 0.531373 2.33401 0.497997 0.53963 
2.30196 0.542414 0.554615 2.26296 0.576915 0.572437 2.22396 0.611417 0.59026 
2.19148 0.648654 0.618203 2.16894 0.688437 0.664692 2.13559 0.707908 0.725113 
2.09529 0.717458 0.78838 2.05393 0.729409 0.844472 2.01302 0.751951 0.881035 
1.97228 0.778044 0.911108 1.93137 0.800585 0.947671 1.88994 0.812467 1.00372 
1.84832 0.820788 1.06628 1.80681 0.832599 1.12229 1.76434 0.850287 1.16461 
1.71385 0.860449 1.20259 1.64597 0.847505 1.24435 1.57783 0.830932 1.29258 
1.52551 0.829204 1.34934 1.47452 0.832127 1.40023 1.41316 0.821913 1.45211 
1.3553 0.814985 1.50589 1.29262 0.803542 1.55706 1.23355 0.798876 1.60359 
1.16279 0.779842 1.65039 1.08526 0.754308 1.69346 1.00782 0.726521 1.73529 
0.937828 0.696188 1.76748 0.878653 0.651942 1.80362 0.806827 0.612858 1.85068 
0.719316 0.574791 1.90352 2.18814 -1.41094 -0.155219 2.14699 -1.48577 -0.126174 
2.11834 -1.53934 -0.13513 -0.880834 -0.0210192 0.963009 -0.857473 -0.0133852 1.06916 
-0.83228 -0.00457129 1.15913 -0.817744 0.0196387 1.24033 -0.798914 0.0476674 1.30683 
-0.782003 0.0883667 1.35489 -0.744938 0.119891 1.38158 -0.689092 0.139672 1.3939 
-0.641858 0.162835 1.41629 -0.594892 0.178826 1.45164 -0.538597 0.176055 1.50231 
-0.492251 0.177759 1.56362 -0.444394 0.181924 1.61785 -0.834964 -0.191475 0.980799 
-0.824502 -0.337413 1.12083 -0.832934 -0.461156 1.24716 -0.81229 -0.555193 1.33986 
-0.768294 -0.616407 1.39201 -0.709094 -0.645228 1.41162 -0.652736 -0.664336 1.41114 
-0.592032 -0.662918 1.41355 -0.537193 -0.648313 1.43146 -0.479104 -0.641598 1.46204 
-0.434007 -0.635163 1.51744 -0.396539 -0.629806 1.58894 -0.358444 -0.631599 1.67345 
-0.306527 -0.647442 1.76753 0.33552 0.815881 1.90963 0.267185 0.74582 1.75123 
0.20175 0.722884 1.73692 0.164433 0.686245 1.71588 0.152881 0.471824 1.80942 
0.15263 0.33608 1.89562 0.154129 0.235877 1.91685 0.0864855 0.615156 1.68334 
0.0282931 0.586211 1.69127 -0.0402784 0.554707 1.72286 -0.108952 0.519582 1.76092 
-0.166245 0.478806 1.78774 -0.225458 0.4507 1.79611 -0.27178 0.419389 1.78618 
-0.310436 0.385475 1.76659 -0.346325 0.349285 1.74583 -0.373387 0.305839 1.72133 
-0.380564 0.246046 1.68843 0.41931 0.744691 1.76598 0.488575 0.706812 1.79216 
0.546334 0.635534 1.85607 -0.340258 0.113934 1.69326 -0.301197 0.0523699 1.7282 
-0.260477 -0.000854974 1.75086 -0.211212 -0.035893 1.75835 -0.153229 -0.139666 1.78761 
-0.171513 -0.219911 1.81079 -0.178498 -0.305746 1.82276 -0.179334 -0.39302 1.82567 
-0.186743 -0.480131 1.83693 -0.207904 -0.569048 1.85529 -0.0779762 -0.0553532 1.80197 
-0.0220829 -0.0430034 1.82712 0.0365249 -0.0254915 1.83828 0.0814291 0.00698491 1.8488 
0.111406 0.0480342 1.87207 0.129192 0.1065 1.88764 0.223601 0.156574 1.92602 
0.279494 0.168924 1.95117 0.338357 0.189924 1.95579 0.38511 0.228275 1.9527 
0.425607 0.268068 1.95867 0.471928 0.299379 1.9686 0.52916 0.320537 1.97608 
0.574156 0.35991 1.97631 0.603508 0.42918 1.96431 -0.313783 -1.09292 1.48987 
-0.257442 -1.10313 1.55337 -0.18972 -1.11899 1.60563 -0.114563 -1.1374 1.64825 
-0.0393036 -1.15808 1.68965 0.0293596 -1.18169 1.72081 0.0867848 -1.20907 1.73272 
0.14657 -1.23084 1.7393 0.194768 -1.2635 1.73964 0.235763 -1.30969 1.74926 
0.2756 -1.35696 1.75824 0.31642 -1.4067 1.77436 0.364193 -1.44653 1.78765 
0.422076 -1.48026 1.81298 0.470024 -1.51654 1.81977 0.51162 -1.552 1.80994 
0.55409 -1.56968 1.76763 0.603687 -1.5739 1.71597 0.664805 -1.56731 1.67056 
0.721889 -1.57467 1.64273 0.782206 -1.58578 1.62983 0.832063 -1.6101 1.61788 
0.881853 -1.63447 1.60588 0.940678 -1.65037 1.59877 0.989151 -1.67598 1.58606 
1.03085 -1.70796 1.5697 -0.421691 -1.0699 1.49955 -0.463478 -1.06513 1.5686 
-0.504914 -1.05325 1.62466 
LINES 23 460
50 24 25 26 27 28 29 30 31 32 33 34 35 36 37 38 39 40 41 42 43 44 45 46 47 48 49 50 51 52 53 54 55 56 57 58 59 60 61 62 63 64 65 66 67 68 69 70 71 72 17 
8 23 73 74 75 76 77 78 18 
22 22 79 80 81 82 83 84 85 86 87 88 89 90 91 92 93 94 95 96 97 98 21 
44 20 99 100 101 102 103 104 105 106 107 108 109 110 111 112 113 114 115 116 117 118 119 120 121 122 123 124 125 126 127 128 129 130 131 132 133 134 135 136 137 138 139 140 11 
16 19 141 142 143 144 145 146 147 148 149 150 151 152 153 154 14 
25 15 155 156 157 158 159 160 161 162 163 164 165 166 167 168 169 170 171 172 173 174 175 176 177 16 
61 15 178 179 180 181 182 183 184 185 186 187 188 189 190 191 192 193 194 195 196 197 198 199 200 201 202 203 204 205 206 207 208 209 210 211 212 213 214 215 216 217 218 219 220 221 222 223 224 225 226 227 228 229 230 231 232 233 234 235 236 3 
39 14 238 239 240 241 242 243 244 245 246 247 248 249 250 251 252 253 254 255 256 257 258 259 260 261 262 263 264 265 266 267 268 269 270 271 272 273 274 2 
37 14 275 276 277 278 279 280 281 282 283 284 285 286 287 288 289 290 291 292 293 294 295 296 297 298 299 300 301 302 303 304 305 306 307 308 309 4 
15 11 313 314 315 316 317 318 319 320 321 322 323 324 325 7 
16 11 326 327 328 329 330 331 332 333 334 335 336 337 338 339 2 
3 9 340 8 
5 9 341 342 343 10 
5 10 344 345 346 5 
13 10 347 348 349 350 351 352 353 354 355 356 357 7 
5 9 358 359 360 4 
6 7 361 362 363 364 6 
8 6 365 366 367 368 369 370 2 
8 6 371 372 373 374 375 376 5 
11 5 377 378 379 380 381 382 383 384 385 4 
28 3 386 387 388 389 390 391 392 393 394 395 396 397 398 399 400 401 402 403 404 405 406 407 408 409 410 411 0 
5 3 412 413 414 1 
7 15 237 13 310 311 312 12 

POINT_DATA 415
SCALARS DY_raw double
LOOKUP_TABLE default
2419.32 1425.22 1633.58 1056.44 1335.33 1161.69 1262.55 1295.29 1204.63 
1175.61 1407.29 1084.59 1306.05 1043.67 827.003 1198.48 1479.79 1240.25 
1207.05 1204.99 1292.71 1241.78 1317.45 1244.67 1629.7 1435.2 1329.43 
1329.43 1160.78 1160.78 1064.56 1085.25 1167.78 1136.59 1022.74 1097.11 
1133.55 983.603 1126.65 929.118 852.823 987.996 1037.97 1109.71 1276.5 
1233.15 1345.64 1406.91 1453.73 1453.73 1488.85 1502.73 1454.41 1567.05 
1594.9 1540.06 1424.93 1328 1291.43 1488.91 1267.22 1472.94 1383.62 
1389.93 1377.68 1377.68 1345.36 1142.06 1142.06 1202.84 1305.46 1099.31 
1143.74 1279.83 1152.68 1050.05 1222.85 1046.57 1109.98 1274.15 1273.27 
1273.27 1306.24 1291.07 1291.07 1111.11 1063.39 1113.43 1064.56 1064.56 
1103.67 1160.03 1185.78 1205.1 1139.1 1151.05 1075.11 1099.17 1045.09 
1312.51 1331.09 1332.26 1389.79 1367.35 1334.46 1374.08 1322.95 1263.62 
1263.62 1325.27 1425.26 1405.09 1558.88 1345.48 1351.76 1357.12 1157.92 
1030.76 1049.82 1048.32 1003.25 1145.65 1154.31 1012.31 1073.44 920.888 
915.919 1014.36 821.39 861.638 1011.02 904.462 981.023 892.947 930.247 
896.498 811.705 808.319 855.487 895.214 1031.2 1443.91 1485.92 1501.34 
1316.28 1133.05 1044.71 945.495 941.803 979.973 961.249 1126.07 905.534 
1021.1 1002.53 1197.64 1172.47 1175.67 1288.42 1123.45 1304.48 1227.22 
1299.27 1299.27 1304.22 1386.34 1565.63 1541.87 1479.57 1424.12 1319.84 
1476.08 1393.62 1296.18 1320.81 1234.12 1228.68 1453.8 1235.33 1197.09 
1245.44 1200.11 1160.37 969.177 961.926 886.804 1003.78 1068.89 1121.41 
1006.16 1064.33 1047.44 1030.27 1109.69 937.283 1022.15 1137.25 998.723 
1187.21 1153.19 1141.2 1269.44 1060.08 1075.57 1220.07 1083.34 1209.26 
1124.2 1225.5 1449.22 1372.46 1350.35 1350.35 1311.04 1218.5 1218.5 
1198.49 1214.88 1486.86 1216.02 1340.53 1195.73 1101.42 1066.96 1109.01 
1230.18 1188.36 1241.46 1232.05 1188.14 1132.25 1258.93 1327.56 1363.22 
1368.12 1231.69 1281.45 1089.27 863.419 954.007 902.889 999.244 938.537 
934.859 1095.95 987.025 976.721 1258.46 1253.16 1257.13 1391.75 1246.9 
1357.12 1303.88 1204.66 1390.34 1142.56 1435.44 1435.44 1549.1 1887.57 
1988.7 2046.68 1890.63 1620.89 1855.08 1630.84 1773.34 1755.06 1479.49 
1385.58 1592.55 1443.02 1418.76 1564.08 818.874 757.649 886.815 870.827 
1045.06 1146.86 1069.12 1177.5 1285.29 1285.29 1400.5 1386.17 1454.2 
1288.45 1288.45 1153.9 1163.3 1448.96 1125.76 1113.32 1316.07 1166.34 
1268.79 1234.79 1089.97 1320.45 1308.4 1177.6 1333.49 1369.1 1297.59 
1280.47 1281.01 1240.89 1233.68 1077.17 1217.07 1243.74 1010.36 1064.24 
957.443 994.374 927.548 912.244 912.258 912.258 915.312 995.324 1059.73 
1201.11 1164.13 1421.11 1274.74 984.942 975.839 1088.82 1088.82 1213.86 
1238.25 1271.12 1200.89 1252.17 1265.98 1289.37 1467.01 1160.46 1192.03 
1260.94 1306.59 1466.22 1467.97 1288.74 1392.53 1346.17 1475.14 1459.81 
1304.37 1246.77 1173.07 1173.07 1105.54 1105.54 1127.9 1169.95 1325.2 
1349.71 1370.6 1307.54 1290.19 1290.19 1491.29 1645.3 1773.33 1742.59 
1614 1502.06 1284.38 1509.5 1404.63 1325.73 1241.04 1161.69 1241.31 
1461.32 1338.16 1303.9 1419.56 1419.56 1490.23 1423.05 1374.51 1094.05 
1433.97 1377.82 1588.11 1647.44 1667.37 1507.22 1404.9 1474.16 1457.91 
1301.89 1301.89 1340.72 1463.47 1463.47 1566.81 1418.84 1302.75 1273.69 
1186.25 1221.85 1474.44 1372.35 1511.39 1901.45 1901.45 1130.95 1261.73 
1356.64 
FIELD FieldData 7
DY_minmax 1 415 double
1 0.401746 0.527142 0.179816 0.347651 0.243155 0.303854 0.323553 0.268995 
0.251528 0.390956 0.196752 0.330029 0.172131 0.0417378 0.265294 0.434589 0.29043 
0.270453 0.269213 0.322001 0.291351 0.336893 0.293095 0.524802 0.407751 0.344102 
0.344102 0.242606 0.242606 0.184703 0.197154 0.246817 0.228051 0.159534 0.204288 
0.226217 0.13598 0.222069 0.103191 0.0572764 0.138624 0.168701 0.211872 0.312246 
0.286157 0.353856 0.390726 0.418904 0.418904 0.440043 0.448391 0.419313 0.487099 
0.503861 0.470857 0.401572 0.34324 0.321235 0.440076 0.30666 0.430464 0.37671 
0.380509 0.373138 0.373138 0.353685 0.231343 0.231343 0.267918 0.329673 0.205612 
0.232351 0.314248 0.23773 0.175967 0.279959 0.173874 0.212034 0.310831 0.310301 
0.310301 0.330142 0.321018 0.321018 0.212717 0.183997 0.214109 0.1847 0.1847 
0.208238 0.242157 0.257651 0.269279 0.229562 0.236753 0.191052 0.205529 0.172983 
0.333918 0.345102 0.345804 0.380426 0.366921 0.347125 0.370974 0.340202 0.304494 
0.304494 0.341595 0.401775 0.389635 0.482187 0.353757 0.357537 0.360764 0.240884 
0.164357 0.175828 0.174928 0.147805 0.233498 0.238715 0.153256 0.190044 0.0982383 
0.0952475 0.154491 0.0383597 0.062581 0.152481 0.0883531 0.134428 0.0814231 0.10387 
0.0835604 0.0325312 0.0304934 0.0588794 0.0827875 0.164627 0.412995 0.438276 0.447558 
0.336189 0.225919 0.172757 0.113047 0.110825 0.133796 0.122528 0.221718 0.088998 
0.158547 0.14737 0.264788 0.24964 0.251568 0.319422 0.220142 0.329086 0.282588 
0.325953 0.325953 0.328928 0.378348 0.486249 0.471945 0.434458 0.401084 0.338328 
0.432353 0.382732 0.324088 0.338911 0.286742 0.283471 0.418949 0.287473 0.26446 
0.293558 0.266276 0.242363 0.127299 0.122935 0.0777261 0.14812 0.187306 0.218911 
0.149553 0.18456 0.174398 0.164066 0.211859 0.108105 0.159179 0.228448 0.145079 
0.25851 0.238038 0.230824 0.308001 0.182003 0.191329 0.27829 0.196 0.271782 
0.220591 0.281556 0.416189 0.369998 0.35669 0.35669 0.333032 0.27734 0.27734 
0.265302 0.275167 0.438845 0.275853 0.350783 0.263642 0.206884 0.186148 0.211449 
0.284371 0.259206 0.291161 0.285495 0.259073 0.225439 0.301674 0.342974 0.364435 
0.367382 0.285281 0.315228 0.199574 0.0636531 0.11817 0.0874065 0.145393 0.108859 
0.106646 0.203593 0.13804 0.131839 0.301389 0.298202 0.300591 0.381606 0.294434 
0.360764 0.328727 0.269013 0.380757 0.231639 0.407899 0.407899 0.4763 0.679991 
0.740854 0.775743 0.681833 0.519504 0.660441 0.525492 0.611246 0.60025 0.434405 
0.377892 0.502446 0.412463 0.397861 0.485316 0.0368454 0 0.0777329 0.0681113 
0.172964 0.23423 0.187447 0.252666 0.317536 0.317536 0.386874 0.378245 0.419189 
0.319441 0.319441 0.238464 0.244123 0.416033 0.221531 0.214047 0.336061 0.24595 
0.307608 0.287144 0.199995 0.338699 0.331446 0.252728 0.346545 0.367971 0.32494 
0.314634 0.31496 0.290815 0.286479 0.192288 0.276484 0.292533 0.152083 0.184507 
0.120237 0.142462 0.102246 0.093036 0.0930448 0.0930448 0.0948826 0.143034 0.181792 
0.266879 0.244623 0.399276 0.311189 0.136786 0.131308 0.199303 0.199303 0.274551 
0.289228 0.309012 0.266743 0.297607 0.305919 0.319991 0.426895 0.242416 0.261413 
0.302881 0.330358 0.426424 0.427473 0.319613 0.382075 0.354176 0.431787 0.422566 
0.329022 0.294354 0.250004 0.250004 0.209364 0.209364 0.222818 0.248122 0.341557 
0.356304 0.368879 0.330928 0.320486 0.320486 0.441509 0.53419 0.611243 0.59274 
0.515354 0.447988 0.31699 0.45247 0.389357 0.341871 0.290904 0.243155 0.291068 
0.423472 0.349353 0.328737 0.398344 0.398344 0.440868 0.400439 0.371233 0.202449 
0.407015 0.373222 0.499775 0.535483 0.547472 0.451094 0.389518 0.431197 0.421423 
0.327526 0.327526 0.350896 0.424767 0.424767 0.486959 0.397906 0.328047 0.310555 
0.257932 0.279359 0.431369 0.369932 0.453603 0.688343 0.688343 0.224653 0.303358 
0.360478 
WidthEq 1 415 double
1 1.55458 1.82403 2.47309 2.12636 2.10737 2.01514 2.37701 1.82988 
2.64519 2.40052 3.15163 2.70756 3.25133 3.88094 2.67507 1.81156 1.55454 
2.49106 1.35193 1.30702 1.59478 1.32594 1.96639 1.39433 1.62968 1.77363 
1.77363 2.06184 2.06184 2.39786 2.48317 2.40917 2.57405 3.01508 2.94593 
3.05107 3.54689 3.30548 3.80157 3.88637 3.55129 2.93811 2.66343 2.49271 
2.47157 2.43702 2.3431 2.18622 2.18622 2.13538 2.07694 2.11236 2.00867 
1.97136 2.01873 2.14124 2.21481 2.19286 2.05513 2.15987 1.98518 2.06097 
2.02286 1.95856 1.95856 2.02705 2.27525 2.27525 2.29636 2.21238 2.43107 
2.12724 2.06378 2.52475 2.7909 2.6397 2.80219 2.61944 1.37004 1.3888 
1.3888 1.38745 1.44283 1.44283 1.63015 1.68409 1.65554 1.79547 1.79547 
1.79084 1.83841 1.76465 1.70796 1.85018 1.85859 2.00462 1.92862 2.01974 
1.32031 1.40072 1.46831 1.48293 1.49719 1.56344 1.52496 1.54884 1.52104 
1.52104 1.5127 1.46998 1.5125 1.48432 1.6017 1.65416 1.83143 1.98188 
2.23898 2.40099 2.49948 2.64315 2.46798 2.48988 2.77361 2.65796 2.96838 
3.11403 3.09783 3.90782 3.84857 3.6096 4.08101 3.91037 4.00842 3.82057 
4.04065 4.16614 3.92167 3.79762 3.75449 3.37651 1.43007 1.68607 1.7577 
1.94551 2.14261 2.27118 2.39454 2.62343 2.86469 3.12555 2.9213 3.6388 
3.43947 3.44583 2.66957 2.65686 2.56242 2.38534 2.3253 2.18205 2.07409 
1.96284 1.96284 1.85875 1.7623 1.67893 1.67346 1.73682 1.7983 1.86007 
1.79045 1.911 1.99818 2.03354 2.26352 2.34108 2.01055 2.62349 2.54011 
2.26796 2.17309 2.29233 2.7066 2.95722 3.41922 3.6451 3.74565 3.76847 
4.07807 3.84695 3.43375 3.13924 3.11064 3.07376 2.90543 2.72495 2.77332 
2.656 2.62213 2.70026 2.54377 2.69182 2.71559 2.60538 2.73568 2.51127 
2.71065 2.58646 2.30321 2.42779 2.2972 2.2972 2.18199 2.26734 2.26734 
2.3785 2.49131 2.11967 2.54047 2.3981 2.59533 2.68282 2.89142 2.69697 
2.43546 2.5089 2.50596 2.54193 2.58312 2.5067 2.37772 2.18156 2.15906 
2.12671 2.32461 2.24441 2.74276 3.92492 3.89454 4.02675 3.92113 4.03564 
3.9443 3.5285 3.5442 3.30924 2.72123 2.56913 2.403 2.29265 2.33266 
2.26305 2.34276 2.61759 2.43236 2.62232 2.26111 2.26111 1.93396 1.77209 
1.6859 1.66615 1.74275 1.9372 1.80054 1.8953 1.83129 1.80368 1.89566 
1.85674 1.77696 1.82442 1.91213 1.87967 3.80918 3.77471 2.95436 2.91292 
2.31456 2.13902 2.34581 2.25944 2.18754 2.18754 2.1457 2.11834 2.06946 
2.41243 2.41243 2.69124 2.71782 2.39284 2.88918 2.8568 2.48071 2.64192 
2.42884 2.52743 2.7192 2.38426 2.41772 2.69755 2.51576 2.51285 2.64094 
2.6721 2.50222 2.38944 2.28445 3.29834 3.08522 2.9355 3.16927 2.9813 
2.84646 2.70202 2.56295 2.60081 2.50835 2.50835 2.43304 2.50875 2.45489 
2.47692 2.59757 2.51979 2.34619 2.78355 2.76892 2.55992 2.55992 2.35145 
2.15701 1.88478 1.72341 1.69574 1.63303 1.75069 1.82462 2.41607 2.61571 
2.57146 2.54321 2.06065 2.04666 2.08535 2.30443 2.39282 2.19941 1.92885 
1.94476 1.94363 2.09793 2.09793 2.40979 2.40979 2.59495 2.53575 2.28108 
2.05995 2.25916 2.10567 2.0646 2.0646 1.87277 1.78321 1.574 1.526 
1.68646 1.88321 1.96738 1.84627 1.81173 1.81497 1.89455 2.10737 2.23004 
1.99106 2.1132 2.15375 1.96458 1.96458 1.91556 2.01917 2.09127 2.52365 
2.17885 2.16593 1.87367 1.76093 1.76181 1.94088 2.00025 1.95261 1.96622 
2.19281 2.19281 2.1351 2.01031 2.01031 1.99085 2.21621 2.39934 2.52277 
2.68897 2.69643 2.36679 2.52728 2.35446 1.72385 1.72385 2.4371 1.91267 
1.65805 
rRFP 1 415 double
3222.12 3770.16 4036.43 4677.83 4335.19 4316.43 4225.28 4582.89 4042.21 
4847.9 4606.12 5348.37 4909.54 5446.89 6069.07 4877.43 4024.11 3770.12 
4695.59 3569.9 3525.52 3809.88 3544.21 4177.11 3611.8 3844.37 3986.62 
3986.62 4271.43 4271.43 4603.49 4687.79 4614.67 4777.6 5213.43 5145.09 
5248.99 5738.96 5500.4 5990.64 6074.44 5743.31 5137.37 4865.93 4697.22 
4676.33 4642.19 4549.38 4394.35 4394.35 4344.11 4286.36 4321.36 4218.89 
4182.02 4228.83 4349.9 4422.6 4400.91 4264.8 4368.31 4195.68 4270.57 
4232.91 4169.37 4169.37 4237.05 4482.33 4482.33 4503.19 4420.2 4636.31 
4336.06 4273.35 4728.88 4991.89 4842.48 5003.05 4822.46 3587.79 3606.33 
3606.33 3605 3659.73 3659.73 3844.84 3898.14 3869.93 4008.21 4008.21 
4003.63 4050.64 3977.75 3921.73 4062.27 4070.58 4214.89 4139.79 4229.83 
3538.65 3618.11 3684.91 3699.35 3713.44 3778.91 3740.89 3764.49 3737.01 
3737.01 3728.77 3686.56 3728.57 3700.73 3816.72 3868.56 4043.74 4192.42 
4446.48 4606.58 4703.91 4845.89 4672.78 4694.42 4974.81 4860.52 5167.28 
5311.21 5295.2 6095.64 6037.09 5800.93 6266.78 6098.16 6195.05 6009.42 
6226.9 6350.91 6109.32 5986.74 5944.12 5570.59 3647.12 3900.1 3970.88 
4156.48 4351.25 4478.3 4600.21 4826.4 5064.81 5322.59 5120.75 5829.79 
5632.81 5639.1 4871.99 4859.43 4766.11 4591.12 4531.79 4390.23 4283.54 
4173.6 4173.6 4070.74 3975.43 3893.04 3887.64 3950.25 4011 4072.04 
4003.25 4122.37 4208.52 4243.47 4470.73 4547.38 4220.75 4826.46 4744.06 
4475.12 4381.37 4499.2 4908.59 5156.25 5612.8 5836.02 5935.38 5957.93 
6263.88 6035.48 5627.16 5336.12 5307.86 5271.42 5105.07 4926.72 4974.52 
4858.58 4825.11 4902.32 4747.68 4893.98 4917.47 4808.56 4937.32 4715.56 
4912.59 4789.86 4509.96 4633.07 4504.02 4504.02 4390.17 4474.51 4474.51 
4584.36 4695.84 4328.58 4744.42 4603.73 4798.63 4885.09 5091.23 4899.07 
4640.65 4713.22 4710.31 4745.86 4786.56 4711.05 4583.59 4389.74 4367.51 
4335.54 4531.1 4451.85 4944.32 6112.53 6082.51 6213.16 6108.79 6221.95 
6131.69 5720.79 5736.31 5504.12 4923.04 4772.74 4608.57 4499.52 4539.06 
4470.27 4549.04 4820.63 4637.58 4825.3 4468.35 4468.35 4145.06 3985.1 
3899.93 3880.41 3956.11 4148.26 4013.22 4106.86 4043.6 4016.32 4107.21 
4068.75 3989.91 4036.81 4123.49 4091.41 5998.16 5964.1 5153.42 5112.47 
4521.17 4347.7 4552.05 4466.7 4395.65 4395.65 4354.3 4327.27 4278.96 
4617.89 4617.89 4893.41 4919.67 4598.53 5089.01 5057.02 4685.36 4844.67 
4634.1 4731.53 4921.04 4590.05 4623.12 4899.64 4720 4717.12 4843.7 
4874.49 4706.62 4595.17 4491.42 5493.35 5282.74 5134.79 5365.8 5180.05 
5046.8 4904.06 4766.63 4804.05 4712.68 4712.68 4638.25 4713.07 4659.85 
4681.62 4800.84 4723.98 4552.43 4984.63 4970.17 4763.64 4763.64 4557.63 
4365.48 4096.46 3937 3909.65 3847.68 3963.95 4037.01 4621.48 4818.77 
4775.04 4747.12 4270.26 4256.43 4294.67 4511.16 4598.51 4407.38 4140.01 
4155.73 4154.62 4307.1 4307.1 4615.28 4615.28 4798.25 4739.75 4488.09 
4269.57 4466.43 4314.75 4274.16 4274.16 4084.59 3996.09 3789.35 3741.91 
3900.48 4094.91 4178.09 4058.41 4024.27 4027.48 4106.12 4316.43 4437.65 
4201.49 4322.19 4362.26 4175.32 4175.32 4126.88 4229.27 4300.52 4727.8 
4387.06 4374.3 4085.48 3974.07 3974.94 4151.9 4210.57 4163.49 4176.94 
4400.86 4400.86 4343.83 4220.51 4220.51 4201.28 4423.98 4604.95 4726.93 
4891.17 4898.54 4572.79 4731.38 4560.6 3937.43 3937.43 4642.27 4124.02 
3872.41 
rGFP 1 415 double
4924.1 4720.4 5484.49 5117.46 5344.17 4952.9 5049 5583.7 4709.11 
5614.48 5883.01 5923 6040.99 5898.11 5714.33 5710.8 5185.52 4432.8 
5511.62 4133.85 4194.38 4485.14 4251.64 4952.3 4777.12 4843.69 4862.7 
4862.7 4898.12 4898.12 5057.46 5199.65 5318.16 5430.43 5588.43 5736.78 
5963.31 5993.51 6228.91 6036.89 5819.17 6013.44 5554.47 5460.42 5686.72 
5552.59 5784.14 5801.31 5682.96 5682.96 5684.06 5625.86 5577.02 5652.46 
5648.9 5613.74 5555.9 5446.05 5336.72 5564.68 5241.81 5428.83 5356.37 
5316.41 5203.05 5203.05 5231.88 5103.27 5103.27 5266.94 5392.95 5177.28 
4937.79 5146.06 5415 5435.36 5732.74 5437.47 5412.31 4250.41 4273.09 
4273.09 4317.12 4367.59 4367.59 4316.07 4295.63 4348.11 4416.17 4416.17 
4481.28 4637.4 4597.27 4563.05 4612.33 4644.12 4659.98 4624.67 4615.59 
4237.7 4369.27 4460.96 4565.74 4551.96 4591.12 4600.21 4553.83 4426.79 
4426.79 4509.51 4599.9 4629.98 4818.67 4659.83 4740.8 4990.25 4799.64 
4812.62 5025.38 5125.04 5156.53 5332.21 5378.88 5312.54 5357.94 5238.33 
5356.98 5647.1 5714.63 5820.86 6154.16 6195.9 6340.95 6084.09 6058.86 
6127.22 5886.46 5674.74 5753.6 5865.86 5986.65 4569.68 5010.15 5143.69 
5065.63 4932.47 4877.51 4768.81 4975.54 5312.1 5509.21 5794.37 5799.84 
6016.83 5959.33 5701.96 5619.86 5517.35 5578.11 5117.15 5351.23 5050.14 
5055.05 5055.05 4929 4947.93 5133.37 5085.04 5074.54 5065.77 4959.77 
5147.63 5167.99 5094.77 5190.7 5298.23 5381.23 5427.73 5745.67 5545.53 
5329.4 5112.73 5164.74 5127.96 5349.41 5536.96 6163.65 6508.47 6730.77 
6607.96 6599.19 6101.43 5739.05 5956.62 5385.77 5474.57 5603.74 5274.56 
5658 5528.59 5586.32 5733.96 5358.32 5425.6 5683.54 5468.44 5541.56 
5552.09 5674.49 5842.64 5836.84 5606.81 5606.81 5365.46 5267.53 5267.53 
5355.4 5531.44 5656.44 5594.06 5719.52 5608.11 5459.7 5589.83 5495.74 
5500.84 5486.27 5615.83 5636.56 5573.89 5343.01 5498.17 5400.93 5448.06 
5414.37 5367.98 5380.89 5492.4 5893.63 6220.2 6140.49 6422.95 6292.38 
6192.15 6371.85 6003 5736.99 5929.33 5724.32 5525.67 5695.58 5413.38 
5576.01 5559.47 5658.09 5886.59 5500.93 5750.47 5750.47 5500.68 5849.72 
5857.54 5914.85 5799.68 5644.77 5844.94 5595.72 5752.27 5670.36 5309.38 
5077.44 5334.67 5137.46 5217.64 5444.74 5624.02 5364.69 5124.75 5041.43 
4923.63 4957.94 5012.74 5165.26 5316.4 5316.4 5509.84 5441.16 5514.19 
5613.09 5613.09 5610.2 5666.42 5971.91 5757.3 5685.33 5769.57 5586.15 
5586.47 5625.62 5468.64 5653.09 5668.14 5681.41 5859.53 5945.11 5931.64 
5926.31 5710.15 5469.81 5323.07 6057.65 6259.72 6155.79 5706.89 5677.6 
5230.11 5191.6 4882.04 4877.36 4793.05 4793.05 4731.77 5001.8 5106.3 
5479.85 5528.69 6085.69 5495.57 5246.42 5206.8 5292.09 5292.09 5359.12 
5175.7 4900.57 4574.41 4628.14 4572.17 4762.06 5181.51 5308.54 5622.79 
5747.23 5827.72 5526.16 5509.21 5192.26 5713.77 5725.93 5749.21 5320.54 
5041.47 4928.04 4965.81 4965.81 5168.91 5168.91 5431.62 5471.47 5527.68 
5285.12 5601.2 5258.04 5168.51 5168.51 5297.62 5438.69 5296.01 5163.96 
5226.72 5333.47 5031.65 5291.74 5049.59 4910.94 4855.99 4952.9 5272.95 
5414.36 5332.58 5313.06 5293.63 5293.63 5359.4 5378.16 5379.27 5265.79 