# vtk DataFile Version 3.0
vtk output
ASCII
DATASET POLYDATA
POINTS 688 float
0.347983 0.497595 1.25911 2.00849 0.95008 1.30998 2.13641 -0.99872 1.15627 
1.46362 -1.24942 0.893585 2.0573 1.18467 1.05743 -0.0745961 0.565065 0.669145 
0.173769 1.10627 0.71414 2.39455 1.61459 0.501126 -0.32929 0.669734 -0.147571 
0.132597 1.66004 -0.0646906 1.17114 -1.80229 -0.627652 2.62286 1.66991 -0.483258 
3.93423 -0.48499 -0.693886 4.79392 -0.251326 -0.635809 5.12822 -0.269161 -0.595347 
5.33064 0.427215 -0.746858 6.60012 -0.471853 -0.597404 6.81536 0.212453 -0.447391 
6.4738 -0.798159 -0.823593 1.69883 -1.9548 -1.33254 2.89171 -1.7131 -1.23281 
3.92002 0.543826 -1.04572 6.87421 -0.285732 -1.13693 6.13044 0.592597 -0.880608 
7.15391 -0.0459885 -1.00412 6.31247 0.871974 -0.85342 1.7202 -2.10022 -1.53893 
1.87185 -2.01645 -1.52363 5.75379 -1.1238 -1.19384 7.23322 -0.326418 -1.04559 
7.57487 0.201819 -1.19515 7.38717 -0.496208 -1.4442 7.50844 -0.608039 -1.4408 
7.3941 0.242784 -1.40721 1.27239 -1.46814 -2.14304 5.03976 -0.618918 -1.82383 
7.39514 -0.331121 -1.63625 7.37504 0.13464 -1.61474 2.02498 -1.46793 -2.28842 
2.07337 -1.34012 -2.47934 3.27411 0.152218 -2.45114 2.09209 1.27483 -2.54967 
1.92614 -0.893605 -3.00355 1.13945 0.313187 -2.86804 1.71567 0.452676 -2.81874 
3.32954 -0.0665269 -2.72558 1.15052 -0.493598 -3.10783 1.65318 0.268135 -3.10016 
1.90311 -0.493383 -3.25321 2.07278 -0.477403 -3.44072 1.98767 -0.485575 -3.34328 
1.56573 0.274415 -3.07406 1.507 0.299047 -3.06229 1.45518 0.324784 -3.0698 
1.38788 0.332484 -3.08677 1.31012 0.329814 -3.07031 1.22672 0.322816 -2.99499 
1.8986 -0.575705 -3.13118 1.90219 -0.649886 -3.02799 1.91884 -0.712147 -2.96787 
1.92686 -0.791295 -2.96376 1.86504 -0.4506 -3.15722 1.83942 -0.395164 -3.08945 
1.8142 -0.34043 -3.05886 1.8009 -0.273409 -3.04909 1.78821 -0.205951 -3.04669 
1.76647 -0.148337 -3.04545 1.75378 -0.0808788 -3.04305 1.74109 -0.0134199 -3.04066 
1.7195 0.0443842 -3.04187 1.70692 0.113676 -3.0493 1.69088 0.190463 -3.069 
1.66232 0.35794 -2.9959 1.68553 0.413223 -2.90222 1.97028 -0.963058 -2.93185 
2.00139 -1.02209 -2.86555 2.01748 -1.08566 -2.79562 2.03476 -1.14581 -2.71799 
2.04108 -1.21748 -2.63183 2.0491 -1.28753 -2.55289 1.8454 -0.922255 -2.91672 
1.80509 -0.976261 -2.83312 1.7686 -1.02731 -2.75899 1.72891 -1.07366 -2.69232 
1.69444 -1.1242 -2.63042 1.66558 -1.17904 -2.57576 1.62233 -1.21976 -2.5289 
1.59455 -1.27387 -2.489 1.5611 -1.32361 -2.44187 1.52094 -1.36804 -2.38752 
1.47755 -1.41036 -2.32588 1.42533 -1.44452 -2.26447 1.3532 -1.46033 -2.20364 
1.17524 -0.445311 -3.07388 1.18901 -0.388657 -3.02546 1.21201 -0.341389 -2.96937 
1.23407 -0.292528 -2.92072 1.23798 -0.226803 -2.89488 1.22755 -0.159668 -2.88489 
1.20603 -0.101976 -2.88363 1.19457 -0.0331816 -2.88108 1.18862 0.0416135 -2.87782 
1.17716 0.110415 -2.87527 1.15555 0.168175 -2.87401 1.14417 0.237057 -2.87145 
3.29455 -0.0198525 -2.64653 3.27818 0.0531458 -2.55489 1.13457 0.389156 -2.86465 
1.12004 0.454834 -2.85504 1.08074 0.494019 -2.83369 1.02952 0.520909 -2.79152 
1.00362 0.575576 -2.73866 0.984989 0.637937 -2.69234 0.953506 0.685625 -2.67 
0.921337 0.732341 -2.65518 0.896372 0.787123 -2.63201 0.854065 0.823712 -2.5887 
0.802308 0.850244 -2.53914 0.777705 0.906328 -2.48613 0.767046 0.97736 -2.43879 
0.750404 1.04211 -2.38476 0.716427 1.08822 -2.3255 0.681364 1.1336 -2.25147 
0.662154 1.19668 -2.16053 0.649827 1.26772 -2.05382 0.638727 1.34008 -1.94696 
0.627016 1.41156 -1.84762 0.608028 1.47534 -1.74176 0.576581 1.52647 -1.60769 
0.551941 1.58592 -1.44297 0.526757 1.645 -1.27087 0.493621 1.69481 -1.11468 
0.47011 1.75218 -0.964859 0.44537 1.79351 -0.80847 0.40357 1.7915 -0.640609 
0.354149 1.78572 -0.480933 0.306558 1.75595 -0.352043 0.260262 1.7146 -0.253385 
0.205933 1.67907 -0.16246 3.22431 0.216728 -2.48385 3.17388 0.256085 -2.50793 
3.11669 0.276824 -2.52103 3.07635 0.314219 -2.52464 3.05211 0.368881 -2.53116 
3.01324 0.407169 -2.55444 2.95913 0.428195 -2.602 2.91454 0.45935 -2.65581 
2.876 0.497315 -2.70138 2.8359 0.534269 -2.72482 2.78929 0.564581 -2.73419 
2.73865 0.590743 -2.73663 2.70844 0.639135 -2.73646 2.67475 0.683741 -2.73674 
2.63555 0.722353 -2.73772 2.59528 0.759791 -2.73884 2.55608 0.798403 -2.73981 
2.52239 0.843009 -2.74009 2.49225 0.891481 -2.73992 2.44291 0.919059 -2.74219 
2.40387 0.95784 -2.74315 2.38176 1.01505 -2.74195 2.3568 1.06938 -2.73367 
2.3343 1.12685 -2.71018 2.29865 1.17068 -2.66603 2.25442 1.20541 -2.6155 
2.20278 1.23184 -2.57339 2.14241 1.24808 -2.55472 3.35099 0.139421 -2.31474 
3.40907 0.117714 -2.20743 3.4741 0.108398 -2.13122 3.54459 0.105074 -2.08406 
3.60239 0.0876153 -2.05092 3.63337 0.040283 -2.04354 3.66622 -0.00530004 -2.05081 
3.69558 -0.0520575 -2.06582 3.69801 -0.110055 -2.06851 3.67157 -0.159172 -2.05801 
3.63687 -0.202429 -2.05526 3.60775 -0.249253 -2.06715 3.58398 -0.298414 -2.10108 
3.53841 -0.326608 -2.143 3.49637 -0.356323 -2.19961 3.45307 -0.384878 -2.25627 
3.40071 -0.405936 -2.30578 3.36526 -0.445194 -2.33263 3.3472 -0.502212 -2.34422 
3.31881 -0.550573 -2.34869 3.28315 -0.592231 -2.35337 3.24616 -0.632655 -2.35809 
3.20908 -0.673005 -2.36281 3.17201 -0.713355 -2.36753 3.13493 -0.753705 -2.37225 
3.09786 -0.794055 -2.37697 3.0607 -0.834331 -2.3817 3.02221 -0.873373 -2.38646 
2.97637 -0.905644 -2.39142 2.91932 -0.927573 -2.39671 2.87205 -0.958528 -2.40171 
2.82479 -0.989485 -2.40672 2.76828 -1.01105 -2.41938 2.72407 -1.04223 -2.44648 
2.68876 -1.07901 -2.49551 2.65399 -1.11543 -2.55193 2.61141 -1.14551 -2.60117 
2.55598 -1.16635 -2.62858 2.50926 -1.19694 -2.64097 2.462 -1.2279 -2.64598 
2.40433 -1.25012 -2.64388 2.35536 -1.2821 -2.62675 2.30334 -1.31386 -2.58754 
2.23222 -1.32887 -2.54145 2.15297 -1.33551 -2.503 2.05798 -1.4117 -2.38733 
7.37526 0.0711421 -1.71454 7.3636 0.0152952 -1.78507 7.36166 -0.0513801 -1.81825 
7.37163 -0.118954 -1.82085 7.39098 -0.178096 -1.7926 7.39747 -0.250256 -1.72877 
7.29329 0.108013 -1.41509 7.22475 0.0501241 -1.21106 7.37632 0.196756 -1.5149 
7.39143 -0.413483 -1.54391 7.3842 -0.313237 -1.43539 7.32091 -0.315209 -1.23936 
5.11141 -0.603537 -1.87729 5.17267 -0.579426 -1.92364 5.24324 -0.564773 -1.96235 
5.3149 -0.549393 -2.01579 5.37839 -0.523892 -2.09167 5.45465 -0.507567 -2.18936 
5.53638 -0.497142 -2.27951 5.60992 -0.482638 -2.3403 5.66969 -0.459754 -2.36452 
5.73944 -0.447799 -2.37367 5.81565 -0.440943 -2.39003 5.88614 -0.426216 -2.42873 
5.93878 -0.394167 -2.47533 5.99088 -0.362483 -2.51455 6.05975 -0.348849 -2.53112 
6.13487 -0.342721 -2.53272 6.20345 -0.33142 -2.52712 6.25963 -0.308685 -2.52186 
6.31898 -0.289744 -2.50912 6.37203 -0.266719 -2.48177 6.42725 -0.24829 -2.43218 
6.47024 -0.220315 -2.36814 6.51262 -0.192637 -2.29673 6.56485 -0.174055 -2.22503 
6.60778 -0.146167 -2.161 6.65144 -0.120559 -2.10447 6.70684 -0.119467 -2.04829 
6.75639 -0.141028 -1.95151 6.8045 -0.166416 -1.77322 6.83919 -0.21497 -1.49048 
7.39014 0.319965 -1.39626 7.38325 0.394483 -1.36334 7.36564 0.455786 -1.29469 
7.32646 0.479811 -1.19227 7.27245 0.462919 -1.0781 7.2072 0.438487 -0.972559 
7.15342 0.403309 -0.889015 7.10019 0.368346 -0.81286 7.03654 0.342115 -0.729601 
6.98168 0.30606 -0.631313 6.92735 0.270369 -0.540396 6.86534 0.245231 -0.47928 
7.46527 0.241001 -1.33513 7.52854 0.230629 -1.26407 7.46802 -0.570762 -1.44193 
7.4276 -0.533485 -1.44307 7.32475 -0.505397 -1.51618 7.27157 -0.523978 -1.58051 
7.20554 -0.533309 -1.623 7.12858 -0.537738 -1.6165 7.04533 -0.53454 -1.53571 
6.95875 -0.474018 -1.36805 7.01722 -0.0404751 -1.07216 6.92842 -0.101226 -1.11515 
6.71348 -0.227917 -1.00957 6.6188 -0.232012 -0.871733 6.58842 -0.294391 -0.740716 
6.58668 -0.378427 -0.64956 7.14928 -0.333645 -0.965362 7.06779 -0.336211 -0.94422 
6.98105 -0.323845 -1.00949 7.22247 -0.25009 -0.976923 7.20146 -0.160614 -0.962898 
6.77407 -0.441574 -0.997072 6.68271 -0.491486 -0.81663 5.80125 -1.0958 -1.18896 
5.86053 -1.09207 -1.18442 5.91828 -1.10748 -1.18093 5.98766 -1.11308 -1.1761 
6.06386 -1.11143 -1.17041 6.14074 -1.1088 -1.15718 6.21661 -1.10682 -1.12919 
6.29077 -1.10585 -1.07907 6.36289 -1.10387 -1.0216 6.42537 -1.09214 -0.971806 
6.46062 -1.05299 -0.941248 6.46863 -0.985812 -0.915035 6.47103 -0.901222 -0.877223 
1.82726 -1.98257 -1.48806 1.7726 -1.95874 -1.42398 1.70924 -2.02769 -1.43205 
6.27276 0.829728 -0.821243 6.23594 0.787416 -0.811174 6.20683 0.740585 -0.823067 
6.18402 0.689677 -0.849566 6.147 0.651004 -0.869068 6.85192 -0.0661299 -0.835232 
6.83369 0.0564751 -0.61486 6.82215 0.136702 -0.497725 6.82235 -0.348787 -0.832768 
6.76203 -0.39555 -0.623865 6.68571 -0.426998 -0.557909 3.86264 0.56266 -1.04901 
3.8312 0.609709 -1.049 3.79751 0.654315 -1.04928 3.75962 0.69435 -1.05009 
3.7273 0.740453 -1.05019 3.70513 0.797589 -1.04901 3.6722 0.843254 -1.04174 
3.63145 0.880854 -1.02057 3.58791 0.916107 -0.977424 3.54499 0.95225 -0.926736 
3.50934 0.996087 -0.882582 3.48554 1.05214 -0.85926 3.45207 1.09743 -0.84461 
3.41131 1.13503 -0.823447 3.36832 1.17065 -0.787668 3.32702 1.20788 -0.759124 
3.2941 1.25355 -0.751864 3.27247 1.31105 -0.758047 3.23953 1.35671 -0.750788 
3.19824 1.39394 -0.722244 3.15517 1.42948 -0.686475 3.11366 1.46603 -0.672848 
3.07378 1.50367 -0.681364 3.03498 1.54204 -0.704633 2.9951 1.57968 -0.713149 
2.95406 1.61651 -0.706913 2.91063 1.6512 -0.686091 2.85917 1.67714 -0.666291 
2.78836 1.68249 -0.634054 2.70735 1.67764 -0.573335 2.92879 -1.67275 -1.22809 
2.96595 -1.63247 -1.22337 3.00444 -1.59343 -1.21861 3.05028 -1.56116 -1.21364 
3.10725 -1.53916 -1.20836 3.15309 -1.50689 -1.20339 3.19159 -1.46785 -1.19863 
3.22874 -1.42758 -1.19391 3.26582 -1.38723 -1.18919 3.30289 -1.34688 -1.18447 
3.33997 -1.30653 -1.17975 3.37704 -1.26618 -1.17503 3.41358 -1.22619 -1.16292 
3.44965 -1.18664 -1.14345 3.48643 -1.14862 -1.11656 3.53031 -1.1154 -1.10425 
3.57914 -1.08503 -1.10659 3.60758 -1.03499 -1.1169 3.64546 -0.996249 -1.10476 
3.69696 -0.973519 -1.06267 3.73007 -0.935576 -1.0063 3.744 -0.879064 -0.95787 
3.76199 -0.823717 -0.931506 3.77666 -0.764434 -0.912622 3.80326 -0.717023 -0.886016 
[...]
POINT_DATA 688
SCALARS DY_raw double
LOOKUP_TABLE default
870.677 702.923 677.809 1005.21 620.537 772.6 659.126 756.124 641.9 
1252.45 772.795 1375.2 744.137 1046.6 583.328 546.291 1244.36 921.372 
832.383 518.02 1368.28 687.253 832.316 640.912 770.626 432.513 599.479 
467.613 928.953 882.694 569.095 670.195 547.047 730.094 993.021 958.281 
785.297 634.078 1010.73 735.942 914.625 1003.52 539.552 945.972 846.307 
664.551 1608.64 792.311 688.739 704.885 611.533 868.585 950.002 1003.15 
809.824 839.161 795.729 674.313 763.513 757.749 648.051 676.79 755.923 
844.805 763.474 967.232 936.264 852.797 961.98 922.115 858.818 822.377 
847.711 818.479 503.232 539.34 587.865 560.259 681.412 720.627 701.695 
740.632 894.921 758.089 833.389 807.825 807.825 776.956 673.73 730.146 
793.13 768.036 909.043 1258.6 861.065 1045.56 926.546 858.082 970.016 
985.455 889.616 1152.37 1209.63 1115.15 1094.62 790.75 860.357 945.972 
832.127 832.127 874.396 769.772 822.337 805.677 720.387 758.521 781.828 
763.796 668.4 700.368 642.318 709.121 711.017 677.454 756.138 824.213 
780.58 654.547 573.885 627.782 614.765 654.84 779.76 758.088 863.892 
887.629 872.72 1048.51 1087.82 959.086 891.745 901.795 948.023 968.747 
968.747 938.029 844.314 758.527 853.995 853.995 841.886 892.724 892.724 
1070.2 985.137 985.137 1100 1100 1122.6 946.283 946.283 677.751 
607.143 667.078 745.87 871.25 871.25 976.106 895.704 894.534 872.429 
725.059 725.059 715.933 663.933 672.889 744.439 692.686 776.017 980.059 
861.016 866.487 949.47 840.906 1035.87 1136.5 1136.5 1175.22 1226.34 
1226.34 1279.92 1279.92 1291.66 1205.71 1205.71 1225.14 1273.07 1354.33 
1326.58 1251.78 1131.3 1081.76 1053.54 913.753 702.052 707.312 673.708 
598.473 724.999 704.134 723.844 738.596 882.593 637.569 640.449 692.765 
748.415 754.855 710.583 828.935 748.444 748.86 716.89 858.8 884.059 
784.947 743.147 715.404 759.371 763.382 859.764 836.409 760.761 706.625 
729.148 729.148 671.839 636.512 592.632 803.143 803.143 1098.64 1056.33 
1056.33 908.775 681.6 725.57 604.979 511.7 632.454 594.755 585.026 
657.726 815.393 918.354 689.523 697.7 712.519 748.917 791.403 807.974 
785.597 829.593 874.62 882.101 787.231 822.086 652.185 569.723 612.806 
670.195 898.893 862.617 914.355 869.666 846.892 767.717 746.469 780.472 
841.084 809.881 938.5 1119.98 850.504 753.96 752.813 783.926 708.302 
838.142 940.493 802.728 687.597 671.365 719.812 804.293 804.293 986.074 
957.211 1063.09 929.204 849.884 753.178 785.263 516.936 464.531 553.565 
432.513 474.957 508.412 562.985 562.985 930.442 882.968 829.119 812.698 
1014.66 1202.33 628.943 628.943 600.089 520.245 520.245 523.123 539.623 
539.623 601.39 699.404 760.35 753.211 753.211 760.08 690.182 690.182 
686.776 686.319 686.319 768.852 781.364 825.036 817.623 775.406 731.955 
639.076 678.416 644.459 738.485 892.887 1368.28 1040.89 937.606 937.606 
874.992 874.992 872.277 897.385 897.385 964.571 1009.98 1009.98 980.358 
862.38 862.38 835.776 768.722 751.962 823.349 896.856 998.467 981.843 
1141.42 1065.58 1050.24 1118.7 984.462 831.944 885.582 506.289 500.013 
529.042 592.806 594.928 640.633 645.237 1220.12 1073.15 1000.36 1011.78 
717.751 824.67 974.883 1151.41 1013.87 928.338 784.745 626.171 585.24 
876.78 1068.45 1068.03 913.22 966.489 845.777 963.828 916.914 875.704 
871.955 785.1 807.399 863.938 921.524 906.471 962.866 894.033 894.033 
958.933 899.773 899.773 789.249 789.249 728.462 715.673 771.702 821.225 
784.97 714.672 667.58 729.666 751.082 719.654 719.654 666.594 652.268 
579.802 728.689 916.309 897.698 1042.64 1142.9 1080.56 908.983 812.096 
794.661 794.661 785.789 715.528 717.535 726.401 719.15 795.884 722.595 
741.111 768.175 746.348 715.99 734.831 730.73 672.016 703.056 629.364 
665.064 623.473 694.489 748.397 713.946 865.324 917.405 871.049 846.073 
886.208 900.359 963.477 1043.27 801.449 801.449 704.611 562.994 628.179 
608.207 560.697 612.007 604.264 611.793 643.76 722.186 848.754 884.75 
755.559 703.972 675.612 745.46 683.739 620.608 624.418 728.648 675.558 
671.276 816.551 890.867 907.057 960.367 822.55 890.291 895.11 773.244 
656.419 656.419 685.395 680.041 689.314 677.846 655.041 688.393 667.78 
673.971 673.971 707.334 707.334 773.847 900.164 900.164 931.642 836.413 
836.413 818.283 791.899 791.899 817.851 777.886 777.886 687.207 687.207 
697.685 785.73 785.73 714.348 878.587 878.587 795.231 855.354 794.694 
794.694 784.283 734.657 771.225 857.532 981.934 1129.66 1129.66 1256.18 
1177.96 1073.36 998.579 868.012 999.906 840.829 794.572 990.893 938.293 
745.275 699.126 686.28 699.546 644.533 706.774 753.472 802.323 824.569 
803.869 813.246 794.788 773.984 694.35 708.212 678.324 678.324 679.585 
725.758 730.435 776.89 726.613 709.094 743.37 725.761 723.128 754.512 
950.485 1048.31 1115.75 1357.15 1424.21 1202.43 855.606 865.655 829.046 
867.694 981.232 1143.39 1154.45 1212.71 1084.81 1012.12 1020.7 986.17 
986.17 948.327 840.033 773.151 733.757 678.38 733.703 897.042 1058.8 
1032.06 987.901 992.516 585.796 600.09 1005.21 1092.11 1140.51 1182.7 
1012.9 1012.9 905.873 776.235 776.235 735.235 725.752 725.752 680.968 
737.845 777.912 769.183 769.183 832.32 996.062 950.174 1111.7 1102.39 
1152.02 1264.4 1359.47 1259.75 1410.76 1321.66 1399.62 1192.46 1192.46 
1119.73 1252.99 1107.73 1052.32 855.071 780.765 734.322 771.596 745.967 
781.205 800.23 747.284 747.284 697.775 677.809 732.057 770.501 740.56 
775.812 897.177 906.144 1038.32 988.015 1024.94 910.238 946.997 971.102 
1013.11 1013.11 980.152 919.046 961.625 873.152 824.8 862.004 884.317 
882.009 765.039 795.03 795.03 
FIELD FieldData 7
DY_minmax 1 688 double
0.372548 0.229916 0.208563 0.48693 0.159867 0.289158 0.192677 0.275149 0.178031 
0.697153 0.289324 0.801518 0.264958 0.52213 0.12823 0.0967398 0.690274 0.415652 
0.339988 0.0727023 0.795638 0.216592 0.339932 0.177191 0.28748 0 0.141963 
0.0298439 0.422097 0.382766 0.116128 0.202089 0.0973822 0.253018 0.476571 0.447034 
0.299954 0.17138 0.491628 0.25799 0.409915 0.485501 0.0910095 0.436568 0.351827 
0.19729 1 0.305918 0.217856 0.231584 0.152212 0.370769 0.439994 0.48518 
0.320808 0.345752 0.308824 0.20559 0.281432 0.276531 0.183261 0.207696 0.274979 
0.350551 0.281399 0.454644 0.428314 0.357345 0.450178 0.416283 0.362465 0.331481 
0.353021 0.328167 0.0601289 0.0908298 0.132088 0.108616 0.211626 0.244968 0.228871 
0.261978 0.393162 0.27682 0.340844 0.319109 0.319109 0.292862 0.205094 0.253062 
0.306614 0.285278 0.405169 0.702383 0.364376 0.521243 0.42005 0.361839 0.457011 
0.470138 0.388651 0.612059 0.660746 0.580412 0.562952 0.30459 0.363774 0.436568 
0.339771 0.339771 0.375711 0.286754 0.331448 0.317282 0.244764 0.277188 0.297004 
0.281673 0.200562 0.227743 0.178386 0.235186 0.236798 0.208261 0.275162 0.333043 
0.295943 0.188784 0.120201 0.166027 0.15496 0.189033 0.295247 0.276819 0.36678 
0.386962 0.374285 0.523747 0.557177 0.447718 0.390462 0.399006 0.438311 0.455932 
0.455932 0.429814 0.350133 0.277193 0.358364 0.358364 0.348069 0.391294 0.391294 
0.542192 0.469868 0.469868 0.567526 0.567526 0.586742 0.436832 0.436832 0.208513 
0.148479 0.199439 0.266431 0.373036 0.373036 0.462189 0.393827 0.392832 0.374038 
0.248737 0.248737 0.240978 0.196765 0.204379 0.265214 0.221212 0.292064 0.46555 
0.364334 0.368986 0.439542 0.347236 0.513 0.598561 0.598561 0.631486 0.674951 
0.674951 0.720506 0.720506 0.730489 0.657413 0.657413 0.673931 0.71468 0.783769 
0.760178 0.696582 0.594139 0.552025 0.528025 0.409173 0.229175 0.233648 0.205076 
0.141107 0.248686 0.230946 0.247703 0.260246 0.38268 0.174349 0.176797 0.221279 
0.268595 0.274071 0.236429 0.337057 0.26862 0.268973 0.241791 0.36245 0.383926 
0.299656 0.264116 0.240528 0.277911 0.281321 0.36327 0.343412 0.279093 0.233063 
0.252214 0.252214 0.203487 0.17345 0.136141 0.315127 0.315127 0.566371 0.530396 
0.530396 0.404941 0.211786 0.249172 0.146639 0.0673282 0.17 0.137946 0.129674 
0.191487 0.325543 0.413085 0.218522 0.225475 0.238075 0.269022 0.305145 0.319235 
0.300209 0.337617 0.3759 0.382262 0.301598 0.331234 0.186776 0.116662 0.153294 
0.202089 0.396539 0.365695 0.409685 0.371689 0.352325 0.285007 0.26694 0.295852 
0.347387 0.320857 0.430214 0.584515 0.355396 0.27331 0.272335 0.298788 0.234489 
0.344886 0.431909 0.314775 0.216885 0.203083 0.244275 0.316106 0.316106 0.470664 
0.446123 0.536151 0.422311 0.354869 0.272645 0.299925 0.0717804 0.0272236 0.102924 
0 0.0360879 0.064533 0.110934 0.110934 0.423363 0.382999 0.337214 0.323252 
0.494966 0.654535 0.167014 0.167014 0.142481 0.0745939 0.0745939 0.0770406 0.0910704 
0.0910704 0.143588 0.226924 0.278743 0.272673 0.272673 0.278514 0.219082 0.219082 
0.216187 0.215798 0.215798 0.285971 0.29661 0.333742 0.327439 0.291544 0.2546 
0.17563 0.209079 0.180207 0.260152 0.391433 0.795638 0.517268 0.429455 0.429455 
0.376217 0.376217 0.373909 0.395257 0.395257 0.452381 0.490992 0.490992 0.465805 
0.365494 0.365494 0.342874 0.285862 0.271611 0.332308 0.394807 0.481202 0.467067 
0.602747 0.538264 0.525222 0.583434 0.469293 0.339616 0.385221 0.0627282 0.0573914 
0.0820735 0.136289 0.138093 0.176954 0.180868 0.66966 0.544703 0.482814 0.492523 
0.242524 0.333431 0.461149 0.611244 0.494298 0.421574 0.299485 0.164657 0.129856 
0.377738 0.540702 0.540346 0.40872 0.454012 0.351377 0.45175 0.411861 0.376822 
0.373635 0.299786 0.318746 0.366818 0.415781 0.402982 0.450932 0.392406 0.392406 
0.447588 0.397287 0.397287 0.303315 0.303315 0.25163 0.240756 0.288395 0.330501 
0.299676 0.239905 0.199865 0.252654 0.270862 0.244142 0.244142 0.199027 0.186847 
0.125232 0.251823 0.411347 0.395523 0.518761 0.604003 0.551 0.405117 0.32274 
0.307916 0.307916 0.300373 0.240633 0.24234 0.249878 0.243713 0.308955 0.246642 
0.262385 0.285396 0.266837 0.241025 0.257046 0.253559 0.203637 0.230029 0.167372 
0.197726 0.162363 0.222745 0.26858 0.239288 0.367997 0.412279 0.372864 0.351629 
0.385753 0.397785 0.451451 0.519291 0.313687 0.313687 0.231351 0.110941 0.166364 
0.149384 0.108988 0.152615 0.146031 0.152433 0.179613 0.246294 0.353908 0.384513 
0.274669 0.230807 0.206695 0.266083 0.213604 0.159928 0.163167 0.251788 0.206649 
0.203008 0.326528 0.389715 0.403481 0.448807 0.331628 0.389225 0.393322 0.289706 
0.190376 0.190376 0.215013 0.21046 0.218344 0.208594 0.189204 0.217561 0.200036 
0.2053 0.2053 0.233666 0.233666 0.290218 0.397619 0.397619 0.424384 0.343416 
0.343416 0.328001 0.305567 0.305567 0.327633 0.293653 0.293653 0.216553 0.216553 
0.225462 0.300322 0.300322 0.23963 0.379274 0.379274 0.308401 0.35952 0.307944 
0.307944 0.299091 0.256898 0.287989 0.361372 0.467145 0.592745 0.592745 0.700321 
0.633814 0.54488 0.481297 0.370283 0.482425 0.34717 0.30784 0.474762 0.430039 
0.265926 0.226687 0.215765 0.227044 0.18027 0.23319 0.272895 0.314431 0.333345 
0.315745 0.323717 0.308024 0.290335 0.222627 0.234412 0.209 0.209 0.210072 
0.249331 0.253307 0.292806 0.250058 0.235162 0.264306 0.249333 0.247094 0.273779 
0.440404 0.523577 0.580922 0.78617 0.843189 0.65462 0.359734 0.368278 0.337151 
0.370012 0.466548 0.604418 0.613828 0.663363 0.554614 0.492812 0.500103 0.470746 
0.470746 0.43857 0.346493 0.289627 0.256132 0.209048 0.256086 0.394965 0.532503 
0.509761 0.472217 0.476142 0.130329 0.142482 0.48693 0.560823 0.601977 0.637845 
0.493472 0.493472 0.402473 0.292249 0.292249 0.257389 0.249326 0.249326 0.211248 
0.259608 0.293675 0.286253 0.286253 0.339935 0.479157 0.440141 0.577481 0.569561 
0.61176 0.707307 0.788145 0.703355 0.831756 0.755997 0.822283 0.646141 0.646141 
0.584308 0.697607 0.574105 0.526986 0.359279 0.296101 0.256612 0.288305 0.266514 
0.296474 0.312651 0.267634 0.267634 0.225539 0.208563 0.254687 0.287373 0.261916 
0.291889 0.39508 0.402704 0.515087 0.472315 0.503709 0.406185 0.437439 0.457935 
0.493649 0.493649 0.465629 0.413674 0.449877 0.374653 0.333541 0.365174 0.384146 
0.382183 0.282729 0.308229 0.308229 
WidthEq 1 688 double
3.30755 3.20761 4.49773 3.14663 1.30838 4.71716 4.93707 3.78318 5.65051 
2.93761 5.66719 2.51869 4.59767 2.69231 4.38719 3.58159 4.37759 4.30807 
4.13434 7.32304 1.90455 3.50118 7.11472 4.53611 5.89815 3.49966 4.14311 
5.63126 3.49293 4.70991 5.91026 5.92975 4.61535 6.33129 4.6937 3.13721 
4.34055 5.187 3.57457 4.89839 3.71986 3.06869 5.46109 4.17073 1.5531 
2.67463 1 4.40293 3.92742 2.1756 3.20439 4.49931 4.0681 3.96692 
4.20859 4.36425 4.36443 4.42364 4.34734 4.54618 5.19595 4.37004 4.34108 
4.15096 4.20731 3.84649 4.04288 4.1454 4.37923 4.67492 4.71828 4.83467 
3.42289 2.59605 5.6439 5.64161 5.08295 5.11695 4.69025 4.99436 5.20865 
5.09243 4.63483 5.28718 5.07769 5.21824 5.21824 5.40205 6.12297 5.97194 
5.75045 5.73343 5.03321 1.708 3.4728 3.13259 3.91209 4.54267 4.20345 
4.15821 4.4594 3.44413 3.29123 3.61231 3.70283 2.86154 3.44021 4.17073 
4.34547 4.34547 4.29883 4.50545 4.3993 4.44945 4.39228 4.34231 4.33452 
4.56485 4.68036 4.69563 4.60803 4.45413 4.51446 4.76848 4.68756 4.68047 
5.051 6.2197 7.06621 7.03712 7.41631 7.46365 6.8185 6.67596 5.6673 
5.57771 5.50094 4.07524 3.83069 3.77159 3.92151 3.94814 3.94094 3.98939 
3.98939 4.07155 4.277 4.38982 4.33265 4.33265 4.45121 4.26255 4.26255 
3.46338 3.23329 3.23329 2.64321 2.64321 2.4205 2.56181 2.56181 3.17618 
4.10168 4.00004 4.30082 3.98354 3.98354 3.58299 3.70886 3.50522 3.8558 
4.08735 4.08735 4.52359 4.72542 4.75456 4.44957 4.5556 4.26471 3.72021 
3.99834 3.98219 3.78891 3.97055 3.61816 3.35817 3.35817 3.25735 3.14125 
3.14125 3.03007 3.03007 2.97278 3.15014 3.15014 3.12141 3.01538 2.8039 
2.96447 3.07308 3.32634 3.1859 3.28169 3.41353 4.03802 3.98494 4.34517 
4.9974 4.55888 5.11204 5.15388 4.95978 4.07471 4.82805 4.35331 3.96446 
3.57322 3.5154 3.84971 5.0833 5.6903 5.4842 4.9077 4.04685 4.3347 
4.18981 4.41311 4.50422 4.38766 4.30649 3.67931 3.62103 3.97599 4.27759 
4.41065 4.41065 4.14124 3.67644 3.63958 2.55544 2.55544 2.36473 2.87939 
2.87939 3.6277 4.98628 4.962 5.82746 5.6635 5.31357 5.4031 5.61206 
5.8401 6.05386 6.24995 6.59983 6.48104 6.61358 6.41714 5.76514 5.65297 
5.79879 5.01788 4.81167 4.74765 5.1018 4.84894 6.12882 6.15545 5.91922 
5.92975 4.98102 4.89272 4.80792 5.07611 5.47484 6.43668 6.81564 7.25609 
5.7092 5.25096 5.40029 4.98476 5.44541 6.4172 6.65027 5.39643 5.64331 
6.49654 5.65501 4.3433 5.00513 4.83332 4.23961 3.44138 3.44138 2.52893 
2.54502 2.62589 3.79851 4.38075 4.69797 4.46519 6.07505 7.76735 6.75378 
3.49966 4.57585 5.35629 5.1293 5.1293 5.98177 5.80172 5.83624 6.90798 
5.7075 4.9328 4.56116 4.56116 4.90044 4.99436 4.99436 5.15686 5.0963 
5.0963 4.73197 4.35582 4.10473 4.23973 4.23973 4.41756 4.97095 4.97095 
5.19806 5.42089 5.42089 5.06364 4.93444 4.71652 4.59855 4.78545 4.92314 
5.55349 5.41498 5.69867 5.48491 4.52886 1.90455 3.1612 3.72015 3.72015 
4.31978 4.31978 4.33862 4.04065 4.04065 3.58527 3.39802 3.39802 3.44197 
3.78095 3.78095 3.86188 4.03925 4.07711 3.7596 3.63355 3.37315 3.33465 
3.04809 3.2859 3.51049 3.425 3.9063 4.58287 4.41569 7.89088 7.77566 
7.71323 7.24451 6.78181 6.72581 6.83553 4.15657 4.29947 3.87856 3.83508 
4.07477 3.96996 3.33722 2.58206 2.58505 2.23915 2.57633 3.35519 4.01251 
4.80909 3.90647 3.74824 4.00437 3.68446 3.94621 3.71822 3.89354 3.88377 
3.67457 4.40234 4.0623 3.28549 2.92795 3.55918 3.37912 4.05669 4.05669 
3.78581 4.01637 4.01637 4.30784 4.30784 4.56894 4.40018 3.85755 3.68112 
3.71471 3.66679 3.61763 3.44875 3.35062 3.53296 3.53296 4.02626 4.22627 
4.37946 4.04358 3.35928 3.14886 2.43495 2.28304 2.24483 2.24208 2.33729 
2.26034 2.26034 2.44583 3.23253 3.30533 4.35032 4.7916 4.47531 4.20526 
3.77352 3.88067 3.96897 3.84006 3.89518 3.84801 4.08688 4.00045 4.26261 
4.21755 4.31486 3.92631 3.83532 3.47468 2.8867 2.8695 2.65731 2.60617 
2.64778 2.46655 2.3061 2.22236 2.52828 2.52828 2.67147 2.99232 2.96277 
3.19871 3.72952 3.68973 3.91314 3.8572 3.8314 3.50546 3.22124 3.26577 
3.32405 3.3216 3.19222 5.14048 4.78463 5.02327 4.52681 4.4532 4.5336 
4.40638 4.01584 3.74011 3.76153 3.68961 3.97067 4.4797 3.98442 3.93696 
5.01033 5.01033 5.22398 5.86766 5.77006 5.92911 5.91846 5.60931 5.51294 
5.36699 5.36699 4.81606 4.81606 4.35594 3.6679 3.6679 3.51956 3.41405 
3.41405 3.50674 3.75193 3.75193 4.10356 4.66175 4.66175 5.64875 5.64875 
5.87738 5.25259 5.25259 5.08014 4.34623 4.34623 4.98002 5.62499 6.42182 
6.42182 6.60252 6.22678 5.48859 4.3402 3.36537 2.82766 2.82766 2.64058 
3.1007 3.75199 4.14569 4.73138 4.38116 5.04738 4.22434 3.58159 3.79927 
4.75643 5.13802 5.71587 5.41662 5.46015 5.26348 4.79195 4.80945 4.89547 
4.87358 4.61728 4.7198 4.59738 4.92724 5.10215 5.35945 5.35945 5.60533 
5.3461 5.06791 4.73045 4.70798 4.65994 4.43108 4.37894 4.11152 3.99922 
3.03422 2.52419 2.45467 1.68529 1.56551 1.685 2.58452 2.55485 2.90543 
3.42441 3.1674 2.97641 2.89407 2.73894 2.78348 2.84849 2.76569 2.89758 
2.89758 2.96868 3.23294 3.66813 4.12895 4.64384 4.83133 3.98816 3.13212 
2.71127 2.75164 2.90701 1.94475 2.58194 3.14663 2.36531 2.27011 1.98835 
2.28216 2.28216 2.67019 3.38819 3.38819 3.79798 3.79102 3.79102 3.86487 
3.79775 3.61605 3.45314 3.45314 3.1622 2.58832 2.67861 2.27731 2.30498 
2.22487 2.18772 2.03464 2.22078 2.01971 2.08479 1.9478 2.09421 2.09421 
2.18222 2.23283 2.66831 2.896 3.75895 3.60178 3.89746 3.5631 3.51195 
3.53998 3.82917 4.18542 4.18542 4.53272 4.49773 3.2282 3.233 3.41721 
3.48264 3.154 3.08121 2.77423 2.68938 2.51769 2.44045 2.516 2.33237 
2.42705 2.42705 2.50774 2.90929 2.64397 2.88255 2.96897 2.92023 2.92158 
2.99139 3.3594 3.19772 3.19772 
rRFP 1 688 double
2814.91 2797.83 3018.3 2787.41 2473.27 3055.8 3093.38 2896.19 3215.3 
2751.69 3218.15 2680.1 3035.38 2709.77 2999.41 2861.74 2997.77 2985.89 
2956.2 3501.12 2575.15 2848 3465.52 3024.86 3257.62 2847.74 2957.7 
3212.01 2846.59 3054.56 3259.69 3263.02 3038.4 3331.64 3051.79 2785.8 
2991.44 3136.09 2860.54 3086.77 2885.37 2774.09 3182.93 2962.42 2515.09 
2706.75 2420.57 3002.1 2920.84 2621.47 2797.28 3018.57 2944.88 2927.59 
2968.89 2995.49 2995.52 3005.64 2992.6 3026.58 3137.62 2996.48 2991.53 
2959.04 2968.67 2907.01 2940.57 2958.09 2998.05 3048.58 3055.99 3075.88 
2834.62 2693.32 3214.17 3213.78 3118.31 3124.12 3051.2 3103.17 3139.79 
3119.93 3041.73 3153.21 3117.41 3141.43 3141.43 3172.84 3296.04 3270.23 
3232.38 3229.47 3109.81 2541.56 2843.15 2785.01 2918.22 3025.98 2968.01 
2960.28 3011.75 2838.25 2812.12 2866.99 2882.46 2738.69 2837.58 2962.42 
2992.28 2992.28 2984.31 3019.62 3001.48 3010.05 3000.28 2991.74 2990.41 
3029.77 3049.51 3052.12 3037.15 3010.85 3021.16 3064.57 3050.74 3049.53 
3112.85 3312.57 3457.23 3452.26 3517.06 3525.15 3414.9 3390.54 3218.17 
3202.86 3189.74 2946.1 2904.31 2894.21 2919.83 2924.38 2923.15 2931.43 
2931.43 2945.47 2980.58 2999.86 2990.09 2990.09 3010.35 2978.11 2978.11 
2841.54 2802.22 2802.22 2701.38 2701.38 2663.32 2687.47 2687.47 2792.46 
2950.62 2933.25 2984.65 2930.43 2930.43 2861.98 2883.49 2848.69 2908.6 
2948.17 2948.17 3022.72 3057.21 3062.19 3010.07 3028.19 2978.48 2885.43 
2932.96 2930.2 2897.17 2928.21 2867.99 2823.56 2823.56 2806.33 2786.49 
2786.49 2767.49 2767.49 2757.7 2788.01 2788.01 2783.1 2764.98 2728.84 
2756.28 2774.84 2818.12 2794.12 2810.49 2833.02 2939.74 2930.67 2992.23 
3103.69 3028.75 3123.28 3130.43 3097.26 2946.01 3074.75 2993.62 2927.17 
2860.31 2850.43 2907.56 3118.37 3222.1 3186.88 3088.36 2941.25 2990.44 
2965.68 3003.84 3019.41 2999.49 2985.62 2878.44 2868.48 2929.14 2980.68 
3003.42 3003.42 2957.38 2877.95 2871.65 2686.38 2686.38 2653.79 2741.74 
2741.74 2869.62 3101.79 3097.64 3245.54 3217.52 3157.72 3173.02 3208.73 
3247.7 3284.23 3317.74 3377.53 3357.23 3379.88 3346.31 3234.89 3215.72 
3240.64 3107.19 3071.95 3061.01 3121.53 3078.32 3297.04 3301.59 3261.22 
3263.02 3100.89 3085.8 3071.31 3117.14 3185.28 3349.65 3414.41 3489.68 
3225.33 3147.02 3172.54 3101.53 3180.25 3346.32 3386.15 3171.88 3214.07 
3359.88 3216.07 2991.91 3105.01 3075.65 2974.19 2837.78 2837.78 2681.85 
2684.6 2698.42 2898.81 2998.31 3052.52 3012.74 3287.85 3577.05 3403.84 
2847.74 3031.65 3165.02 3126.23 3126.23 3271.91 3241.14 3247.04 3430.19 
3225.04 3092.65 3029.14 3029.14 3087.12 3103.17 3103.17 3130.94 3120.59 
3120.59 3058.33 2994.05 2951.14 2974.21 2974.21 3004.6 3099.17 3099.17 