# vtk DataFile Version 3.0
vtk output
ASCII
DATASET POLYDATA
POINTS 380 float
0.442199 -1.41531 0.326984 0.0290917 -1.16916 0.325447 0.302254 -0.88638 0.764672 
0.351634 -1.2218 -0.326934 -0.204286 -0.952976 -0.297869 0.375607 -0.766824 -0.826829 
-0.278513 -0.496022 -0.620475 -0.73618 0.044572 -0.0267098 0.0752886 -0.0980859 -1.01057 
3.26607 0.135302 -0.460951 3.45965 0.297704 -0.172083 5.0282 0.330727 -0.323007 
1.1952 0.344522 -1.30713 -0.358691 0.610962 -0.727641 1.25137 0.582963 -1.03499 
2.60304 1.11915 0.131011 2.56606 1.04784 0.208708 2.54045 1.00689 0.285321 
2.50568 0.99715 0.337253 2.45745 1.00384 0.366426 2.391 1.01205 0.374301 
2.32313 1.01984 0.38077 2.26443 1.03029 0.396383 2.19473 1.03079 0.404136 
2.11954 1.01616 0.412622 2.05584 0.991305 0.43879 2.0137 0.979441 0.483364 
1.95355 0.982693 0.500641 1.88939 1.0051 0.504592 1.84013 1.03181 0.523417 
1.7908 1.0585 0.542165 1.7253 1.08052 0.544781 1.65909 1.10911 0.54358 
1.60149 1.13341 0.554072 1.53276 1.14773 0.556573 1.45662 1.15308 0.55464 
1.38053 1.15755 0.550294 1.31151 1.15908 0.539539 1.25336 1.15621 0.519174 
1.18443 1.15771 0.508349 1.10964 1.16159 0.502703 1.0407 1.16309 0.491878 
0.982625 1.16018 0.47145 0.915002 1.16115 0.459464 0.84745 1.1621 0.447416 
0.790761 1.15863 0.425757 0.730368 1.15666 0.407376 0.675614 1.15956 0.381937 
0.617709 1.17089 0.357219 0.571772 1.19167 0.317776 0.525834 1.21245 0.278334 
0.469665 1.24454 0.245874 0.418032 1.26764 0.211472 0.369859 1.28932 0.174007 
0.343596 1.28781 0.121294 0.313162 1.28083 0.0743396 0.276322 1.26929 0.0351212 
0.238256 1.25826 -0.00301368 0.200032 1.24729 -0.0410086 0.159952 1.22992 -0.0752935 
0.111609 1.20159 -0.098131 0.050673 1.15692 -0.103625 -0.00127123 1.10144 -0.115005 
-0.0526625 1.05289 -0.128943 -0.11194 1.02901 -0.142107 -0.1591 1.01451 -0.170128 
-0.197245 1.00351 -0.208193 -0.226848 0.989039 -0.253814 -0.244206 0.969594 -0.31027 
-0.265189 0.951622 -0.363517 -0.281638 0.924653 -0.418709 -0.302817 0.885296 -0.465579 
-0.313566 0.82024 -0.515473 -0.318935 0.745844 -0.568059 -0.329605 0.680756 -0.618023 
-0.349472 0.640866 -0.666053 1.1528 0.676094 -1.06138 1.06875 0.724445 -1.07726 
0.988639 0.715849 -1.07495 0.907767 0.679306 -1.06271 0.828236 0.643115 -1.04924 
0.75729 0.629712 -1.03651 0.698043 0.633171 -1.01848 0.630138 0.639998 -1.01466 
0.56247 0.641916 -1.02408 0.504461 0.639035 -1.04443 0.436837 0.640005 -1.05641 
0.368733 0.634016 -1.06591 0.309905 0.602795 -1.0774 0.24501 0.526309 -1.06983 
0.187409 0.381845 -1.05179 0.132069 0.165897 -1.02673 1.35345 0.673534 -1.04642 
1.42484 0.739878 -1.04431 1.48894 0.76961 -1.03571 1.54634 0.779981 -1.01666 
1.61527 0.778478 -1.00583 1.69137 0.774068 -1.00134 1.76746 0.769658 -0.996847 
1.83647 0.768123 -0.986092 1.89462 0.771001 -0.965726 1.96364 0.769466 -0.954971 
2.03918 0.758126 -0.947923 2.11353 0.732957 -0.93569 2.17784 0.690406 -0.908364 
2.22351 0.64827 -0.862481 2.26835 0.613627 -0.817931 2.32431 0.595931 -0.78942 
2.37045 0.596532 -0.756361 2.40997 0.606973 -0.719519 2.44828 0.617911 -0.681594 
2.4878 0.628352 -0.644753 2.53457 0.635853 -0.614314 2.59357 0.638384 -0.594703 
2.65019 0.64183 -0.573127 2.71724 0.633011 -0.561081 2.78348 0.605394 -0.557238 
2.83879 0.553404 -0.557439 2.90287 0.497117 -0.545935 2.96694 0.44083 -0.53443 
3.02222 0.386487 -0.533867 3.08835 0.321086 -0.518002 3.16831 0.237699 -0.490681 
1.25246 0.54496 -1.12345 1.25044 0.497326 -1.19577 1.23539 0.429245 -1.25479 
1.10693 0.316666 -1.30871 1.04202 0.293778 -1.3204 0.979028 0.281586 -1.31697 
0.919263 0.261435 -1.29151 0.845874 0.199881 -1.25962 0.768617 0.0898092 -1.20983 
0.698656 -0.0596844 -1.13657 0.625441 -0.228626 -1.07381 0.56371 -0.395036 -1.02315 
0.503357 -0.533193 -0.959986 0.434566 -0.655266 -0.897986 1.24269 0.281849 -1.35228 
1.28988 0.217055 -1.36749 1.34258 0.140182 -1.34271 1.38237 0.0474408 -1.29934 
1.417 -0.0520329 -1.28248 1.45975 -0.127048 -1.28344 1.51579 -0.165285 -1.28913 
1.56378 -0.192362 -1.30921 1.61256 -0.225976 -1.3254 1.67719 -0.275329 -1.31646 
1.74891 -0.336182 -1.29422 1.82133 -0.403551 -1.26801 1.89253 -0.470367 -1.24058 
1.95712 -0.527344 -1.20937 2.01189 -0.566014 -1.1736 2.07785 -0.587772 -1.15394 
2.14492 -0.595675 -1.1394 2.20356 -0.585836 -1.12153 2.27423 -0.566583 -1.11844 
2.35364 -0.529416 -1.12929 2.4336 -0.485307 -1.1427 2.50585 -0.445233 -1.14722 
2.56365 -0.4279 -1.13068 2.62155 -0.439235 -1.10595 2.665 -0.47331 -1.06017 
2.70065 -0.511388 -1.00543 2.73556 -0.541994 -0.952097 2.77205 -0.55178 -0.906363 
2.80964 -0.54771 -0.86574 2.84842 -0.529807 -0.830303 2.88897 -0.505479 -0.798504 
2.93593 -0.476595 -0.774442 2.98604 -0.456137 -0.751096 3.01443 -0.42687 -0.70854 
3.04708 -0.392162 -0.671815 3.08668 -0.345986 -0.645378 3.12806 -0.293366 -0.622587 
3.16944 -0.240754 -0.599791 3.21037 -0.176011 -0.579989 3.24383 -0.0936126 -0.556885 
3.25909 0.01476 -0.517372 4.97192 0.253845 -0.264562 4.90734 0.201661 -0.22684 
4.84911 0.185155 -0.198322 4.78769 0.188039 -0.182311 4.73215 0.206165 -0.166654 
4.67238 0.229837 -0.158313 4.6185 0.268752 -0.150326 4.55929 0.299357 -0.144543 
4.5043 0.324415 -0.131444 4.44232 0.320366 -0.112875 4.38457 0.310771 -0.0869912 
4.32149 0.292813 -0.0634564 4.26434 0.289202 -0.042689 4.20319 0.286179 -0.0426302 
4.14776 0.283126 -0.0628835 4.08745 0.281182 -0.0811887 4.03214 0.277149 -0.104071 
3.97258 0.267686 -0.121124 3.92277 0.240015 -0.142518 3.87125 0.192449 -0.153828 
3.80859 0.15422 -0.142213 3.74961 0.143257 -0.1203 3.68206 0.171401 -0.122989 
3.60916 0.218377 -0.140195 3.535 0.264979 -0.158657 3.45938 0.271321 -0.243651 
3.45071 0.248346 -0.307796 3.42363 0.230432 -0.355047 3.39186 0.206643 -0.397768 
3.35196 0.17044 -0.440143 3.44507 0.293789 -0.100005 3.41196 0.270991 -0.0402066 
3.36948 0.231943 0.0164574 3.32382 0.185209 0.0730696 3.27124 0.136476 0.122768 
3.20943 0.0850898 0.163251 3.16505 0.0387214 0.22113 3.13817 -0.00259771 0.296478 
3.10387 -0.0392829 0.361315 3.07076 -0.0620808 0.421114 3.04799 -0.0683585 0.485018 
3.01464 -0.0776889 0.538361 2.97325 -0.102873 0.589903 2.93005 -0.135364 0.642746 
2.88732 -0.160935 0.692952 2.84626 -0.165717 0.735488 2.80574 -0.163576 0.775469 
2.76467 -0.168358 0.818005 2.72195 -0.193929 0.868211 2.67859 -0.226463 0.920902 
2.6339 -0.259374 0.972254 2.58149 -0.287738 1.0128 2.50975 -0.328451 1.03716 
2.42927 -0.378459 1.0559 2.34815 -0.435421 1.07713 2.27389 -0.490408 1.10519 
2.2107 -0.535428 1.14119 2.13754 -0.57655 1.16414 2.05801 -0.612737 1.17762 
1.97674 -0.656198 1.19247 1.89666 -0.699327 1.2085 1.82414 -0.733546 1.22883 
1.76508 -0.744476 1.25081 1.70379 -0.74749 1.25087 1.64697 -0.749978 1.23184 
1.57812 -0.748456 1.22109 1.50333 -0.744576 1.21544 1.43439 -0.743073 1.20462 
1.37624 -0.74595 1.18425 1.30723 -0.744416 1.1735 1.23106 -0.739974 1.16907 
1.15358 -0.735002 1.16581 1.07603 -0.729998 1.16261 0.99855 -0.725027 1.15934 
0.922457 -0.720617 1.15485 0.854833 -0.719646 1.14286 0.805217 -0.72599 1.11495 
0.7556 -0.732333 1.08703 0.688055 -0.731395 1.07498 0.613346 -0.727546 1.06926 
0.54449 -0.726076 1.05837 0.487873 -0.729576 1.03664 0.430252 -0.732668 1.01581 
0.392036 -0.743641 0.977809 0.371793 -0.76432 0.924543 0.342852 -0.78893 0.880206 
0.31447 -0.827585 0.833676 -0.00276102 -0.197649 -0.925309 -0.0668941 -0.265425 -0.86535 
-0.130202 -0.300756 -0.831735 -0.181663 -0.332984 -0.78715 -0.229156 -0.39826 -0.716817 
0.10934 -0.327486 -0.974036 0.163014 -0.517719 -0.920069 0.229039 -0.650515 -0.872309 
0.300815 -0.727167 -0.842813 -0.698455 -0.127592 0.00838119 -0.642947 -0.273412 0.0543486 
-0.584269 -0.386206 0.104672 -0.53428 -0.465923 0.156931 -0.480802 -0.53269 0.202109 
-0.43901 -0.587563 0.25556 -0.403975 -0.632535 0.31292 -0.370457 -0.662576 0.367485 
-0.34259 -0.668861 0.420845 -0.325785 -0.656349 0.479858 -0.304802 -0.638377 0.533106 
-0.288353 -0.611406 0.588296 -0.267095 -0.572083 0.635098 -0.25449 -0.500628 0.681282 
-0.239746 -0.401423 0.717302 -0.212694 -0.271441 0.732092 -0.194443 -0.109319 0.746253 
-0.182476 0.0829918 0.755038 -0.179483 0.279423 0.751614 -0.195549 0.45766 0.716195 
-0.219613 0.598896 0.643135 -0.238688 0.71712 0.551715 -0.248117 0.81613 0.453234 
-0.271367 0.899248 0.373038 -0.312249 0.946595 0.320852 -0.369167 0.950365 0.297329 
-0.418615 0.908187 0.279603 -0.462011 0.849228 0.260662 -0.504103 0.789748 0.240564 
-0.546115 0.730236 0.220397 -0.589706 0.649904 0.207829 -0.633652 0.548245 0.201781 
-0.670439 0.443678 0.1894 -0.694081 0.362401 0.157114 -0.724902 0.312701 0.123055 
-0.752525 0.269737 0.0864738 -0.756239 0.20757 0.0459183 -0.742006 0.13115 0.0135464 
-0.765525 0.123061 -0.0993019 -0.787907 0.163824 -0.165336 -0.787749 0.150208 -0.223645 
-0.771072 0.0880397 -0.259797 -0.757455 -0.00306465 -0.28917 -0.733019 -0.104631 -0.301683 
-0.70055 -0.190352 -0.31239 -0.666423 -0.255275 -0.330771 -0.636937 -0.294454 -0.366217 
-0.616854 -0.322808 -0.417261 -0.585794 -0.341223 -0.460459 -0.548992 -0.357981 -0.497928 
-0.516027 -0.369073 -0.542335 -0.486056 -0.376557 -0.591893 -0.432909 -0.384762 -0.616959 
-0.369343 -0.425483 -0.627752 -0.249895 -0.723429 -0.450968 0.389548 -0.910527 -0.719735 
0.386107 -1.03256 -0.600563 0.372387 -1.1342 -0.47129 -0.213034 -1.00968 -0.174473 
-0.219306 -1.0428 -0.0724698 -0.221336 -1.04377 0.010297 -0.213066 -1.02778 0.0769131 
-0.183541 -1.01327 0.122604 -0.138793 -1.01207 0.156987 -0.0821102 -1.03657 0.188698 
-0.0306781 -1.09089 0.245683 -0.100576 -0.963376 -0.303644 -0.0228085 -0.972917 -0.312698 
0.0290748 -0.986002 -0.336951 0.0783139 -0.999208 -0.362103 0.137493 -1.0163 -0.374187 
0.193607 -1.05491 -0.380868 0.26436 -1.12511 -0.362717 0.205497 -0.948101 0.762435 
0.153014 -1.00066 0.737401 0.131284 -1.03806 0.688552 0.109704 -1.0606 0.63712 
0.0924253 -1.08008 0.580595 0.0643563 -1.09519 0.533564 0.0376202 -1.11115 0.484518 
0.0290677 -1.13639 0.414254 0.384877 -1.35368 -0.205091 0.408106 -1.4538 -0.106609 
0.420322 -1.50315 -0.0231508 0.437732 -1.51231 0.0416217 0.444534 -1.49574 0.109484 
0.444651 -1.46929 0.181192 0.443465 -1.44232 0.254053 0.389352 -0.987327 0.78169 
0.441569 -1.08549 0.784439 0.478498 -1.16834 0.775311 0.514372 -1.23054 0.757542 
0.552048 -1.26736 0.730269 0.589491 -1.2907 0.696549 0.61914 -1.30947 0.652091 
0.628625 -1.33309 0.590114 0.621303 -1.35563 0.527445 0.593237 -1.37067 0.480607 
0.556554 -1.38227 0.441249 0.518489 -1.3933 0.403114 0.480344 -1.4043 0.365049 
0.095422 -1.21743 0.294805 0.151031 -1.27398 0.282287 0.216474 -1.33056 0.293326 
0.289376 -1.37756 0.310436 0.365198 -1.40337 0.321228 
LINES 21 427
62 15 16 17 18 19 20 21 22 23 24 25 26 27 28 29 30 31 32 33 34 35 36 37 38 39 40 41 42 43 44 45 46 47 48 49 50 51 52 53 54 55 56 57 58 59 60 61 62 63 64 65 66 67 68 69 70 71 72 73 74 75 13 
18 14 76 77 78 79 80 81 82 83 84 85 86 87 88 89 90 91 8 
33 14 92 93 94 95 96 97 98 99 100 101 102 103 104 105 106 107 108 109 110 111 112 113 114 115 116 117 118 119 120 121 122 9 
5 14 123 124 125 12 
13 12 126 127 128 129 130 131 132 133 134 135 136 5 
43 12 137 138 139 140 141 142 143 144 145 146 147 148 149 150 151 152 153 154 155 156 157 158 159 160 161 162 163 164 165 166 167 168 169 170 171 172 173 174 175 176 177 9 
27 11 178 179 180 181 182 183 184 185 186 187 188 189 190 191 192 193 194 195 196 197 198 199 200 201 202 10 
7 10 203 204 205 206 207 9 
59 10 208 209 210 211 212 213 214 215 216 217 218 219 220 221 222 223 224 225 226 227 228 229 230 231 232 233 234 235 236 237 238 239 240 241 242 243 244 245 246 247 248 249 250 251 252 253 254 255 256 257 258 259 260 261 262 263 264 2 
7 8 265 266 267 268 269 6 
6 8 270 271 272 273 5 
40 7 274 275 276 277 278 279 280 281 282 283 284 285 286 287 288 289 290 291 292 293 294 295 296 297 298 299 300 301 302 303 304 305 306 307 308 309 310 311 7 
18 7 312 313 314 315 316 317 318 319 320 321 322 323 324 325 326 327 6 
3 6 328 4 
5 5 329 330 331 3 
10 4 332 333 334 335 336 337 338 339 1 
9 4 340 341 342 343 344 345 346 3 
10 2 347 348 349 350 351 352 353 354 1 
9 3 355 356 357 358 359 360 361 0 
15 2 362 363 364 365 366 367 368 369 370 371 372 373 374 0 
7 1 375 376 377 378 379 0 

POINT_DATA 380
SCALARS DY_raw double
LOOKUP_TABLE default
556.709 677.708 544.114 497.724 714.78 631.483 627.492 582.395 508.453 
502.638 357.287 601.379 484.853 515.145 632.801 587.296 623.815 491.53 
481.22 481.22 462.41 438.515 472.608 446.757 488.585 489.907 471.407 
530.053 504.336 420.769 483.229 493.82 451.072 506.717 526.414 593.717 
560.25 649.909 618.759 603.713 654.773 572.334 551.125 646.873 573.145 
639.58 697.556 633.988 803.529 844.639 755.103 802.904 643.502 647.056 
726.072 677.174 696.018 836.636 727.432 719.631 675.587 732.597 674.826 
720.614 694.535 623.91 623.91 594.027 531.813 565.537 540.014 541.293 
545.377 463.896 449.493 484.749 575.779 591.531 628.257 679.513 697.566 
523.898 512.928 488.24 485.012 470.454 541.872 504.379 472.753 434.385 
443.163 460.25 613.713 649.485 639.253 669.557 745.526 608.569 650.8 
747.992 741.015 817.722 868.022 684.18 763.656 710.496 731.152 731.152 
656.418 624.212 685.545 607.45 571.085 571.085 570.558 527.887 567.146 
507.64 554.154 612.011 528.934 475.207 484.764 615.058 486.051 460.36 
485.59 447.036 462.134 458.276 503.244 641.008 568.656 515.004 471.392 
487.236 501.866 546.054 609.706 602.693 573.621 549.81 457.771 478.396 
431.529 431.529 521.31 530.09 593.003 470.1 523.033 514.036 484.682 
532.85 555.207 591.383 536.012 505.198 530.439 570.651 473.869 531.023 
558.353 516.949 516.949 471.902 567.889 567.889 559.228 572.703 572.703 
566.156 566.156 501.796 546.36 564.903 574.554 527.574 551.909 539.747 
592.97 539.955 597.758 597.758 633.781 616.869 717.322 639.193 631.017 
712.861 650.75 582.052 522.597 522.597 452.354 455.468 407.668 451.453 
410.433 460.014 441.343 496.045 407.838 412.173 442.18 441.943 480.922 
481.787 390.25 406.363 451.371 466.206 485.814 547.974 633.097 596.093 
668 581.427 536.87 595.805 569.074 616.737 616.737 584.082 584.082 
542.484 512.475 569.968 533.059 523.828 618.145 542.104 494.812 564.221 
483.688 567.424 557.301 478.444 538.324 554.822 545.873 538.982 566.817 
542.578 542.578 581.716 542.146 481.948 475.943 475.943 417.912 478.384 
442.438 436.832 484.109 484.109 590.359 602.063 536.218 457.492 440.76 
440.76 420.543 455.254 453.383 520.837 619.77 630.42 590.728 579.193 
566.194 627.575 620.607 691.281 635.284 675.556 623.544 641.676 581.502 
546.566 588.145 586.864 608.091 608.091 530.549 519.147 453.469 477.497 
466.481 551.459 569.593 576.912 551.84 495.847 504.786 485.252 412.334 
409.489 368.222 346.337 366.259 367.832 350.208 371.135 369.536 368.532 
392.682 375.761 430.558 420.647 472.659 536.802 557.788 544.838 565.745 
645.392 688.221 743.551 756.852 754.291 719.016 719.016 617.273 656.65 
656.65 680.592 673.311 665.845 698.202 582.362 564.761 544.047 725.181 
729.526 723.61 689.912 624.442 640.411 607.05 626.51 637.557 613.701 
651.952 642.544 656.039 568.591 531.997 604.962 708.653 745.149 736.702 
696.471 631.168 612.213 611.222 539.684 611.341 620.288 634.178 651.553 
652.32 580.01 570.031 611.055 632.188 579.276 573.048 573.048 559.793 
551.299 578.74 578.74 530.059 530.059 516.252 774.532 707.437 667.222 
608.093 556.709 
FIELD FieldData 7
DY_minmax 1 380 double
0.403255 0.635193 0.379113 0.29019 0.706256 0.546587 0.538937 0.452492 0.310755 
0.299609 0.02099 0.488882 0.265517 0.323583 0.549113 0.461887 0.53189 0.278317 
0.258554 0.258554 0.222497 0.176694 0.242045 0.192492 0.272672 0.275206 0.239743 
0.35216 0.302863 0.142678 0.262403 0.282706 0.200764 0.307427 0.345184 0.474195 
0.410043 0.581908 0.522198 0.493356 0.591231 0.433206 0.392552 0.576087 0.434762 
0.562107 0.67324 0.551389 0.876375 0.955178 0.78355 0.875178 0.569627 0.576439 
0.727901 0.634171 0.670293 0.939839 0.730509 0.715556 0.631129 0.740408 0.629671 
0.717438 0.667449 0.532071 0.532071 0.474789 0.355533 0.420178 0.371253 0.373704 
0.381533 0.225345 0.197738 0.265318 0.43981 0.470005 0.540403 0.638653 0.67326 
0.340362 0.319332 0.272011 0.265823 0.237917 0.374815 0.302945 0.242324 0.168778 
0.185603 0.218358 0.512524 0.581095 0.561481 0.61957 0.765193 0.502663 0.583615 
0.76992 0.756544 0.903581 1 0.6476 0.799946 0.698045 0.737639 0.737639 
0.594385 0.53265 0.650217 0.500519 0.430812 0.430812 0.429801 0.348008 0.423261 
0.309196 0.398358 0.509263 0.350015 0.247027 0.265346 0.515103 0.267814 0.218568 
0.266931 0.193027 0.221969 0.214572 0.300771 0.564846 0.426156 0.323312 0.239714 
0.270084 0.298128 0.38283 0.504843 0.4914 0.435673 0.39003 0.213604 0.25314 
0.163302 0.163302 0.335401 0.35223 0.472826 0.237237 0.338704 0.321457 0.265189 
0.35752 0.400376 0.469721 0.363582 0.304517 0.352899 0.429981 0.244463 0.354019 
0.406407 0.327041 0.327041 0.240692 0.424685 0.424685 0.408085 0.433914 0.433914 
0.421365 0.421365 0.297994 0.383417 0.418962 0.437462 0.347408 0.394054 0.370743 
0.472763 0.37114 0.481941 0.481941 0.550993 0.518575 0.711129 0.561366 0.545693 
0.702577 0.58352 0.451835 0.337867 0.337867 0.20322 0.209191 0.117565 0.201495 
0.122863 0.217904 0.182114 0.28697 0.117889 0.1262 0.183718 0.183264 0.257982 
0.259639 0.084177 0.115063 0.201336 0.229774 0.26736 0.386513 0.549681 0.478749 
0.616586 0.450636 0.365227 0.478196 0.426958 0.518322 0.518322 0.455726 0.455726 
0.375988 0.318465 0.428671 0.357922 0.340227 0.52102 0.37526 0.284608 0.417654 
0.263284 0.423795 0.40439 0.253232 0.368013 0.399638 0.382485 0.369275 0.422631 
0.376168 0.376168 0.45119 0.375339 0.259949 0.248438 0.248438 0.137199 0.253118 
0.184213 0.173468 0.26409 0.26409 0.467759 0.490193 0.363977 0.21307 0.180997 
0.180997 0.142243 0.20878 0.205194 0.334494 0.524134 0.544549 0.468464 0.446355 
0.421437 0.539096 0.525739 0.661211 0.553873 0.631068 0.531369 0.566126 0.450779 
0.383813 0.463514 0.461059 0.501747 0.501747 0.35311 0.331253 0.205359 0.251417 
0.230301 0.393191 0.427953 0.441982 0.393922 0.28659 0.303727 0.266282 0.126508 
0.121056 0.0419505 0 0.0381881 0.0412045 0.00742119 0.0475344 0.0444707 0.0425449 
0.0888382 0.0564028 0.16144 0.142443 0.242143 0.365097 0.405323 0.3805 0.420577 
0.573248 0.655347 0.761406 0.786903 0.781994 0.714376 0.714376 0.519349 0.594829 
0.594829 0.640723 0.626765 0.612455 0.674478 0.452429 0.418691 0.378985 0.726194 
0.734522 0.723182 0.658587 0.53309 0.5637 0.499753 0.537054 0.558231 0.512501 
0.585824 0.56779 0.593658 0.426032 0.355885 0.495751 0.694512 0.764469 0.748277 
0.671161 0.545983 0.50965 0.50775 0.370621 0.507977 0.525129 0.551753 0.585059 
0.58653 0.44792 0.428791 0.507429 0.547939 0.446513 0.434575 0.434575 0.409167 
0.392885 0.445485 0.445485 0.352171 0.352171 0.325705 0.820793 0.692181 0.615095 
0.501751 0.403255 
WidthEq 1 380 double
1.7045 1.6853 2.12549 2.94956 1.86303 2.79933 2.54699 3.09635 2.91154 
1.67687 1.60342 1.24806 2.12572 1.9228 1.47738 1.14847 1.20552 1.70789 
1.80541 1.80541 1.90495 1.89808 1.81508 1.79117 1.69569 1.63782 1.64266 
1.51185 1.55489 1.57998 1.55256 1.53126 1.56416 1.54479 1.57923 1.49322 
1.51625 1.3496 1.3759 1.34042 1.2765 1.40633 1.4095 1.23466 1.3309 
1.24 1.14414 1.19015 1.00513 1 1.0751 1.0461 1.22026 1.20444 
1.16903 1.24881 1.2585 1.15038 1.32189 1.35687 1.42702 1.32792 1.6271 
1.52503 1.63773 1.79356 1.79356 1.82567 1.8341 1.66802 1.7087 1.72714 
1.73155 2.00366 2.16432 2.13682 1.53597 1.39661 1.30206 1.32941 1.4063 
1.81358 1.96281 2.03592 2.00947 1.94703 1.91006 1.97536 2.01691 2.22095 
2.52122 2.76836 1.60727 1.56964 1.53512 1.46976 1.37476 1.37592 1.32818 
1.28068 1.31323 1.26104 1.1936 1.32735 1.19123 1.14216 1.06902 1.06902 
1.18878 1.23629 1.23296 1.36943 1.40823 1.40823 1.45999 1.50877 1.4662 
1.53089 1.45856 1.3351 1.43165 1.52685 1.62547 1.62171 1.93541 2.11656 
2.04164 2.02006 1.91152 1.88856 2.00245 1.88883 2.32455 2.7512 3.41879 
3.31295 3.27045 1.95519 1.74584 1.68575 1.66131 1.70723 2.14129 2.11475 
2.45689 2.45689 2.0957 1.90873 1.78793 2.08181 2.05742 2.16506 2.16218 
2.05335 1.8275 1.63949 1.71839 1.64593 1.59941 1.51521 1.67054 1.60867 
1.57868 1.49889 1.49889 1.378 1.26863 1.26863 1.19427 1.16985 1.16985 
1.22167 1.22167 1.28235 1.37309 1.39905 1.42636 1.60563 1.41279 1.50828 
1.454 1.49175 1.34499 1.34499 1.26488 1.25772 1.15771 1.23232 1.28641 
1.19988 1.26732 1.34957 1.37616 1.37616 1.38162 1.49922 1.53691 1.53617 
1.54734 1.38785 1.34317 1.32615 1.55993 1.48578 1.52214 1.57217 1.62606 
1.71206 1.60417 1.62485 1.58654 1.57359 1.62027 1.56879 1.481 1.58247 
1.41106 1.7015 1.82848 1.69101 1.78796 1.7393 1.7393 1.81801 1.81801 
1.88678 1.93022 1.84131 1.8252 1.7454 1.63787 1.65784 1.68482 1.62112 
1.81561 1.64869 1.66675 1.86095 1.71434 1.61071 1.58557 1.52729 1.47153 
1.47547 1.47547 1.52695 1.64943 1.77239 1.9708 1.9708 2.14203 1.94703 
2.02926 1.85355 1.46079 1.46079 1.2761 1.32986 1.39234 1.86971 2.12891 
2.12891 2.4582 2.50647 2.44751 3.22603 2.80312 2.71067 2.6108 2.64846 
2.85132 2.73755 2.73735 2.49395 2.88439 2.52955 2.31137 2.10259 2.03043 
1.90486 1.83681 1.75793 1.71731 1.71731 1.96016 2.06471 2.10493 2.1037 
2.10808 1.87075 1.86405 2.12029 2.53226 2.88871 2.74229 2.62257 2.82174 
2.78906 2.75133 2.69394 2.7284 2.74383 2.73931 2.70193 2.76931 3.11086 
3.10694 3.50816 3.56445 3.68946 3.60928 3.37964 3.09051 2.96422 2.63214 
2.21197 2.13691 2.08389 2.0558 1.79253 1.8091 1.8091 2.03994 1.85025 
1.85025 2.09703 2.23849 2.44198 2.1374 2.80678 2.87153 2.95925 1.70221 
1.55752 1.47572 1.43162 1.40788 1.41503 1.5345 1.64577 1.99194 2.02457 
1.98883 2.02938 2.25954 2.57097 2.7484 1.93676 1.65016 1.53003 1.46411 
1.50144 1.62443 1.66246 1.73953 2.63587 2.1602 1.99671 1.71135 1.65276 
1.67327 1.74373 2.00612 1.73951 1.65745 1.71088 1.83382 1.83382 1.92194 
1.89842 1.79803 1.79803 1.74045 1.74045 1.73367 1.53717 1.56534 1.49605 
1.48467 1.7045 
rRFP 1 380 double
6776.6 6725.64 7893.98 10081.2 7197.38 9682.46 9012.72 10470.8 9980.27 
6703.27 6508.31 5565.15 7894.58 7356 6173.8 5300.8 5452.22 6785.6 
7044.43 7044.43 7308.64 7290.41 7070.09 7006.65 6753.22 6599.62 6612.46 
6265.27 6379.53 6446.12 6373.32 6316.81 6404.12 6352.7 6444.12 6215.83 
6276.96 5834.65 5904.44 5810.28 5640.63 5985.21 5993.62 5529.58 5785.01 
5543.75 5289.31 5411.43 4920.36 4906.75 5106.07 5029.11 5491.35 5449.36 
5355.38 5567.12 5592.85 5305.88 5761.11 5853.95 6040.14 5777.1 6571.17 
6300.27 6599.38 7012.98 7012.98 7098.22 7120.59 6679.79 6787.74 6836.7 
6848.41 7570.62 7997.05 7924.04 6329.3 5959.42 5708.47 5781.05 5985.14 
7066.11 7462.2 7656.25 7586.05 7420.32 7322.2 7495.51 7605.78 8147.35 
8944.3 9600.26 6518.53 6418.67 6327.04 6153.57 5901.42 5904.49 5777.79 
5651.72 5738.1 5599.59 5420.59 5775.6 5414.3 5284.06 5089.95 5089.95 
5407.81 5533.91 5525.06 5887.27 5990.26 5990.26 6127.64 6257.1 6144.12 
6315.81 6123.85 5796.17 6052.42 6305.09 6566.85 6556.88 7389.48 7870.27 
7671.42 7614.15 7326.07 7265.12 7567.4 7265.86 8422.32 9554.72 11326.6 
11045.7 10932.9 7441.98 6886.33 6726.84 6661.96 6783.84 7935.91 7865.48 
8773.57 8773.57 7814.91 7318.67 6998.05 7778.05 7713.31 7999.01 7991.36 
7702.52 7103.06 6604.07 6813.48 6621.14 6497.68 6274.21 6686.48 6522.25 
6442.65 6230.88 6230.88 5910.01 5619.73 5619.73 5422.37 5357.57 5357.57 
5495.11 5495.11 5656.16 5896.98 5965.9 6038.37 6514.19 6002.35 6255.8 
6111.74 6211.94 5822.41 5822.41 5609.79 5590.78 5325.33 5523.36 5666.94 
5437.27 5616.26 5834.56 5905.15 5905.15 5919.62 6231.77 6331.79 6329.83 
6359.48 5936.16 5817.58 5772.4 6392.9 6196.09 6292.59 6425.38 6568.42 
6796.68 6510.32 6565.2 6463.53 6429.16 6553.04 6416.42 6183.41 6452.72 
5997.77 6768.65 7105.68 6740.79 6998.11 6868.96 6868.96 7077.89 7077.89 
7260.41 7375.7 7139.73 7096.96 6885.16 6599.75 6652.75 6724.37 6555.3 
7071.51 6628.49 6676.4 7191.84 6802.72 6527.68 6460.94 6306.25 6158.27 
6168.73 6168.73 6305.35 6630.43 6956.79 7483.41 7483.41 7937.88 7420.32 
7638.56 7172.2 6129.75 6129.75 5639.57 5782.25 5948.09 7215.11 7903.06 
7903.06 8777.05 8905.15 8748.67 10815 9692.52 9447.14 9182.06 9282.02 
9820.44 9518.49 9517.96 8871.93 9908.23 8966.41 8387.33 7833.19 7641.68 
7308.38 7127.77 6918.43 6810.6 6810.6 7455.16 7732.67 7839.4 7836.14 
7847.77 7217.85 7200.07 7880.17 8973.6 9919.7 9531.06 9213.32 9741.94 
9655.19 9555.06 9402.73 9494.19 9535.15 9523.16 9423.94 9602.77 10509.3 
10498.9 11563.8 11713.2 12045 11832.2 11222.7 10455.3 10120.1 9238.7 
8123.52 7924.3 7783.57 7709.02 7010.25 7054.22 7054.22 7666.91 7163.46 
7163.46 7818.43 8193.9 8733.99 7925.6 9702.22 9874.09 10106.9 6770.52 
6386.49 6169.4 6052.33 5989.33 6008.3 6325.4 6620.72 7539.53 7626.12 
7531.25 7638.9 8249.78 9076.35 9547.28 7393.07 6632.37 6313.53 6138.56 
6237.65 6564.09 6665.02 6869.58 9248.62 7986.11 7552.19 6794.78 6639.27 
6693.72 6880.72 7577.15 6869.54 6651.72 6793.53 7119.85 7119.85 7353.73 
7291.31 7024.84 7024.84 6872.01 6872.01 6854.02 6332.49 6407.25 6223.35 
6193.15 6776.6 
rGFP 1 380 double
3270.62 3463.85 3478.22 3789.78 3653.37 4089.44 3919.93 4125.01 3802.09 
3164.57 2894.59 3072.27 3352.37 3312.23 3256.6 2996.2 3073.73 3161.19 
3190.51 3190.51 3202.58 3154.05 3179.53 3121.93 3150.2 3124.09 3096.07 
3123.07 3105.9 2986.52 3071.95 3077.88 3027.26 3104.48 3153.04 3208.26 
3171.19 3198.83 3173.06 3130.94 3157.53 3126.6 3098.52 3120.38 3084.51 
3114.79 3119.81 3076.25 3129.36 3166.35 3133.52 3161.63 3106.95 3101.05 
3170.51 3167.37 3197.65 3284.16 3283.3 3298.16 3285.79 3294.54 3419.72 
3420.67 3459.17 3440.73 3440.73 3406.21 3297.11 3265.04 3244.43 3256.6 
3266.06 3251.2 3294.56 3357.53 3206.09 3147.85 3139.74 3225.06 3302.7 
3271.84 3328.49 3315.73 3296.33 3237.7 3356.72 3318.04 3275.21 3286.46 
3439.02 3595.85 3308.11 3341.17 3303.04 3305.8 3346.63 3159.05 3186.09 
3279.65 3294.83 3352.89 3357.78 3229.86 3231.4 3133.21 3103.33 3103.33 
3102.05 3093.42 3166.96 3153.57 3125.93 3125.93 3154.72 3118.17 3153.26 
3098.85 3129.98 3138.81 3078.96 3047.28 3109.68 3319.16 3262.42 3296.09 
3313.11 3224.75 3205.09 3187.19 3329.43 3532.47 3643.58 3738.59 3933.3 
3935.9 3963.04 3389.35 3386.16 3337.7 3274.67 3260.36 3301.93 3333.4 
3381.93 3381.93 3414.22 3333.51 3381.96 3300.37 3397.81 3434.63 3369.68 
3415.84 3336.35 3291.28 3242.79 3153.23 3170.1 3186.37 3113.33 3175.95 
3203.17 3096.56 3096.56 2971.99 3042.15 3042.15 2989.58 2991.69 2991.69 
3013.37 3013.37 2965.19 3071.91 3112.04 3141.23 3168.8 3101.44 3135.8 
3183.89 3127.19 3125.69 3125.69 3123.37 3097.56 3152.16 3109.4 3133.46 
3177.06 3146.42 3107.23 3040.89 3040.89 2946.69 3004.56 2948.26 3015.22 
2956.79 2960.14 2914.51 2979.54 2957.91 2934.11 2994.77 3016.52 3103.72 
3146.56 2947.74 2981.99 3037.83 3055.33 3108.86 3181.37 3259.33 3265.01 
3264.3 3311.01 3303.37 3329.22 3339.19 3394.4 3394.4 3383.58 3383.58 
3345.26 3310.9 3371.2 3294.65 3236 3334.15 3220.43 3155.38 3236.38 
3199.9 3257.22 3250.59 3212.07 3244.58 3215.37 3187.23 3144.89 3155.8 
3122.27 3122.27 3209.96 3215.94 3175.91 3259.7 3259.7 3216.89 3253.14 
3219.53 3131.4 3028.89 3028.89 3075.07 3122.37 3068.31 3177.09 3260.05 
3260.05 3355.49 3462.79 3431.37 4001.95 4059 4030.57 3863.98 3855.68 
3936.11 4039.73 4020.53 4045.73 4154.12 4030.56 3762.95 3670.89 3502.41 
3362.84 3402.02 3353.38 3365.99 3365.99 3361.67 3393.6 3276.23 3326.22 
3305.09 3353.35 3383.46 3544.93 3719.11 3754.07 3705.98 3594.32 3485.21 
3463.8 3334.81 3254.72 3321.01 3330.98 3281.04 3324.49 3345.07 3468.16 
3541.75 3639.94 3856.41 3873.67 4027.67 4135.91 4045.56 3936.73 3810.83 
3749.3 3792.38 3871.19 3877.65 3673.8 3622.48 3622.48 3580.91 3536.68 
3536.68 3748.93 3828.91 3947.69 3814.05 3956.27 3943.44 3931.68 3556.12 
3457.96 3389.56 3309.4 3200.85 3227.91 3253.23 3352.8 3591.69 3564.19 
3618.33 3625.68 3804.06 3783.54 3783.85 3493.38 3491.1 3461.81 3400.32 
3367.42 3347 3339.49 3384.95 3744.25 3642.33 3560.25 3407.01 3398.57 
3413.22 3333.09 3465.26 3384.65 3369.53 3312.78 3372.58 3372.58 3397.6 
3368.31 3362.3 3362.3 3244.25 3244.25 3216.72 3512.3 3429.09 3319.91 
3224.53 3270.62 
bkstRFP 1 380 double
4524.01 4473.05 5641.39 7828.61 4944.79 7429.87 6760.13 8218.21 7727.68 
4450.68 4255.72 3312.56 5641.99 5103.41 3921.21 3048.21 3199.63 4533.01 
4791.84 4791.84 5056.05 5037.82 4817.5 4754.06 4500.63 4347.03 4359.87 
4012.68 4126.94 4193.53 4120.73 4064.22 4151.53 4100.11 4191.53 3963.24 
4024.37 3582.06 3651.85 3557.69 3388.04 3732.62 3741.03 3276.99 3532.42 
3291.16 3036.72 3158.84 2667.77 2654.16 2853.48 2776.52 3238.76 3196.77 
3102.79 3314.53 3340.26 3053.29 3508.52 3601.36 3787.55 3524.51 4318.58 
4047.68 4346.79 4760.39 4760.39 4845.63 4868 4427.2 4535.15 4584.11 
4595.82 5318.03 5744.46 5671.45 4076.71 3706.83 3455.88 3528.46 3732.55 
4813.52 5209.61 5403.66 5333.46 5167.73 5069.61 5242.92 5353.19 5894.76 
6691.71 7347.67 4265.94 4166.08 4074.45 3900.98 3648.83 3651.9 3525.2 
3399.13 3485.51 3347 3168 3523.01 3161.71 3031.47 2837.36 2837.36 
3155.22 3281.32 3272.47 3634.68 3737.67 3737.67 3875.05 4004.51 3891.53 
4063.22 3871.26 3543.58 3799.83 4052.5 4314.26 4304.29 5136.89 5617.68 
5418.83 5361.56 5073.48 5012.53 5314.81 5013.27 6169.73 7302.13 9074.01 
8793.11 8680.31 5189.39 4633.74 4474.25 4409.37 4531.25 5683.32 5612.89 
6520.98 6520.98 5562.32 5066.08 4745.46 5525.46 5460.72 5746.42 5738.77 
5449.93 4850.47 4351.48 4560.89 4368.55 4245.09 4021.62 4433.89 4269.66 
4190.06 3978.29 3978.29 3657.42 3367.14 3367.14 3169.78 3104.98 3104.98 
3242.52 3242.52 3403.57 3644.39 3713.31 3785.78 4261.6 3749.76 4003.21 
3859.15 3959.35 3569.82 3569.82 3357.2 3338.19 3072.74 3270.77 3414.35 
3184.68 3363.67 3581.97 3652.56 3652.56 3667.03 3979.18 4079.2 4077.24 
4106.89 3683.57 3564.99 3519.81 4140.31 3943.5 4040 4172.79 4315.83 
4544.09 4257.73 4312.61 4210.94 4176.57 4300.45 4163.83 3930.82 4200.13 
3745.18 4516.06 4853.09 4488.2 4745.52 4616.37 4616.37 4825.3 4825.3 
5007.82 5123.11 4887.14 4844.37 4632.57 4347.16 4400.16 4471.78 4302.71 
4818.92 4375.9 4423.81 4939.25 4550.13 4275.09 4208.35 4053.66 3905.68 
3916.14 3916.14 4052.76 4377.84 4704.2 5230.82 5230.82 5685.29 5167.73 
5385.97 4919.61 3877.16 3877.16 3386.98 3529.66 3695.5 4962.52 5650.47 
5650.47 6524.46 6652.56 6496.08 8562.41 7439.93 7194.55 6929.47 7029.43 