# vtk DataFile Version 3.0
vtk output
ASCII
DATASET POLYDATA
POINTS 319 float
0.669942 0.755993 0.957381 0.376637 0.0701556 0.78975 0.390379 -0.212666 0.601473 
1.29309 -0.524478 0.229292 3.97284 0.514711 -0.00360649 -0.19635 1.16957 0.119008 
-0.291563 0.997182 0.157093 0.540895 -0.507118 0.0518075 0.137401 0.0641822 0.192104 
0.230888 -0.216648 0.203043 4.14009 1.45797 -0.446133 4.28803 0.4317 -0.403988 
1.23693 -0.747852 -0.185958 3.81354 2.06749 -0.535221 3.94907 0.859089 -0.58526 
4.32595 0.269627 -0.46423 -0.504701 0.393956 -0.64891 4.09899 0.856217 -0.887111 
-0.606843 0.122361 -0.803004 -0.149438 1.8687 -1.08287 -0.489575 0.142745 -1.00538 
0.144693 2.00552 -1.55913 0.53908 2.23357 -1.84021 2.47988 -0.190294 -2.02545 
0.974772 -0.453266 -1.99734 2.38825 1.52437 -2.2978 2.02972 1.43764 -2.29008 
1.49257 -0.310697 -2.20943 1.06305 -0.313461 -2.2045 1.02351 -0.346445 -2.10625 
0.991196 -0.389632 -2.03732 1.54359 -0.285905 -2.21106 1.60445 -0.272761 -2.21231 
1.66325 -0.256761 -2.20623 1.73324 -0.253166 -2.18493 1.81 -0.256335 -2.14117 
1.88801 -0.260578 -2.08996 1.96594 -0.265135 -2.04615 2.04245 -0.269251 -2.02459 
2.11242 -0.26605 -2.01068 2.17264 -0.250898 -1.98976 2.24162 -0.244876 -1.9463 
2.30943 -0.237464 -1.90289 2.36187 -0.213521 -1.88967 2.41364 -0.192104 -1.93565 
2.07951 1.4643 -2.28436 2.13293 1.48749 -2.26371 2.17458 1.52542 -2.22872 
2.23687 1.53812 -2.20772 2.31163 1.53359 -2.23061 0.528218 2.134 -1.96436 
0.511153 2.05694 -2.04985 0.477654 2.00858 -2.07955 0.435847 1.97353 -2.06522 
0.386646 1.94907 -2.01914 0.326604 1.93871 -1.95376 0.269627 1.92937 -1.85881 
0.206002 1.9484 -1.72544 0.617995 2.26423 -1.86712 0.687653 2.28127 -1.86863 
0.740462 2.30798 -1.83576 0.792046 2.33497 -1.78806 0.852156 2.35149 -1.74495 
0.903356 2.3773 -1.72439 0.95439 2.40249 -1.71862 1.01394 2.41719 -1.71991 
1.06379 2.44377 -1.71419 1.10861 2.47714 -1.69387 1.16013 2.50382 -1.65111 
1.22795 2.51163 -1.60029 1.29685 2.51733 -1.56424 1.35681 2.53155 -1.56552 
1.42622 2.53293 -1.59602 1.5009 2.52807 -1.62631 1.57064 2.53072 -1.6272 
1.631 2.54612 -1.59888 1.70106 2.54987 -1.57016 1.77576 2.5435 -1.57073 
1.84195 2.52608 -1.61521 1.88581 2.48869 -1.68826 1.91276 2.43654 -1.7753 
1.92692 2.37409 -1.84695 1.95429 2.32352 -1.897 1.99873 2.28834 -1.91824 
2.0654 2.27242 -1.92572 2.14127 2.2645 -1.92623 2.21721 2.25664 -1.92675 
2.28561 2.24242 -1.92691 2.34236 2.21837 -1.92652 2.40928 2.2029 -1.92661 
2.4762 2.18743 -1.9267 2.53287 2.16331 -1.92631 2.59979 2.14784 -1.9264 
2.66663 2.1323 -1.92649 2.72198 2.10731 -1.91862 2.78152 2.08636 -1.89615 
2.83737 2.06302 -1.8513 2.90627 2.05094 -1.79965 2.98271 2.04498 -1.75577 
3.05891 2.03808 -1.73409 3.12731 2.0241 -1.72684 3.18258 1.9988 -1.72638 
3.24039 1.97565 -1.72604 3.28656 1.94291 -1.71774 3.33149 1.90962 -1.69458 
3.38062 1.88061 -1.64941 3.41432 1.83883 -1.5961 3.46492 1.81131 -1.54359 
3.51782 1.78548 -1.4986 3.57745 1.76557 -1.44652 3.6319 1.74131 -1.39418 
3.69161 1.72147 -1.3421 3.74598 1.69689 -1.29718 3.80569 1.67706 -1.2451 
3.86007 1.65272 -1.19277 3.91822 1.63157 -1.14061 3.9621 1.59837 -1.08779 
3.99244 1.55477 -1.00224 4.01893 1.5088 -0.864639 4.07474 1.4843 -0.671432 
0.438142 2.2571 -1.67202 0.361657 2.26273 -1.53794 0.310289 2.24255 -1.44258 
0.267507 2.21082 -1.38637 0.225684 2.17228 -1.37932 0.184274 2.11095 -1.44297 
0.0567698 1.96996 -1.45034 -0.0151835 1.95428 -1.34507 -0.0657723 1.93135 -1.24465 
-0.108192 1.90091 -1.15885 -0.426532 0.117612 -1.1978 -0.383922 0.0759727 -1.36703 
-0.358938 0.0209339 -1.49102 -0.355527 -0.0508366 -1.56955 -0.359582 -0.127925 -1.61811 
-0.357314 -0.199431 -1.65958 -0.342002 -0.259683 -1.69425 -0.328984 -0.32138 -1.71401 
-0.302838 -0.371751 -1.72698 -0.268979 -0.415613 -1.74032 -0.233729 -0.458302 -1.75372 
-0.198147 -0.499972 -1.74492 -0.162149 -0.540309 -1.70654 -0.12451 -0.578769 -1.65341 
-0.0778515 -0.609863 -1.60812 -0.0106766 -0.624134 -1.57861 0.0656016 -0.630723 -1.54952 
0.143603 -0.635119 -1.49831 0.221936 -0.638253 -1.4175 0.299212 -0.641296 -1.30701 
0.369023 -0.650146 -1.18137 0.427193 -0.668433 -1.04778 0.494217 -0.676331 -0.907316 
0.551152 -0.673789 -0.743453 0.565157 -0.653818 -0.530926 0.551607 -0.597945 -0.260303 
-0.490413 0.251039 -0.833285 -0.540763 0.12354 -0.907597 4.10773 0.941781 -0.698084 
4.11739 1.02501 -0.531209 4.133 1.09871 -0.408478 4.15765 1.15825 -0.34456 
4.17047 1.22584 -0.337709 4.16845 1.29443 -0.367801 4.15141 1.36272 -0.4076 
4.12466 0.808141 -0.818612 4.14006 0.751163 -0.757035 4.16695 0.703389 -0.710815 
4.20114 0.661035 -0.687149 4.23525 0.618395 -0.668404 4.26148 0.569008 -0.627052 
4.27315 0.503818 -0.535424 4.01764 0.866649 -0.734646 -0.562068 0.492072 -0.710541 
-0.595905 0.560322 -0.783513 -0.603679 0.626923 -0.8703 -0.608646 0.692325 -0.945947 
-0.622233 0.748558 -1.0001 -0.61747 0.807948 -1.03234 -0.595292 0.862204 -1.06457 
-0.581603 0.92849 -1.11203 -0.573116 1.00068 -1.16712 -0.558092 1.06556 -1.21454 
-0.526598 1.1122 -1.23913 -0.493675 1.15839 -1.24147 -0.470281 1.21709 -1.22199 
-0.444334 1.27443 -1.17283 -0.427905 1.34469 -1.09445 -0.41099 1.41643 -0.979071 
-0.382816 1.47618 -0.833643 -0.351706 1.52789 -0.665664 -0.308931 1.53171 -0.495771 
-0.285819 1.48939 -0.345929 -0.265785 1.43881 -0.217952 -0.252621 1.38127 -0.111833 
-0.2336 1.32605 -0.0133058 -0.216738 1.25533 0.0636757 3.93692 0.808304 -0.438376 
3.93787 0.74051 -0.295847 3.94334 0.674499 -0.171983 3.96114 0.608493 -0.0766853 
-0.43708 0.362706 -0.372757 -0.380345 0.336336 -0.168369 -0.320043 0.317552 -0.0594983 
-0.265829 0.292564 -0.0207326 -0.208007 0.269662 -0.0129864 -0.161846 0.236673 -0.0120961 
-0.115685 0.203685 -0.0112058 -0.0578631 0.180783 -0.00345964 -0.00390763 0.15511 0.0192725 
0.0542453 0.133717 0.0640166 0.0995965 0.102011 0.124179 4.31788 0.349691 -0.435426 
3.8584 2.03439 -0.504652 3.90604 2.00413 -0.459412 3.93055 1.95459 -0.405662 
3.959 1.90837 -0.352108 3.99361 1.86711 -0.306251 4.02952 1.82695 -0.260447 
4.06535 1.78622 -0.229452 4.10077 1.74417 -0.228054 4.1343 1.69931 -0.261119 
4.15789 1.64451 -0.31589 4.15723 1.56375 -0.37917 1.27181 -0.66484 0.0149368 
4.19481 0.445206 -0.307135 4.12004 0.464268 -0.208244 4.05696 0.49327 -0.107446 
0.428954 -0.499426 0.0408734 0.356444 -0.477755 0.0422431 0.289073 -0.460271 0.0659755 
0.234574 -0.433306 0.0936134 0.220248 -0.372222 0.128243 0.224044 -0.295843 0.162016 
0.310633 -0.214657 0.402258 0.206306 -0.164465 0.23075 0.191724 -0.10458 0.235774 
0.166728 -0.0542215 0.219071 0.143122 -0.00268919 0.202312 0.531372 -0.405865 0.25075 
0.514583 -0.33176 0.412386 0.469464 -0.292793 0.516511 0.42702 -0.254672 0.573196 
0.217146 0.0661735 0.39132 0.296892 0.0681643 0.590535 0.65739 -0.496771 0.0975154 
0.740291 -0.487329 0.112488 0.79458 -0.463581 0.10494 0.845925 -0.438264 0.116626 
0.907371 -0.42291 0.167182 0.967083 -0.403434 0.254658 1.0378 -0.397477 0.336101 
1.11545 -0.404682 0.376317 1.19879 -0.439321 0.333298 -0.249909 1.03529 0.154999 
-0.212523 1.08738 0.144939 3.91884 0.456798 0.0637238 3.86689 0.421704 0.117715 
3.81498 0.398215 0.16131 3.78328 0.35323 0.213014 3.7483 0.312366 0.267061 
3.70797 0.277423 0.313489 3.66629 0.242837 0.337674 3.62436 0.207703 0.347061 
3.58236 0.172254 0.349045 3.54035 0.136805 0.351029 3.49835 0.101356 0.353014 
3.45634 0.0659067 0.354998 3.41434 0.0304576 0.356982 3.37233 -0.00499181 0.358966 
3.33018 -0.0406728 0.353545 3.28668 -0.0755962 0.333282 3.23641 -0.103757 0.290565 
3.17517 -0.119356 0.240007 3.11852 -0.139974 0.197039 3.06525 -0.163332 0.176392 
3.03287 -0.210579 0.171354 2.99723 -0.25397 0.166189 2.95615 -0.291756 0.146021 
2.91371 -0.329184 0.103611 2.87113 -0.366845 0.0537858 2.82863 -0.404189 0.0113733 
2.7863 -0.440502 -0.0088436 2.7429 -0.47471 -0.0143139 2.69188 -0.499502 -0.0126835 
2.62337 -0.504022 -0.0191394 2.54825 -0.501547 -0.040644 2.47927 -0.507569 -0.0840964 
2.42635 -0.533008 -0.134328 2.3736 -0.557814 -0.169743 2.30511 -0.561941 -0.168799 
2.23058 -0.556856 -0.131114 2.16142 -0.557291 -0.0784089 2.10196 -0.569608 -0.032733 
2.03372 -0.572788 -0.00959027 1.96658 -0.577673 0.00620591 1.91472 -0.59965 0.0373843 
1.86461 -0.618791 0.105489 1.80631 -0.610974 0.202202 1.75336 -0.58319 0.298004 
1.69488 -0.558529 0.364332 1.63995 -0.531714 0.40088 1.57172 -0.516787 0.416764 
1.49387 -0.510244 0.406237 1.40422 -0.511617 0.341497 0.396883 -0.134985 0.605501 
0.402163 -0.057601 0.631798 0.39883 0.0137437 0.695515 0.384614 0.146266 0.793829 
0.400314 0.214068 0.813001 0.432483 0.263635 0.855007 0.46489 0.313748 0.911823 
0.482334 0.381973 0.97545 0.498668 0.451511 1.03903 0.524633 0.509243 1.0956 
0.547095 0.57029 1.13722 0.573808 0.624655 1.14944 0.596839 0.681302 1.12451 
0.630333 0.723092 1.05562 
LINES 28 376
4 28 29 30 24 
16 27 31 32 33 34 35 36 37 38 39 40 41 42 43 44 23 
7 26 45 46 47 48 49 25 
10 22 50 51 52 53 54 55 56 57 21 
64 22 58 59 60 61 62 63 64 65 66 67 68 69 70 71 72 73 74 75 76 77 78 79 80 81 82 83 84 85 86 87 88 89 90 91 92 93 94 95 96 97 98 99 100 101 102 103 104 105 106 107 108 109 110 111 112 113 114 115 116 117 118 119 10 
8 22 120 121 122 123 124 125 21 
6 21 126 127 128 129 19 
28 20 130 131 132 133 134 135 136 137 138 139 140 141 142 143 144 145 146 147 148 149 150 151 152 153 154 155 7 
3 20 156 16 
3 20 157 18 
9 17 158 159 160 161 162 163 164 10 
9 17 165 166 167 168 169 170 171 11 
13 16 201 202 203 204 205 206 207 208 209 210 211 8 
3 15 212 11 
13 13 213 214 215 216 217 218 219 220 221 222 223 10 
3 12 224 3 
5 11 225 226 227 4 
8 7 228 229 230 231 232 233 9 
3 9 234 2 
6 9 235 236 237 238 8 
6 7 239 240 241 242 2 
4 8 243 244 1 
11 7 245 246 247 248 249 250 251 252 253 3 
51 4 256 257 258 259 260 261 262 263 264 265 266 267 268 269 270 271 272 273 274 275 276 277 278 279 280 281 282 283 284 285 286 287 288 289 290 291 292 293 294 295 296 297 298 299 300 301 302 303 304 3 
5 2 305 306 307 1 
13 1 308 309 310 311 312 313 314 315 316 317 318 0 
8 17 172 14 197 198 199 200 4 
29 16 173 174 175 176 177 178 179 180 181 182 183 184 185 186 187 188 189 190 191 192 193 194 195 196 5 255 254 6 

POINT_DATA 319
SCALARS DY_raw double
LOOKUP_TABLE default
996.311 1279.46 1422.05 908.941 933.229 923.76 1025.94 873.008 1006.15 
818.477 969.921 1091.85 751.468 870.023 681.62 1185.94 907.457 727.557 
845.26 885.406 921.13 802.256 774.731 970.43 1062.8 1699.95 1118.03 
979.785 952.103 1086.94 929.126 859.712 891.992 956.385 1083 1300.04 
1365.53 1414.53 1283.65 1058.39 819.128 819.128 833.452 849.698 849.698 
1144.54 1113.77 1211.08 1372.58 1576.99 732.043 674.383 613.8 667.065 
642.378 792.665 765.167 773.667 802.8 819.513 843.262 778.417 820.484 
849.641 820.433 820.433 870.87 969.243 1077.75 1018.99 960.852 982.905 
1036.3 949.034 1047.75 1038.14 1055.39 1010.57 995.924 952.955 962.666 
961.667 915.595 875.553 866.735 866.735 874.725 890.919 899.295 890.715 
896.869 892.622 918.579 910.758 957.397 891.717 948.152 770.833 731.342 
746.546 689.575 710.157 712.186 783.63 800.466 825.148 823.568 838.3 
776.992 731.421 766.044 762.1 813.053 863.623 831.149 837.498 790.53 
727.658 903.562 951.05 820.525 844.149 995.212 1015.64 961.389 867.848 
774.35 864.614 864.535 879.551 902.517 1362.49 1190.1 938.152 1118.03 
907.471 810.665 853.926 853.926 781.941 676.503 676.503 602.452 596.595 
634.078 618.51 667.578 693.59 738.499 689.632 708.918 755.804 760.053 
805.983 921.876 914.811 1029.38 806.005 782.154 892.206 949.659 952.393 
908.95 883.73 922.748 709.534 756.657 814.59 730.433 830.135 881.587 
1038.32 626.721 731.886 757.927 856.361 797.093 894.192 972.031 1060.48 
1038.31 980.27 1016.82 1108.93 940.601 999.947 924.945 886.572 791.674 
708.54 838.839 972.181 940.617 836.264 854.919 854.007 950.398 729.516 
871.869 1004.36 892.329 981.009 1023.87 1015.5 1047.08 944.669 897.476 
976.512 895.674 965.856 950.818 913.999 1049.96 992.34 992.34 1059.16 
1102.39 1181.34 1090.95 1227.07 1190.7 1043.8 952.438 881.877 863.591 
1007.36 1068.76 1023.85 828.513 797.853 791.504 791.294 899.213 779.799 
1017.22 854.948 825.597 880.92 909.004 951.6 1065.32 1378.92 1422.05 
1113.25 1169.86 986.084 1064.26 1045.25 1036.88 1071.28 1111.33 1070.81 
978.267 903.692 901.053 929.38 886.53 873.677 839.248 892.315 906.143 
976.147 1071.91 1040.78 1042.72 1042.72 995.819 995.819 968.663 1020.22 
1020.22 1044.88 1103.4 1060.57 980.117 926.408 926.408 962.131 981.163 
1155.85 1166.24 1069.51 898.871 909.146 909.146 942.323 985.257 915.154 
824.254 797.352 838.85 867.185 950.534 977.929 943.955 917.048 871.638 
843.464 905.573 918.49 954.309 943.116 917.733 930.654 923.738 1277.98 
1425.76 1417.11 1329.79 1188.46 1157.83 1243.15 1173.29 1049.54 982.705 
1018.64 971.483 971.483 912.312 
FIELD FieldData 7
DY_minmax 1 319 double
0.362274 0.618898 0.748136 0.283088 0.305101 0.296519 0.389132 0.250521 0.371196 
0.201098 0.338356 0.44886 0.140365 0.247816 0.0770598 0.534139 0.281743 0.118695 
0.225372 0.261757 0.294136 0.186397 0.16145 0.338817 0.422537 1 0.472589 
0.347296 0.322207 0.444411 0.301383 0.23847 0.267726 0.326088 0.440846 0.637551 
0.696911 0.741323 0.622698 0.418535 0.201687 0.201687 0.21467 0.229394 0.229394 
0.496616 0.468729 0.556928 0.703295 0.888564 0.12276 0.0705014 0.0155927 0.0638687 
0.041494 0.177704 0.152782 0.160485 0.186889 0.202037 0.223562 0.16479 0.202917 
0.229343 0.202871 0.202871 0.248583 0.337742 0.436085 0.382827 0.330136 0.350124 
0.398516 0.319426 0.408895 0.400187 0.415817 0.375194 0.361923 0.322979 0.33178 
0.330876 0.289119 0.252828 0.244835 0.244835 0.252077 0.266754 0.274345 0.26657 
0.272147 0.268297 0.291823 0.284735 0.327006 0.267477 0.318627 0.157917 0.122124 
0.135905 0.0842697 0.102924 0.104763 0.169515 0.184774 0.207144 0.205712 0.219064 
0.163499 0.122196 0.153576 0.150002 0.196182 0.242015 0.212583 0.218338 0.175769 
0.118786 0.278213 0.321253 0.202954 0.224365 0.361278 0.379795 0.330623 0.245844 
0.161105 0.242914 0.242842 0.256451 0.277266 0.694157 0.537912 0.309562 0.472595 
0.281756 0.194018 0.233226 0.233226 0.167985 0.0724225 0.0724225 0.00530764 0 
0.0339711 0.019862 0.0643338 0.0879087 0.128611 0.0843217 0.101801 0.144295 0.148146 
0.189774 0.294812 0.288408 0.392244 0.189794 0.168177 0.267921 0.319992 0.32247 
0.283096 0.260238 0.295602 0.102359 0.145068 0.197575 0.121301 0.211664 0.258296 
0.400344 0.0273038 0.122618 0.146219 0.235433 0.181717 0.26972 0.340268 0.42043 
0.400342 0.347736 0.380859 0.46434 0.311783 0.365569 0.297593 0.262814 0.176806 
0.101459 0.219552 0.340404 0.311797 0.217219 0.234126 0.2333 0.320662 0.120469 
0.249488 0.369572 0.268032 0.348405 0.387249 0.379667 0.408292 0.315469 0.272697 
0.344329 0.271064 0.334672 0.321043 0.287672 0.410896 0.358675 0.358675 0.419237 
0.458416 0.529968 0.448046 0.571419 0.538459 0.405312 0.322511 0.258559 0.241986 
0.372284 0.42794 0.387231 0.210194 0.182405 0.176651 0.176461 0.274271 0.166043 
0.381222 0.234153 0.207551 0.257692 0.283145 0.321751 0.42482 0.709047 0.748136 
0.468262 0.519568 0.353005 0.42386 0.40663 0.399043 0.430218 0.466523 0.429796 
0.34592 0.278331 0.275939 0.301613 0.262776 0.251127 0.219924 0.268019 0.280552 
0.343999 0.430794 0.402581 0.404335 0.404335 0.361828 0.361828 0.337216 0.383947 
0.383947 0.406291 0.459336 0.420512 0.347597 0.298919 0.298919 0.331295 0.348545 
0.506865 0.516284 0.428618 0.273962 0.283273 0.283273 0.313343 0.352255 0.288719 
0.206334 0.181952 0.219563 0.245243 0.320785 0.345614 0.314822 0.290436 0.249279 
0.223744 0.280036 0.291742 0.324207 0.314062 0.291057 0.302767 0.296499 0.617556 
0.751497 0.743657 0.664516 0.536425 0.50866 0.585989 0.522676 0.410517 0.349942 
0.382511 0.339771 0.339771 0.286144 
WidthEq 1 319 double
1.43377 1.85489 2.00919 2.85851 3.39097 2.99432 1.53405 3.25965 2.24137 
3.02337 3.36445 2.10877 3.03037 3.57672 4.45885 1.24381 2.78531 2.65188 
2.21935 2.67744 2.77167 3.39491 3.26639 1.61179 1.41919 1.14234 1 
1.34601 1.97675 1.72413 1.69576 1.52169 1.55951 1.42386 1.37869 1.17503 
1.0796 1.00059 1.06662 1.20997 1.68675 1.68675 1.82617 1.96722 1.96722 
1.43231 1.6764 1.44154 1.36786 1.18341 3.34954 3.30862 3.33423 3.23885 
3.24249 3.03888 3.35527 3.44366 3.11427 2.99976 2.88301 2.88511 2.77538 
2.43504 2.27983 2.27983 2.01522 1.89169 1.78012 2.25389 2.47951 2.52502 
2.69207 2.85776 2.68927 2.60863 2.54686 2.66646 2.7202 2.87594 2.84081 
2.61295 2.64738 2.51958 2.57677 2.57677 2.43561 2.38323 2.38945 2.27218 
2.33463 2.25611 1.99642 2.0864 1.99502 2.05375 2.17045 2.94664 3.24178 
3.53388 4.26406 4.10367 4.14137 3.60019 3.55429 3.41989 3.23352 3.25314 
3.61335 3.78864 4.01269 3.80531 3.60242 3.53677 3.31239 3.38267 3.3739 
3.13012 2.95528 3.22648 3.14483 2.97967 2.62999 2.59877 2.76071 3.12799 
3.56458 3.21689 3.13142 2.78873 2.54243 1.50737 1.64473 1.88237 1.67843 
1.92801 2.01423 1.97759 1.97759 1.97186 2.12172 2.12172 2.46471 2.55182 
2.50357 2.62411 2.65049 2.5849 2.15525 2.58675 2.9666 3.0357 3.10514 
3.14865 2.76371 2.97862 2.6721 2.80529 3.68661 3.87833 4.29434 4.43383 
4.48304 4.28531 3.84276 3.04563 2.95451 2.58806 2.74211 2.43947 2.19076 
2.06699 4.35362 2.95991 2.89528 2.62089 2.7288 2.58023 2.43792 2.2842 
2.2369 2.26917 2.07982 1.94103 2.20615 2.13633 2.45631 2.6619 3.29691 
3.58784 3.46164 3.04844 2.88794 2.90893 2.78284 2.94895 2.81296 4.57655 
4.08924 3.23073 3.4428 2.71466 2.32095 2.16585 2.10703 2.08363 2.04844 
2.0898 2.09061 2.08122 2.1562 2.36211 1.97978 3.38642 3.38642 3.10144 
2.8957 2.70082 2.67582 2.3884 2.43735 2.82671 3.01721 3.34825 3.03258 
2.44535 2.57844 3.02883 3.15139 2.9246 2.87991 2.71564 2.74821 3.01585 
2.72516 2.90494 2.61975 2.52572 2.46723 2.86371 2.41551 1.93425 2.00919 
2.12012 2.1292 3.07657 2.77773 2.73964 2.47171 2.49815 2.36307 2.42031 
2.6397 2.87487 2.62256 2.85961 3.46532 3.36735 3.31202 3.09405 2.81182 
2.59422 2.45745 2.3882 2.35329 2.35329 2.30012 2.30012 2.29516 2.18516 
2.18516 2.18495 2.08137 2.07089 2.23486 2.27862 2.27862 2.17815 2.14543 
1.72019 1.80595 1.8752 2.36691 2.41007 2.41007 2.37011 2.23727 2.35527 
2.58431 2.78284 2.81509 2.80904 2.81612 2.86279 3.19181 3.33809 3.5767 
3.57543 3.14358 3.01526 2.98761 2.94177 2.90487 2.88658 2.88704 2.16595 
1.90016 1.73977 1.70986 1.94322 1.94564 1.70598 1.77529 1.91268 2.00441 
2.11922 2.36412 2.36412 2.26764 
rRFP 1 319 double
3021.28 3250.36 3334.3 3796.31 4085.96 3870.19 3075.83 4014.52 3460.6 
3885.99 4071.53 3388.47 3889.8 4187 4666.86 2917.95 3756.49 3683.91 
3448.62 3697.81 3749.07 4088.1 4018.19 3118.12 3013.35 2862.75 2785.32 
2973.54 3316.65 3179.23 3163.8 3069.11 3089.68 3015.89 2991.32 2880.53 
2828.62 2785.64 2821.56 2899.54 3158.9 3158.9 3234.74 3311.47 3311.47 
3020.49 3153.27 3025.51 2985.43 2885.09 4063.42 4041.16 4055.09 4003.21 
4005.19 3894.43 4066.54 4114.62 3935.44 3873.15 3809.64 3810.78 3751.09 
3565.95 3481.52 3481.52 3337.58 3270.38 3209.69 3467.41 3590.14 3614.9 
3705.77 3795.9 3704.25 3660.38 3626.78 3691.84 3721.07 3805.79 3786.68 
3662.73 3681.46 3611.94 3643.05 3643.05 3566.26 3537.77 3541.15 3477.36 
3511.33 3468.62 3327.35 3376.3 3326.59 3358.54 3422.02 3844.25 4004.8 
4163.7 4560.9 4473.65 4494.16 4199.77 4174.8 4101.69 4000.31 4010.98 
4206.93 4302.28 4424.16 4311.35 4200.98 4165.27 4043.21 4081.44 4076.67 
3944.06 3848.95 3996.48 3952.06 3862.22 3672 3655.02 3743.11 3942.9 
4180.4 3991.26 3944.77 3758.35 3624.37 3061.32 3136.04 3265.31 3154.37 
3290.14 3337.04 3317.11 3317.11 3313.99 3395.51 3395.51 3582.09 3629.48 
3603.23 3668.8 3683.15 3647.47 3413.75 3648.48 3855.11 3892.7 3930.47 
3954.14 3744.74 3861.65 3694.91 3767.36 4246.78 4351.07 4577.37 4653.25 
4680.02 4572.46 4331.72 3898.1 3848.53 3649.19 3732.99 3568.36 3433.07 
3365.74 4609.62 3851.47 3816.31 3667.05 3725.75 3644.93 3567.52 3483.9 
3458.17 3475.72 3372.72 3297.22 3441.44 3403.46 3577.52 3689.36 4034.79 
4193.05 4124.4 3899.63 3812.32 3823.74 3755.15 3845.51 3771.53 4730.89 
4465.8 3998.79 4114.15 3718.06 3503.89 3419.52 3387.52 3374.79 3355.65 
3378.15 3378.59 3373.48 3414.27 3526.28 3318.3 4083.48 4083.48 3928.46 
3816.54 3710.53 3696.93 3540.58 3567.21 3779.01 3882.64 4062.72 3891 
3571.56 3643.96 3888.96 3955.63 3832.26 3807.95 3718.59 3736.31 3881.9 
3723.77 3821.57 3666.43 3615.28 3583.46 3799.14 3555.33 3293.53 3334.3 
3394.64 3399.58 3914.93 3752.37 3731.65 3585.9 3600.28 3526.8 3557.94 
3677.28 3805.21 3667.96 3796.91 4126.4 4073.11 4043.01 3924.44 3770.91 
3652.54 3578.14 3540.47 3521.48 3521.48 3492.56 3492.56 3489.86 3430.02 
3430.02 3429.91 3373.56 3367.86 3457.06 3480.86 3480.86 3426.21 3408.41 
3177.09 3223.74 3261.41 3528.89 3552.37 3552.37 3530.63 3458.37 3522.56 
3647.15 3755.15 3772.69 3769.4 3773.25 3798.64 3977.62 4057.19 4186.99 
4186.3 3951.38 3881.58 3866.54 3841.6 3821.53 3811.58 3811.83 3419.57 
3274.99 3187.74 3171.47 3298.41 3299.73 3169.36 3207.06 3281.8 3331.7 
3394.15 3527.37 3527.37 3474.89 
rGFP 1 319 double
3762.67 4707.44 5191.37 4932.41 5498.75 5100.23 3908.04 5179.89 4589.36 
4808.75 5597.44 4636.65 4611.42 5446.02 5373.43 3809.28 4861.74 4263.59 
4210.12 4704.81 4887.26 5057.78 4864.77 3898.32 3842.51 4276.11 3452.22 
3652.99 4216.26 4208.21 3909.77 3642.41 3725.26 3695.95 3827.32 3861.77 
3808.42 3749.56 3703.36 3614.81 3715.86 3715.86 3856.22 4005.74 4005.74 
3973.53 4201.32 4080.02 4211.69 4200.42 4786.2 4565.47 4380.74 4494.72 
4417.1 4743.01 4901.54 4998.44 4834.33 4792.54 4765.33 4580.01 4611.35 
4403.1 4204.64 4204.64 4089.19 4167.7 4252.72 4630.88 4716.63 4816.05 
5123.98 5046.3 5151.88 5042.32 5022.12 5028.83 5043.3 5074.83 5068.94 
4846.98 4758.12 4540.22 4567.57 4567.57 4464.68 4457.46 4483.01 4358.06 
4428.05 4348.05 4168.06 4234.4 4244.22 4165.56 4392.11 4605.56 4705.04 
4972.4 5274.58 5248.44 5283.62 5155.41 5179.28 5156.11 4997.22 5061.3 
5141.74 5105.28 5408.09 5234.22 5263.15 5388.63 5087.28 5167.17 5001.36 
4611.85 5004.47 5402.74 4914.6 4849.48 4951.59 4973.62 4988.31 5048.81 
5094.43 5115.56 5041.42 4787.02 4628.78 4387.98 4291.59 4100.14 4210.73 
4083.81 3967.06 4022.91 4022.91 3876.07 3769.54 3769.54 3819.06 3856.6 
3921.65 3957.23 4103.6 4127.05 3925.84 4118.1 4437.27 4628.59 4694.26 
4871.95 4881.99 5059.07 5084.8 4595.27 5217.69 5794.46 6412.35 6556.94 
6409.05 6121.25 5880.09 4495.17 4569.74 4442.4 4337.12 4359.28 4265.54 
4480.38 5062.7 4500.51 4528.6 4578.62 4509.3 4641.41 4703.93 4756.54 
4656.8 4558.59 4448.99 4486.65 4409.3 4470.41 4606.14 4694.16 4944.27 
4876.32 5237.95 5297.83 5050.64 4766.83 4713.3 4852.62 5007.62 5672.86 
5899.47 5579.02 5406.3 4997.3 4710.54 4533.62 4540.43 4302.53 4172.62 
4374.91 4206.7 4344.35 4384.35 4493.16 4412.88 5694.67 5694.67 5619.12 
5526.38 5524.77 5253.37 5264.93 5236.36 5284.7 5207.9 5286.94 4953.1 
4797.53 5089.94 5435.25 4945.16 4667.59 4613.65 4483.06 4805.42 4685.95 
5106.27 4817.77 4497.05 4559.15 4576.91 5059.3 4907.49 5001.37 5191.37 
4694.42 4825.06 5367.95 5290.43 5197.81 4897.06 5010.4 4960.35 4925.89 
4916.52 4932.19 4697.26 4991.86 5406.3 5276.17 5113.8 5095.06 4882.1 
4866.53 4968.36 4819.79 4788.01 4788.01 4624.7 4624.7 4557.43 4563.54 
4563.54 4617.2 4630.78 4530.51 4524.62 4445.12 4445.12 4429.86 4439.21 
4322.47 4440.36 4339.74 4461.74 4525.3 4525.3 4567.6 4538.48 4489.63 
4464.32 4553.1 4695.63 4770.15 5011.01 5133.8 5347.12 5395.38 5451.78 
5349.94 5180.93 5103.68 5185.3 5108.62 5000.09 5020.6 5001.06 5102.22 
5043.37 4799.64 4607.95 4643.63 4586.91 4454.98 4417.12 4341.63 4303.94 
4492.91 4630.89 4630.89 4402.99 
bkstRFP 1 319 double
779.939 1009.02 1092.96 1554.97 1844.62 1628.85 834.489 1773.18 1219.26 
1644.65 1830.19 1147.13 1648.46 1945.66 2425.52 676.609 1515.15 1442.57 
1207.28 1456.47 1507.73 1846.76 1776.85 876.779 772.009 621.409 543.979 
732.199 1075.31 937.889 922.459 827.769 848.339 774.549 749.979 639.189 
587.279 544.299 580.219 658.199 917.559 917.559 993.399 1070.13 1070.13 
779.149 911.929 784.169 744.089 643.749 1822.08 1799.82 1813.75 1761.87 
1763.85 1653.09 1825.2 1873.28 1694.1 1631.81 1568.3 1569.44 1509.75 
1324.61 1240.18 1240.18 1096.24 1029.04 968.349 1226.07 1348.8 1373.56 
1464.43 1554.56 1462.91 1419.04 1385.44 1450.5 1479.73 1564.45 1545.34 
1421.39 1440.12 1370.6 1401.71 1401.71 1324.92 1296.43 1299.81 1236.02 
1269.99 1227.28 1086.01 1134.96 1085.25 1117.2 1180.68 1602.91 1763.46 
1922.36 2319.56 2232.31 2252.82 1958.43 1933.46 1860.35 1758.97 1769.64 
1965.59 2060.94 2182.82 2070.01 1959.64 1923.93 1801.87 1840.1 1835.33 
1702.72 1607.61 1755.14 1710.72 1620.88 1430.66 1413.68 1501.77 1701.56 
1939.06 1749.92 1703.43 1517.01 1383.03 819.979 894.699 1023.97 913.029 
1048.8 1095.7 1075.77 1075.77 1072.65 1154.17 1154.17 1340.75 1388.14 
1361.89 1427.46 1441.81 1406.13 1172.41 1407.14 1613.77 1651.36 1689.13 
1712.8 1503.4 1620.31 1453.57 1526.02 2005.44 2109.73 2336.03 2411.91 
2438.68 2331.12 2090.38 1656.76 1607.19 1407.85 1491.65 1327.02 1191.73 
1124.4 2368.28 1610.13 1574.97 1425.71 1484.41 1403.59 1326.18 1242.56 
1216.83 1234.38 1131.38 1055.88 1200.1 1162.12 1336.18 1448.02 1793.45 
1951.71 1883.06 1658.29 1570.98 1582.4 1513.81 1604.17 1530.19 2489.55 
2224.46 1757.45 1872.81 1476.72 1262.55 1178.18 1146.18 1133.45 1114.31 
1136.81 1137.25 1132.14 1172.93 1284.94 1076.96 1842.14 1842.14 1687.12 
1575.2 1469.19 1455.59 1299.24 1325.87 1537.67 1641.3 1821.38 1649.66 
1330.22 1402.62 1647.62 1714.29 1590.92 1566.61 1477.25 1494.97 1640.56 
1482.43 1580.23 1425.09 1373.94 1342.12 1557.8 1313.99 1052.19 1092.96 
1153.3 1158.24 1673.59 1511.03 1490.31 1344.56 1358.94 1285.46 1316.6 
1435.94 1563.87 1426.62 1555.57 1885.06 1831.77 1801.67 1683.1 1529.57 
1411.2 1336.8 1299.13 1280.14 1280.14 1251.22 1251.22 1248.52 1188.68 
1188.68 1188.57 1132.22 1126.52 1215.72 1239.52 1239.52 1184.87 1167.07 
935.749 982.399 1020.07 1287.55 1311.03 1311.03 1289.29 1217.03 1281.22 
1405.81 1513.81 1531.35 1528.06 1531.91 1557.3 1736.28 1815.85 1945.65 
1944.96 1710.04 1640.24 1625.2 1600.26 1580.19 1570.24 1570.49 1178.23 
1033.65 946.399 930.129 1057.07 1058.39 928.019 965.719 1040.46 1090.36 
1152.81 1286.03 1286.03 1233.55 
bkstGFP 1 319 double
1428.48 2373.25 2857.18 2598.22 3164.56 2766.04 1573.85 2845.7 2255.17 
2474.56 3263.25 2302.46 2277.23 3111.83 3039.24 1475.09 2527.55 1929.4 
1875.93 2370.62 2553.07 2723.59 2530.58 1564.13 1508.32 1941.92 1118.03 
1318.8 1882.07 1874.02 1575.58 1308.22 1391.07 1361.76 1493.13 1527.58 
1474.23 1415.37 1369.17 1280.62 1381.67 1381.67 1522.03 1671.55 1671.55 
1639.34 1867.13 1745.83 1877.5 1866.23 2452.01 2231.28 2046.55 2160.53 
2082.91 2408.82 2567.35 2664.25 2500.14 2458.35 2431.14 2245.82 2277.16 
2068.91 1870.45 1870.45 1755 1833.51 1918.53 2296.69 2382.44 2481.86 
2789.79 2712.11 2817.69 2708.13 2687.93 2694.64 2709.11 2740.64 2734.75 
2512.79 2423.93 2206.03 2233.38 2233.38 2130.49 2123.27 2148.82 2023.87 
2093.86 2013.86 1833.87 1900.21 1910.03 1831.37 2057.92 2271.37 2370.85 
2638.21 2940.39 2914.25 2949.43 2821.22 2845.09 2821.92 2663.03 2727.11 
2807.55 2771.09 3073.9 2900.03 2928.96 3054.44 2753.09 2832.98 2667.17 
2277.66 2670.28 3068.55 2580.41 2515.29 2617.4 2639.43 2654.12 2714.62 
2760.24 2781.37 2707.23 2452.83 2294.59 2053.79 1957.4 1765.95 1876.54 
1749.62 1632.87 1688.72 1688.72 1541.88 1435.35 1435.35 1484.87 1522.41 
1587.46 1623.04 1769.41 1792.86 1591.65 1783.91 2103.08 2294.4 2360.07 
2537.76 2547.8 2724.88 2750.61 2261.08 2883.5 3460.27 4078.16 4222.75 
4074.86 3787.06 3545.9 2160.98 2235.55 2108.21 2002.93 2025.09 1931.35 
2146.19 2728.51 2166.32 2194.41 2244.43 2175.11 2307.22 2369.74 2422.35 
2322.61 2224.4 2114.8 2152.46 2075.11 2136.22 2271.95 2359.97 2610.08 
2542.13 2903.76 2963.64 2716.45 2432.64 2379.11 2518.43 2673.43 3338.67 
3565.28 3244.83 3072.11 2663.11 2376.35 2199.43 2206.24 1968.34 1838.43 
2040.72 1872.51 2010.16 2050.16 2158.97 2078.69 3360.48 3360.48 3284.93 
3192.19 3190.58 2919.18 2930.74 2902.17 2950.51 2873.71 2952.75 2618.91 
2463.34 2755.75 3101.06 2610.97 2333.4 2279.46 2148.87 2471.23 2351.76 
2772.08 2483.58 2162.86 2224.96 2242.72 2725.11 2573.3 2667.18 2857.18 
2360.23 2490.87 3033.76 2956.24 2863.62 2562.87 2676.21 2626.16 2591.7 
2582.33 2598 2363.07 2657.67 3072.11 2941.98 2779.61 2760.87 2547.91 
2532.34 2634.17 2485.6 2453.82 2453.82 2290.51 2290.51 2223.24 2229.35 
2229.35 2283.01 2296.59 2196.32 2190.43 2110.93 2110.93 2095.67 2105.02 
1988.28 2106.17 2005.55 2127.55 2191.11 2191.11 2233.41 2204.29 2155.44 
2130.13 2218.91 2361.44 2435.96 2676.82 2799.61 3012.93 3061.19 3117.59 
3015.75 2846.74 2769.49 2851.11 2774.43 2665.9 2686.41 2666.87 2768.03 
2709.18 2465.45 2273.76 2309.44 2252.72 2120.79 2082.93 2007.44 1969.75 
2158.72 2296.7 2296.7 2068.8 
tubeWidth 1 319 double
0.26214 0.172663 0.177728 0.0895497 0.274462 0.32185 0.129726 0.190074 0.221166 
0.196687 0.184363 0.264435 0.305579 0.266607 0.218985 0.195513 0.170748 0.128429 
0.196262 0.142126 0.262361 0.129759 0.203511 0.286361 0.16434 0.0235251 0.00791454 
0.017931 0.110027 0.160441 0.202963 0.113463 0.168679 0.196695 0.190278 0.202001 
0.159259 0.0938201 0.0770788 0.0868719 0.137653 0.234684 0.259003 0.252367 0.289832 
0.0997035 0.139091 0.189975 0.173554 0.147666 0.230501 0.25016 0.207103 0.216283 
0.270681 0.227657 0.188535 0.114821 0.161233 0.0796391 0.137556 0.171686 0.1732 
0.212829 0.210158 0.169744 0.167892 0.190047 0.18796 0.215582 0.233698 0.254066 
0.254641 0.269399 0.25452 0.232117 0.228914 0.264854 0.233025 0.270324 0.258544 
0.284877 0.261857 0.291685 0.277811 0.230937 0.217539 0.2076 0.177475 0.206932 
0.218536 0.216869 0.220861 0.208641 0.190149 0.174016 0.186436 0.213135 0.228766 
0.29049 0.30622 0.282868 0.27284 0.246058 0.243908 0.283345 0.236306 0.197032 
0.214848 0.26294 0.278796 0.218091 0.201837 0.22838 0.216256 0.191784 0.214532 
0.260857 0.222162 0.0983495 0.148986 0.200339 0.240403 0.244984 0.245344 0.16035 
0.180619 0.221615 0.292716 0.262247 0.190916 0.13747 0.154776 0.214155 0.217041 
0.245726 0.264468 0.234758 0.244582 0.22786 0.223969 0.218784 0.239423 0.23279 
0.2494 0.238714 0.1834 0.237943 0.212997 0.181547 0.195863 0.230713 0.25562 
0.264331 0.217815 0.16258 0.176965 0.237548 0.102305 0.168496 0.328963 0.316797 