# vtk DataFile Version 3.0
vtk output
ASCII
DATASET POLYDATA
POINTS 391 float
1.53751 0.199793 1.20179 1.93305 0.178576 1.06301 1.59178 0.429089 1.01189 
2.00774 0.397655 0.808751 1.66177 0.764651 0.801725 0.0888319 -0.903621 0.504093 
2.6751 0.1214 0.74701 1.51021 1.1045 0.5662 -0.512149 -0.0915801 0.0598718 
-0.551271 0.273759 0.171725 1.98341 1.02877 0.422129 2.46412 0.875642 0.232354 
2.83575 0.711731 0.148905 -0.339915 -0.3066 -0.447364 -0.281591 0.592402 -0.619517 
3.62315 0.269134 -0.321533 3.52242 -0.574541 -0.331579 3.49348 0.437793 -0.384892 
3.70607 0.677594 -0.37261 0.933898 -1.15721 -0.798139 -0.0488033 0.403315 -1.12115 
3.42931 0.556132 -0.59955 -0.013761 0.0592452 -1.16735 0.965873 -0.857378 -1.21238 
1.25346 -0.613006 -1.19181 0.334882 0.398455 -1.34606 3.93882 0.0577853 -0.920142 
3.71175 0.324152 -0.95908 0.76134 -0.60082 -1.4498 0.491615 -0.363745 -1.49213 
1.0386 -0.410452 -1.42774 1.00557 -0.292375 -1.43732 0.27487 -0.0433758 -1.53257 
4.3162 0.0317453 -1.27907 3.78984 0.186458 -1.34646 0.408706 -0.471225 -1.89929 
0.769902 -0.0355551 -1.87982 1.07951 0.130101 -1.85286 0.862763 0.45047 -1.89329 
1.88244 0.259121 -1.76809 4.72471 0.00544236 -1.43293 1.95982 0.714348 -1.81913 
1.45707 -0.0582101 -2.00222 1.47771 0.0497951 -2.00522 3.32095 0.0954716 -1.79825 
2.04326 0.391178 -1.95789 2.07421 0.553187 -1.96238 2.24553 0.576977 -1.94411 
4.95983 0.235435 -1.61913 4.94607 0.182905 -1.58824 4.92876 0.131456 -1.54288 
4.899 0.0826598 -1.4916 4.84401 0.0403546 -1.45097 4.78211 0.0107478 -1.43414 
2.19146 0.584937 -1.95064 2.13519 0.581399 -1.95686 2.06389 0.499184 -1.96089 
2.05357 0.445181 -1.95939 2.0202 0.633747 -1.87547 3.3738 0.085872 -1.78431 
3.42533 0.0787857 -1.75572 3.47706 0.0822349 -1.7127 3.53163 0.100569 -1.67009 
3.58505 0.1034 -1.64177 3.63696 0.0983172 -1.61324 3.68826 0.10424 -1.56292 
3.73961 0.138825 -1.46924 1.46739 -0.00420749 -2.00372 1.42606 0.113025 -1.94703 
1.37116 0.154476 -1.8956 1.30967 0.151969 -1.85767 1.24941 0.141716 -1.84161 
1.18948 0.123774 -1.84006 1.13356 0.122033 -1.84633 1.53714 0.0935407 -1.96331 
1.59722 0.126495 -1.94319 1.65694 0.143376 -1.94471 1.71999 0.172973 -1.95395 
1.77971 0.204022 -1.93378 1.8319 0.224075 -1.86913 1.87899 0.744439 -1.79993 
1.80817 0.73248 -1.79992 1.74816 0.719595 -1.80609 1.68858 0.699307 -1.81185 
1.6304 0.685754 -1.81779 1.5701 0.665809 -1.81618 1.51029 0.653189 -1.80742 
1.44902 0.637673 -1.79122 1.39413 0.646094 -1.7904 1.34376 0.668674 -1.8047 
1.28935 0.660679 -1.83287 1.23288 0.646606 -1.85351 1.17237 0.616126 -1.86634 
1.11099 0.585803 -1.87181 1.0521 0.568558 -1.87764 0.99035 0.53633 -1.88305 
0.926727 0.494294 -1.8882 0.913622 0.383126 -1.95137 0.962813 0.31651 -1.99474 
1.00783 0.251709 -2.00136 1.04617 0.189815 -1.94916 0.805375 0.459991 -1.87042 
0.743611 0.460793 -1.82523 0.676156 0.446013 -1.75751 0.60717 0.437399 -1.66789 
0.537192 0.4236 -1.57811 0.470038 0.424579 -1.48876 0.404229 0.423143 -1.41405 
1.01552 0.0861691 -1.85795 0.951559 0.0423452 -1.86305 0.887957 0.000416512 -1.86819 
0.826573 -0.0299067 -1.87366 0.450161 -0.417485 -1.69571 3.84229 0.174747 -1.33247 
3.89026 0.154338 -1.29616 3.92813 0.119691 -1.21551 3.94925 0.0930207 -1.0849 
3.73948 0.257429 -1.15416 4.25149 0.00297362 -1.25514 4.18715 -0.00972531 -1.20957 
4.1197 -0.0244952 -1.14185 4.05414 -0.0198744 -1.05996 3.99353 0.00589694 -0.986003 
0.195858 -0.0615112 -1.37644 0.126571 -0.0455748 -1.2582 0.0619909 0.00356758 -1.19332 
0.314881 -0.105996 -1.49508 0.357395 -0.169706 -1.47964 0.402414 -0.234507 -1.48626 
0.447432 -0.299307 -1.49287 0.313829 0.00153223 -1.66471 0.36174 0.0462065 -1.74359 
0.397726 0.0947723 -1.7643 0.431847 0.144929 -1.74051 0.435373 0.201446 -1.69812 
0.40035 0.266231 -1.62319 0.358437 0.333549 -1.50439 1.01077 -0.349289 -1.43392 
0.978745 -0.456232 -1.46959 0.915637 -0.501433 -1.48944 0.844609 -0.548329 -1.48027 
1.08374 -0.460455 -1.41268 1.13005 -0.494848 -1.38333 1.17286 -0.533334 -1.33179 
1.215 -0.565909 -1.26568 0.545075 -0.417479 -1.55059 0.599446 -0.457353 -1.59469 
0.648281 -0.509363 -1.6015 0.697736 -0.561982 -1.54851 0.811743 -0.692384 -1.43209 
0.856111 -0.763836 -1.39367 0.903099 -0.818719 -1.31845 3.69407 0.310401 -0.642438 
3.66982 0.388554 -0.86253 3.63497 0.43848 -0.734595 3.57376 0.454832 -0.570681 
3.86609 0.0784549 -0.756257 3.79502 0.111331 -0.603236 3.71921 0.177232 -0.459842 
0.285911 0.433102 -1.35333 0.229383 0.4282 -1.35951 0.170465 0.417309 -1.3557 
0.106137 0.400408 -1.32237 0.0348251 0.399336 -1.24084 1.20299 -0.659476 -1.19524 
1.16548 -0.708417 -1.19708 1.11234 -0.755074 -1.20081 1.04487 -0.803051 -1.2061 
1.29365 -0.632071 -1.08927 1.33433 -0.667553 -1.01573 1.3798 -0.701592 -0.979032 
1.42376 -0.753019 -0.956568 1.46535 -0.812105 -0.926538 1.50632 -0.860283 -0.874728 
1.55116 -0.883422 -0.816238 1.59718 -0.905129 -0.765162 1.64288 -0.942702 -0.735728 
1.69122 -0.975925 -0.721133 1.73825 -1.01601 -0.706347 1.78492 -1.04851 -0.677054 
1.82812 -1.08498 -0.625569 1.87332 -1.10623 -0.567132 1.91936 -1.12783 -0.516059 
1.96507 -1.1654 -0.486625 2.01343 -1.19851 -0.472032 2.06163 -1.23718 -0.46465 
2.11268 -1.26095 -0.45768 2.16375 -1.28463 -0.450714 2.21233 -1.32128 -0.443387 
2.26415 -1.34106 -0.436529 2.32005 -1.33942 -0.430264 2.38103 -1.3112 -0.424736 
2.44238 -1.28109 -0.419261 2.5009 -1.26575 -0.413376 2.56039 -1.24533 -0.407632 
2.61855 -1.23188 -0.401695 2.67768 -1.21336 -0.395898 2.73388 -1.2096 -0.389705 
2.78865 -1.20371 -0.383779 2.83838 -1.17131 -0.379735 2.87521 -1.12632 -0.377778 
2.9253 -1.09201 -0.373788 2.98232 -1.07432 -0.36819 3.04396 -1.04207 -0.362787 
3.10747 -1.00001 -0.357655 3.16956 -0.955834 -0.352791 3.22191 -0.90972 -0.349127 
3.25937 -0.860812 -0.347292 3.30983 -0.814342 -0.34386 3.36029 -0.767872 -0.340429 
3.39766 -0.718945 -0.338605 3.44801 -0.672455 -0.335187 3.49659 -0.625632 -0.331987 
0.957843 -0.936393 -1.14221 0.954422 -0.999228 -1.07232 0.962581 -1.05601 -0.993944 
0.953906 -1.10792 -0.902795 -0.141313 0.454855 -0.965017 -0.21544 0.520268 -0.797526 
-0.0525696 0.135895 -1.16808 -0.0613798 0.19874 -1.15477 -0.056778 0.256579 -1.13223 
-0.0510453 0.321284 -1.11984 -0.0825121 -0.0100291 -1.16426 -0.12673 -0.0664485 -1.1441 
-0.172319 -0.113769 -1.0947 -0.206014 -0.161085 -1.0091 -0.244896 -0.206561 -0.871943 
-0.299897 -0.251493 -0.681895 3.46181 0.496781 -0.495893 3.48994 0.601409 -0.56505 
3.54853 0.645517 -0.515799 3.60406 0.678285 -0.45886 3.65534 0.684101 -0.408547 
3.37385 0.623073 -0.504661 3.31753 0.676002 -0.424102 3.25543 0.693977 -0.349937 
3.1901 0.695064 -0.275294 3.12892 0.722582 -0.19404 3.06537 0.734736 -0.117254 
2.99608 0.721996 -0.0374191 2.92173 0.713179 0.051612 3.4971 0.422216 -0.286676 
3.53998 0.364235 -0.265511 3.50043 0.239498 -0.151878 3.41096 0.226316 -0.018077 
3.33522 0.198825 0.080677 3.26082 0.161527 0.169609 3.1847 0.125048 0.27473 
3.10962 0.0987403 0.386932 3.03858 0.08884 0.491316 2.96944 0.0746883 0.573735 
2.90517 0.0765803 0.640992 2.84446 0.0876628 0.693266 2.78577 0.0998052 0.730783 
2.7296 0.110966 0.746245 -0.323888 0.548947 -0.457967 -0.376807 0.506453 -0.334982 
-0.419566 0.460811 -0.255479 -0.464866 0.415027 -0.198646 -0.496101 0.367223 -0.117727 
-0.522489 0.319749 0.00851529 -0.279347 0.653294 -0.428211 -0.258974 0.709957 -0.264484 
-0.236968 0.76466 -0.160198 -0.199691 0.81443 -0.12857 -0.162343 0.862947 -0.141662 
-0.108429 0.908356 -0.152709 -0.0496647 0.954094 -0.118442 0.00742982 1.00097 -0.0545656 
0.0620223 1.04853 0.0164501 0.110183 1.09635 0.0568764 0.145692 1.14396 0.0734871 
0.195446 1.17647 0.0775284 0.251068 1.18211 0.076097 0.308445 1.18731 0.0748865 
0.370302 1.21537 0.0730545 0.430813 1.24585 0.0858835 0.489317 1.26109 0.0917712 
0.548444 1.2796 0.0975681 0.604389 1.28145 0.103827 0.655442 1.27662 0.139717 
0.706359 1.28054 0.190092 0.760079 1.29913 0.240051 0.813117 1.29996 0.26842 
0.864075 1.28045 0.282635 0.913538 1.24364 0.282602 0.967855 1.22278 0.267409 
1.02791 1.22249 0.236917 1.09185 1.24725 0.213095 1.15059 1.26376 0.218948 
1.19842 1.24206 0.255305 1.2457 1.2222 0.298976 1.29347 1.20019 0.335342 
1.33911 1.16663 0.372037 1.38858 1.15582 0.422967 1.44586 1.15361 0.48929 
-0.426758 -0.20289 -0.193641 -0.283008 -0.397827 -0.374195 -0.239524 -0.467501 -0.298637 
-0.200633 -0.517957 -0.222071 -0.159576 -0.550237 -0.146148 -0.120098 -0.587271 -0.0652009 
-0.080487 -0.618864 0.0229688 -0.0448932 -0.666767 0.118935 -0.0103619 -0.724949 0.207842 
0.0238289 -0.784919 0.296789 0.0571649 -0.844633 0.393092 2.39071 0.988158 0.339749 
2.33136 1.0675 0.413058 2.27776 1.10831 0.44228 2.21831 1.09438 0.44555 
2.15769 1.06806 0.43997 2.10106 1.06263 0.43381 2.04441 1.05709 0.427654 
2.56738 0.856825 0.269258 2.638 0.841794 0.289837 2.69495 0.816019 0.280163 
2.75604 0.761875 0.231925 2.37703 0.756775 0.230206 2.33735 0.680153 0.231352 
2.3069 0.626389 0.252952 2.24883 0.582841 0.315682 2.17287 0.541821 0.435978 
2.09067 0.486832 0.606627 -0.555853 -0.0159403 -0.0110282 -0.560643 0.043933 -0.0742429 
-0.551674 0.0979847 -0.108241 -0.554235 0.155203 -0.083992 -0.568596 0.21673 0.015829 
1.97215 0.975148 0.430967 1.95733 0.922608 0.454271 1.92839 0.873341 0.4982 
1.87137 0.829867 0.553588 1.80141 0.791198 0.622204 1.73012 0.765214 0.704964 
1.93965 1.09073 0.4141 1.89368 1.1411 0.406393 1.84262 1.16477 0.399427 
1.78813 1.17531 0.400188 1.72968 1.17473 0.415971 1.66476 1.15786 0.454215 
1.59421 1.14183 0.506712 -0.512397 0.253074 0.281651 -0.478344 0.207322 0.377346 
-0.453969 0.150744 0.450088 -0.443822 0.0936605 0.478939 -0.434586 0.0339189 0.433183 
-0.461884 -0.0257202 0.283751 1.54451 1.01651 0.604298 1.55911 0.949674 0.654037 
1.58539 0.888866 0.712281 1.62187 0.827251 0.764246 2.60622 0.0944451 0.807702 
2.54104 0.0821096 0.860626 2.47607 0.0661414 0.906286 2.41514 0.0665798 0.944127 
2.35527 0.0772989 0.989048 2.29574 0.0898051 1.03393 2.23707 0.102056 1.07144 
2.1809 0.113216 1.0869 2.12634 0.123703 1.08766 2.07147 0.134691 1.08089 
2.00965 0.15098 1.07307 2.63926 0.182204 0.672758 2.60259 0.243372 0.60586 
2.5642 0.30505 0.553675 2.52178 0.364499 0.530989 2.4719 0.403879 0.538315 
2.41075 0.403159 0.576188 2.34819 0.404531 0.628732 2.28447 0.404272 0.686826 
2.21564 0.390423 0.739411 2.13116 0.390261 0.78021 1.61742 0.718895 0.866131 
1.60179 0.667542 0.926607 1.56982 0.618801 0.970166 1.54968 0.56657 0.992851 
1.55391 0.505356 1.00382 1.90278 0.457213 0.848003 1.82313 0.452616 0.87092 
1.75599 0.428337 0.886888 1.68367 0.424763 0.932965 1.95977 0.278939 0.939792 
1.55559 0.353436 1.08429 1.5334 0.282052 1.15062 1.84907 0.141245 1.1225 
1.77851 0.125219 1.17499 1.71329 0.108563 1.21506 1.65303 0.110506 1.23425 
1.5917 0.136367 1.2316 
LINES 55 510
7 48 49 50 51 52 53 40 
4 47 54 55 46 
4 46 56 57 45 
10 44 59 60 61 62 63 64 65 66 34 
3 43 67 42 
8 43 68 69 70 71 72 73 37 
8 43 74 75 76 77 78 79 39 
6 38 97 98 99 100 37 
9 38 101 102 103 104 105 106 107 25 
6 37 108 109 110 111 36 
3 35 112 29 
6 34 113 114 115 116 26 
3 34 117 27 
7 33 118 119 120 121 122 26 
5 32 123 124 125 22 
6 32 126 127 128 129 29 
9 32 130 131 132 133 134 135 136 25 
3 31 137 30 
5 30 138 139 140 28 
6 30 141 142 143 144 24 
6 29 145 146 147 148 28 
5 28 149 150 151 23 
3 27 152 15 
5 27 153 154 155 17 
5 26 156 157 158 15 
7 25 159 160 161 162 163 20 
6 24 164 165 166 167 23 
47 24 168 169 170 171 172 173 174 175 176 177 178 179 180 181 182 183 184 185 186 187 188 189 190 191 192 193 194 195 196 197 198 199 200 201 202 203 204 205 206 207 208 209 210 211 212 16 
6 23 213 214 215 216 19 
4 20 217 218 14 
6 22 219 220 221 222 20 
8 22 223 224 225 226 227 228 13 
3 21 229 17 
6 21 230 231 232 233 18 
4 17 242 243 15 
14 15 244 245 246 247 248 249 250 251 252 253 254 255 6 
8 14 256 257 258 259 260 261 9 
37 14 262 263 264 265 266 267 268 269 270 271 272 273 274 275 276 277 278 279 280 281 282 283 284 285 286 287 288 289 290 291 292 293 294 295 296 7 
3 13 297 8 
12 13 298 299 300 301 302 303 304 305 306 307 5 
9 11 308 309 310 311 312 313 314 10 
8 11 319 320 321 322 323 324 3 
7 8 325 326 327 328 329 9 
8 10 330 331 332 333 334 335 4 
9 10 336 337 338 339 340 341 342 7 
8 9 343 344 345 346 347 348 8 
6 7 349 350 351 352 4 
13 6 353 354 355 356 357 358 359 360 361 362 363 1 
12 6 364 365 366 367 368 369 370 371 372 373 3 
7 4 374 375 376 377 378 2 
6 3 379 380 381 382 2 
3 3 383 1 
21 46 58 41 80 81 82 83 84 85 86 87 88 89 90 91 92 93 94 95 96 38 
15 21 234 235 236 237 238 239 240 241 12 318 317 316 315 11 
10 2 384 385 0 390 389 388 387 386 1 

POINT_DATA 391
SCALARS DY_raw double
LOOKUP_TABLE default
275.471 330.365 319.792 317.896 387.039 839.559 301.302 415.705 319.56 
329.134 298.731 230.542 288.737 296.357 249.822 244.44 299.438 334.578 
315.429 247.271 240.977 223.879 288.07 237.123 268.446 334.786 294.734 
258.014 350.226 477.291 292.86 317.788 261.731 290.114 242.474 394.494 
277.446 338.53 280.931 433.449 609.448 325.41 518.975 411.942 339.278 
441.242 370.981 337.948 366.709 348.24 391.674 452.511 507.308 553.227 
375.129 334.435 415.759 415.759 359.582 356.493 356.493 324.295 324.295 
326.971 252.226 278.116 280.46 518.975 368.327 349.037 326.765 310.639 
310.639 302.185 369.096 343.738 380.758 365.859 424.758 410.119 359.851 
374.297 419.842 401.673 455.056 455.056 400.549 414.549 370.381 314.359 
300.969 309.171 291.845 310.427 263.842 254.491 265.382 274.387 294.07 
335.079 282.576 305.523 331.036 276.035 308.054 291.386 282.025 286.499 
332.631 332.152 290.759 286.507 434.698 242.474 224.569 236.782 248.803 
271.533 211.303 232.295 206.306 215.534 246.594 281.292 308.786 301.927 
279.067 289.924 348.157 324.086 285.896 272.133 275.43 237.865 252.121 
298.617 294.179 326.524 314.322 290.973 311.676 273.617 234.455 245.247 
279.389 376.604 387.847 382.277 362.223 307.835 262.081 233.155 258.803 
274.692 268.78 268.982 271.044 273.798 251.985 291.851 291.851 259.107 
233.23 222.386 299.505 263.898 218.577 206.993 348.95 416.434 559.77 
615.738 541.364 461.765 468.438 360.968 312.128 359.539 311.812 402.256 
386.626 354.503 354.503 340.39 306.939 306.939 272.974 290.105 290.105 
286.923 292.25 265.442 289.137 267.108 279.347 271.886 271.886 266.891 
275.693 266.378 277.288 285.349 307.208 300.144 320.996 327.719 326.799 
322.981 303.506 303.506 301.093 308.835 316.812 247.072 231.493 255.72 
258.385 244.245 241.823 275.662 265.961 249.397 251.173 294.459 294.924 
287.731 233.749 230.534 238.872 303.717 231.927 223.462 265.833 265.833 
261.665 248.21 253.259 252.714 255.254 235.674 235.365 287.731 305.117 
265.97 279.406 334.896 370.312 347.858 293.525 306.791 313.587 254.819 
259.616 244.452 261.433 283.529 251.168 257.176 269.457 279.474 302.418 
296.205 264.757 275.067 275.835 291.419 266.91 268.94 258.87 266.919 
257.243 237.957 252.263 254.725 237.16 259.616 291.727 291.727 304.481 
289.444 289.444 277.132 322.142 352.517 332.505 332.505 307.807 293.562 
254.2 234.864 233.124 264.833 359.651 365.276 390.468 353.646 349.23 
275.646 329.45 370.636 373.157 266.915 239.597 327.425 290.266 362.579 
404.316 427.678 257.516 273.193 277.718 288.704 288.704 295.673 298.731 
254.015 252.163 237.568 281.092 312.903 332.037 336.828 348.018 318.68 
293.739 344.862 324.458 365.794 357.662 340.187 305.929 308.191 308.191 
295.976 289.051 303.215 303.885 293.777 282.067 241.224 256.166 257.81 
307.891 399.489 418.736 392.294 348.57 320.491 320.4 417.124 419.468 
398.684 387.039 329.578 359.145 309.546 324.003 301.242 298.624 298.624 
325.964 329.039 324.58 328.163 281.805 275.225 298.539 292.66 296.971 
300.814 321.629 346.419 352.235 345.952 393.012 411.521 404.33 418.768 
393.912 310.682 300.063 296.563 300.053 297.008 289.384 256.885 371.546 
395.964 319.476 303.225 301.783 
FIELD FieldData 7
DY_minmax 1 391 double
0.109221 0.195908 0.179211 0.176217 0.285405 1 0.150012 0.330672 0.178845 
0.193964 0.145953 0.0382727 0.130171 0.142203 0.068719 0.0602196 0.147069 0.20256 
0.172321 0.0646901 0.0547511 0.0277507 0.129117 0.0486647 0.0981283 0.202889 0.139641 
0.0816551 0.227271 0.427925 0.136682 0.176046 0.087525 0.132345 0.0571151 0.297176 
0.11234 0.208802 0.117844 0.358692 0.63662 0.188083 0.49375 0.32473 0.209983 
0.370998 0.260046 0.207882 0.2533 0.224134 0.292723 0.388794 0.475326 0.547839 
0.266597 0.202335 0.330758 0.330758 0.242046 0.237167 0.237167 0.186322 0.186322 
0.190549 0.072514 0.113399 0.1171 0.49375 0.255856 0.225393 0.190222 0.164757 
0.164757 0.151407 0.25707 0.217025 0.275486 0.251957 0.344968 0.321851 0.242471 
0.265283 0.337204 0.308513 0.392814 0.392814 0.306739 0.328847 0.2591 0.170631 
0.149487 0.162439 0.135079 0.164423 0.090858 0.0760921 0.0932894 0.10751 0.138592 
0.203352 0.120442 0.156678 0.196968 0.110112 0.160675 0.134354 0.119572 0.126637 
0.199486 0.19873 0.133364 0.126649 0.360664 0.0571151 0.0288403 0.0481266 0.0671088 
0.103003 0.0078912 0.0410399 0 0.0145731 0.0636202 0.118415 0.161831 0.150999 
0.1149 0.132045 0.224003 0.185991 0.125685 0.103951 0.109157 0.0498368 0.072349 
0.145773 0.138765 0.189842 0.170573 0.133702 0.166395 0.106294 0.0444508 0.0614942 
0.115409 0.268926 0.28668 0.277885 0.246217 0.16033 0.0880769 0.0423993 0.0829007 
0.107992 0.098656 0.0989753 0.102232 0.10658 0.0721339 0.135089 0.135089 0.0833806 
0.0425177 0.0253925 0.147175 0.0909458 0.019378 0.00108482 0.225256 0.331824 0.558172 
0.646553 0.529107 0.403408 0.413945 0.244234 0.167109 0.241977 0.16661 0.309435 
0.284752 0.234025 0.234025 0.211739 0.158914 0.158914 0.105279 0.132332 0.132332 
0.127306 0.135719 0.0933846 0.130802 0.0960149 0.115342 0.103561 0.103561 0.0956732 
0.109573 0.0948622 0.112091 0.124821 0.159339 0.148184 0.181113 0.191729 0.190276 
0.184248 0.153493 0.153493 0.149683 0.161908 0.174505 0.0643752 0.0397734 0.0780322 
0.0822412 0.0599109 0.0560874 0.109523 0.0942041 0.0680466 0.0708519 0.139206 0.139941 
0.128582 0.0433362 0.0382603 0.0514272 0.153827 0.0404592 0.0270919 0.0940025 0.0940025 
0.0874195 0.0661731 0.0741459 0.0732856 0.0772963 0.0463771 0.0458881 0.128583 0.156037 
0.0942191 0.115436 0.203063 0.258991 0.223531 0.137731 0.158681 0.169413 0.0766086 
0.0841849 0.0602383 0.0870539 0.121947 0.0708438 0.0803312 0.0997242 0.115543 0.151775 
0.141964 0.0923033 0.108584 0.109796 0.134406 0.0957029 0.0989089 0.083007 0.0957173 
0.0804372 0.0499823 0.0725728 0.0764604 0.0487233 0.0841847 0.134893 0.134893 0.155033 
0.131287 0.131287 0.111844 0.182923 0.230889 0.199287 0.199287 0.160284 0.13779 
0.0756313 0.0450973 0.0423503 0.0924223 0.242154 0.251036 0.290819 0.232671 0.225698 
0.109498 0.194463 0.259502 0.263482 0.095711 0.0525715 0.191265 0.132586 0.246779 
0.312687 0.349579 0.0808681 0.105625 0.112769 0.130119 0.130119 0.141124 0.145953 
0.0753402 0.0724146 0.0493677 0.118098 0.168332 0.198547 0.206113 0.223784 0.177455 
0.13807 0.218801 0.18658 0.251854 0.239013 0.211418 0.157319 0.160892 0.160892 
0.141603 0.130666 0.153033 0.154092 0.13813 0.119639 0.055141 0.0787368 0.0813331 
0.160418 0.305065 0.335459 0.293703 0.224656 0.180315 0.180172 0.332913 0.336615 
0.303793 0.285405 0.194664 0.241355 0.163031 0.185862 0.149918 0.145783 0.145783 
0.188958 0.193814 0.186773 0.192431 0.119224 0.108834 0.14565 0.136365 0.143174 
0.149242 0.182112 0.221259 0.230443 0.220522 0.294837 0.324065 0.312709 0.335509 
0.296257 0.164825 0.148057 0.142529 0.14804 0.143232 0.131192 0.0798711 0.260939 
0.299499 0.178713 0.15305 0.150772 
WidthEq 1 391 double
3.45902 3.2399 3.08432 3.0644 2.79093 1 3.83798 2.79378 4.71536 
4.56822 4.16585 5.47275 4.65053 4.71064 5.69036 4.94648 1.52061 3.84637 
1.30283 5.16287 4.31584 4.91305 4.44142 4.85975 2.60011 2.97802 3.31329 
4.04272 3.2579 2.14345 2.55159 2.03255 3.68217 1.60985 4.47206 1.89724 
2.93917 2.74217 3.2897 1.68924 1.06442 2.00762 1.67567 2.26391 2.41442 
2.09266 2.35454 1.86934 1.31529 1.71772 1.71487 1.56995 1.38362 1.23474 
1.99416 2.39624 2.22977 2.22977 2.12202 2.31819 2.31819 2.69936 2.69936 
2.78633 3.78847 3.6287 3.76709 1.67567 2.69936 2.64327 2.78237 2.95687 
2.95687 2.94796 2.47802 2.50045 2.15021 2.09627 2.02171 2.00127 1.83928 
1.77044 1.86322 1.86876 1.88594 1.88594 2.1085 2.0467 2.23577 2.54728 
2.64712 2.84574 2.71503 2.8292 3.23326 3.43194 3.43136 3.3554 3.08263 
2.64758 2.76099 3.01326 2.92309 3.0457 3.02817 3.06236 3.30875 3.29581 
2.78248 2.80019 2.98384 3.03417 2.24008 4.47206 4.46303 3.95063 3.67238 
3.95378 2.71136 2.97557 3.83483 3.74408 3.52572 3.67937 3.92838 4.23132 
3.5895 3.51261 2.74689 2.91907 3.16447 2.99386 3.0358 3.40369 3.35144 
2.97394 3.18544 2.66651 3.3229 3.61448 3.57721 3.05869 3.09271 2.78184 
2.94843 2.89787 2.84411 2.8557 3.08414 3.62002 4.16772 4.63952 4.8795 
4.28305 4.31467 4.53613 4.04808 4.3371 4.79754 2.93433 2.93433 3.19837 
3.50679 3.99787 3.04692 3.57604 4.45051 5.07201 2.43731 1.88332 1.22134 
1.11253 1.2274 1.51869 1.54473 2.11404 2.29915 2.1858 2.22127 2.02055 
2.09202 2.26822 2.26822 2.27154 2.47837 2.47837 2.72732 2.74538 2.74538 
2.80939 2.71229 2.81172 2.54641 2.50097 2.43754 2.50225 2.50225 2.63185 
2.81621 2.98891 3.16977 3.21287 3.05164 2.85803 2.68358 2.72895 2.84486 
2.8988 3.15002 3.15002 2.85692 2.46964 2.42222 4.78974 5.24401 4.8887 
4.71477 4.49635 5.00071 4.43228 4.38981 4.3007 4.38812 4.33052 4.03188 
4.19923 4.82492 4.66433 5.33435 4.26027 4.96203 4.34467 2.50965 2.50965 
4.55162 4.37991 4.06054 3.70034 3.70611 4.53159 4.81712 4.55227 3.8752 
4.46478 4.58092 3.53049 2.97883 3.10768 3.38639 3.41062 3.40048 3.75643 
3.82464 4.12432 4.25084 4.06963 5.65052 5.7157 5.17289 5.16642 5.02063 
5.21081 5.65034 5.51876 5.29835 4.87676 5.20673 4.70435 4.56525 4.6408 
4.60405 4.83086 4.39704 3.94312 3.49013 3.20145 2.7621 2.7621 2.61129 
2.79588 2.79588 2.83857 2.63197 2.61496 2.88383 2.88383 3.04366 3.09696 
3.32919 3.47848 3.41388 3.24997 2.83822 2.69744 2.64065 2.86484 3.03691 
5.44898 4.16958 3.58367 3.21438 3.19318 3.30659 3.00615 3.65864 3.29814 
3.13598 2.62999 4.76976 3.97282 3.29104 3.62689 3.62689 4.18327 4.16585 
6.0964 6.11049 5.75093 5.05709 4.80692 4.51429 3.75224 2.65678 2.81417 
3.1467 4.13498 4.42004 3.75777 3.92261 4.44893 4.05006 3.66632 3.66632 
3.42547 3.29395 3.23005 3.92832 3.75935 3.71921 3.72964 3.60348 3.60563 
3.58088 3.66848 3.43025 3.50877 3.67949 4.20995 4.66585 2.7441 2.54355 
2.59085 2.79093 3.5648 3.23337 3.53964 3.47743 3.79622 4.01639 4.01639 
3.62963 3.40497 3.3766 3.33175 3.71473 3.59113 3.38575 3.49525 3.48774 
3.41423 3.18404 3.1668 3.11082 3.06964 2.78831 2.6315 2.57431 2.4457 
2.56679 3.06451 3.01716 3.0058 2.9998 3.25516 3.42559 3.7184 2.78953 
2.32099 2.65597 2.89111 3.07482 
rRFP 1 391 double
2841.06 2803.44 2776.73 2773.31 2726.36 2418.89 2906.12 2726.85 3056.75 
3031.49 2962.41 3186.78 3045.62 3055.94 3224.14 3096.43 2508.27 2907.56 
2470.88 3133.58 2988.16 3090.69 3009.72 3081.54 2693.6 2758.48 2816.04 
2941.27 2806.53 2615.2 2685.27 2596.16 2879.37 2523.59 3014.98 2572.93 
2751.81 2717.99 2811.99 2537.22 2429.95 2591.88 2534.89 2635.88 2661.72 
2606.48 2651.44 2568.14 2473.02 2542.11 2541.62 2516.74 2484.75 2459.19 
2589.57 2658.6 2630.02 2630.02 2611.52 2645.2 2645.2 2710.64 2710.64 
2725.57 2897.62 2870.19 2893.95 2534.89 2710.64 2701.01 2724.89 2754.85 
2754.85 2753.32 2672.64 2676.49 2616.36 2607.1 2594.3 2590.79 2562.98 
2551.16 2567.09 2568.04 2570.99 2570.99 2609.2 2598.59 2631.05 2684.53 
2701.67 2735.77 2713.33 2732.93 2802.3 2836.41 2836.31 2823.27 2776.44 
2701.75 2721.22 2764.53 2749.05 2770.1 2767.09 2772.96 2815.26 2813.04 
2724.91 2727.95 2759.48 2768.12 2631.79 3014.98 3013.43 2925.46 2877.69 
2926 2712.7 2758.06 2905.58 2890 2852.51 2878.89 2921.64 2973.65 
2863.46 2850.26 2718.8 2748.36 2790.49 2761.2 2768.4 2831.56 2822.59 
2757.78 2794.09 2705 2817.69 2867.75 2861.35 2772.33 2778.17 2724.8 
2753.4 2744.72 2735.49 2737.48 2776.7 2868.7 2962.73 3043.73 3084.93 
2982.53 2987.96 3025.98 2942.19 2991.81 3070.86 2750.98 2750.98 2796.31 
2849.26 2933.57 2770.31 2861.15 3011.28 3117.98 2665.65 2570.54 2456.89 
2438.21 2457.93 2507.94 2512.41 2610.15 2641.93 2622.47 2628.56 2594.1 
2606.37 2636.62 2636.62 2637.19 2672.7 2672.7 2715.44 2718.54 2718.54 
2729.53 2712.86 2729.93 2684.38 2676.58 2665.69 2676.8 2676.8 2699.05 
2730.7 2760.35 2791.4 2798.8 2771.12 2737.88 2707.93 2715.72 2735.62 
2744.88 2788.01 2788.01 2737.69 2671.2 2663.06 3069.52 3147.51 3086.51 
3056.65 3019.15 3105.74 3008.15 3000.86 2985.56 3000.57 2990.68 2939.41 
2968.14 3075.56 3047.99 3163.02 2978.62 3099.1 2993.11 2678.07 2678.07 
3028.64 2999.16 2944.33 2882.49 2883.48 3025.2 3074.22 3028.75 2912.51 
3013.73 3033.67 2853.33 2758.62 2780.74 2828.59 2832.75 2831.01 2892.12 
2903.83 2955.28 2977 2945.89 3217.3 3228.49 3135.3 3134.19 3109.16 
3141.81 3217.27 3194.68 3156.84 3084.46 3141.11 3054.86 3030.98 3043.95 
3037.64 3076.58 3002.1 2924.17 2846.4 2796.84 2721.41 2721.41 2695.52 
2727.21 2727.21 2734.54 2699.07 2696.15 2742.31 2742.31 2769.75 2778.9 
2818.77 2844.4 2833.31 2805.17 2734.48 2710.31 2700.56 2739.05 2768.59 
3182.7 2963.05 2862.46 2799.06 2795.42 2814.89 2763.31 2875.33 2813.44 
2785.6 2698.73 3066.09 2929.27 2812.22 2869.88 2869.88 2965.4 2962.41 
3293.85 3296.27 3234.54 3115.42 3072.47 3022.23 2891.4 2703.33 2730.35 
2787.44 2957.11 3006.05 2892.35 2920.65 3011.01 2942.53 2876.65 2876.65 
2835.3 2812.72 2801.75 2921.63 2892.62 2885.73 2887.52 2865.86 2866.23 
2861.98 2877.02 2836.12 2849.6 2878.91 2969.98 3048.25 2718.32 2683.89 
2692.01 2726.36 2859.22 2802.32 2854.9 2844.22 2898.95 2936.75 2936.75 
2870.35 2831.78 2826.91 2819.21 2884.96 2863.74 2828.48 2847.28 2845.99 
2833.37 2793.85 2790.89 2781.28 2774.21 2725.91 2698.99 2689.17 2667.09 
2687.88 2773.33 2765.2 2763.25 2762.22 2806.06 2835.32 2885.59 2726.12 
2645.68 2703.19 2743.56 2775.1 
rGFP 1 391 double
3255.72 3373.21 3289.2 3277.02 3383.06 3142.42 3459.25 3464.25 3809.7 
3806.42 3547.33 3564.56 3645.64 3698.89 3724.44 3511.98 2758.19 3589.77 
2713.81 3579.49 3342.88 3402.79 3582.3 3455.22 3000.85 3299.86 3279.4 
3345.94 3443.86 3325.91 3050.12 2948.78 3266.6 2769.9 3387.22 3051.31 
3118.32 3231.17 3227.04 3035.06 2951.57 2956.16 3172.49 3235.46 3122.02 
3226.23 3176.35 2934.6 2785.19 2901.04 2974.53 3013.28 3004.78 2985.95 
3050.93 3104.25 3229.91 3229.91 3065.9 3129.28 3129.28 3178.25 3178.25 
3213.91 3258.41 3312.06 3359.38 3172.49 3297.11 3225.46 3212.04 3221.38 
3221.38 3193.69 3217.49 3162.36 3121.57 3069.8 3161.6 3123.62 2964.73 
2965.53 3085.12 3053.49 3161.07 3161.07 3147.42 3151.32 3130.95 3103.62 
3099.56 3182.68 3095.23 3181.12 3155.93 3176.26 3213.48 3223.54 3209.37 
3190.01 3083.05 3223.48 3270.51 3143.58 3235.7 3195.19 3236.01 3247.11 
3228.4 3232.95 3170.44 3172.17 3276.62 3387.22 3305.12 3238.3 3216.56 
3376.44 2875.78 2994.07 3094.01 3109.84 3172.28 3337.84 3515.89 3580.41 
3304.57 3321.25 3259.21 3248.89 3207.57 3117.59 3139.01 3112.48 3147.83 
3190.93 3239.95 3173.54 3347.32 3354.58 3417.79 3139.77 3027.96 2985.1 
3126.62 3394.21 3405.94 3394.53 3420.01 3417.23 3395.14 3384.59 3565.69 
3479.38 3462.56 3523 3400.07 3490.35 3511.77 3159.25 3159.25 3131.58 
3120.75 3191.93 3215.43 3246.57 3275.64 3352.73 3153.36 3087.14 2986.53 
2987.89 2967.33 3004.14 3026.47 3065.96 3020.49 3088.74 2995.48 3115.64 
3111.69 3106.95 3106.95 3076.07 3063.57 3063.57 3047.35 3099.31 3099.31 
3108.94 3095.53 3049.21 3039.12 2970.89 2983.78 2983.19 2983.19 3005.28 
3079.27 3099.04 3181.8 3219.65 3240.35 3160.68 3164.28 3197.19 3232.56 
3239.12 3258.91 3258.91 3163.06 3065.57 3070.25 3486.27 3516.81 3553 
3521.09 3401.07 3512.15 3524.67 3470.38 3375.44 3405.04 3578.02 3491.96 
3511.11 3430.68 3378.15 3577.09 3596.78 3453.69 3273.73 2970.01 2970.01 
3493.86 3390 3331.23 3237.99 3248.86 3370.84 3436.64 3612.69 3485.25 
3490.36 3582.8 3485.21 3405.96 3383.89 3296.85 3349.21 3369.21 3260.07 
3295.8 3311.06 3414.17 3456.72 3722.09 3772.8 3696.73 3746.74 3821.19 
3846.33 3798.83 3820.89 3764.33 3724.04 3692.59 3568.05 3484.67 3541.58 
3487.22 3452.4 3412.07 3307.27 3130.58 3134.01 3108.64 3108.64 3097.95 
3112.11 3112.11 3089.52 3150.73 3224.68 3261.75 3261.75 3239.72 3212.01 
3149.14 3119.83 3098.72 3163.56 3323.63 3288.17 3333.95 3316 3363.44 
3804.85 3676.53 3631.1 3502.33 3155.17 3095.11 3287.15 3364.84 3498.7 
3570.79 3427.65 3531.15 3388.21 3216.84 3349.96 3349.96 3539.74 3547.33 
3851.44 3843.7 3669.1 3724.37 3806.96 3801.77 3566.72 3227.47 3199.68 
3227.17 3728.86 3736.98 3677.43 3705.83 3816.33 3541.89 3432.79 3432.79 
3316.72 3254.98 3282.26 3496.62 3407.27 3351.93 3202.54 3225.95 3232.43 
3405.38 3768.38 3739.23 3679.33 3585.42 3652.11 3797.8 3447.49 3369.8 
3335.79 3383.06 3477.74 3464.11 3398.54 3429.56 3446.44 3502.25 3502.25 
3485.99 3423.23 3398.84 3396.22 3349.69 3291.23 3313.64 3325.78 3338.62 
3329.91 3326.94 3399.9 3398.6 3364.81 3398.7 3385.78 3343.73 3327.04 
3313.95 3254.95 3208.2 3194.27 3202.96 3269.67 3294.17 3258.06 3339.3 
3221.89 3151.38 3179.52 3230.79 
bkstRFP 1 391 double
593.852 556.232 529.522 526.102 479.152 171.682 658.912 479.642 809.542 
784.282 715.202 939.572 798.412 808.732 976.932 849.222 261.062 660.352 
223.672 886.372 740.952 843.482 762.512 834.332 446.392 511.272 568.832 
694.062 559.322 367.992 438.062 348.952 632.162 276.382 767.772 325.722 
504.602 470.782 564.782 290.012 182.742 344.672 287.682 388.672 414.512 
359.272 404.232 320.932 225.812 294.902 294.412 269.532 237.542 211.982 
342.362 411.392 382.812 382.812 364.312 397.992 397.992 463.432 463.432 
478.362 650.412 622.982 646.742 287.682 463.432 453.802 477.682 507.642 
507.642 506.112 425.432 429.282 369.152 359.892 347.092 343.582 315.772 
303.952 319.882 320.832 323.782 323.782 361.992 351.382 383.842 437.322 
454.462 488.562 466.122 485.722 555.092 589.202 589.102 576.062 529.232 
454.542 474.012 517.322 501.842 522.892 519.882 525.752 568.052 565.832 
477.702 480.742 512.272 520.912 384.582 767.772 766.222 678.252 630.482 
678.792 465.492 510.852 658.372 642.792 605.302 631.682 674.432 726.442 
616.252 603.052 471.592 501.152 543.282 513.992 521.192 584.352 575.382 
510.572 546.882 457.792 570.482 620.542 614.142 525.122 530.962 477.592 