# vtk DataFile Version 3.0
vtk output
ASCII
DATASET POLYDATA
POINTS 586 float
0.703343 -1.65356 1.00844 1.8497 0.62483 0.72048 0.305637 0.75347 0.686327 
-0.207736 -0.295865 0.634911 2.33697 -0.314895 0.364616 2.44874 0.533581 0.13162 
2.44107 -0.931193 -0.255964 1.8551 -1.81396 -0.236372 4.23056 -0.671984 -0.468339 
3.4277 0.0209598 -1.06373 4.80167 0.803392 -1.33409 4.52962 0.788877 -1.34148 
2.64841 -0.69386 -1.44323 0.751603 1.58841 -1.2738 5.98376 -0.0111933 -1.60115 
5.74647 -0.723853 -1.92244 2.52836 0.173338 -1.54791 5.81436 0.499064 -1.5867 
-0.0658472 1.01832 -1.71568 0.533383 -1.83037 -1.8051 5.8472 -0.334806 -2.12807 
3.84653 -0.88838 -2.00745 2.30832 0.310238 -1.94882 2.54836 -0.4039 -1.96898 
2.13139 -1.21595 -1.94252 1.07168 -1.8564 -2.05943 5.82331 0.277446 -2.0951 
4.76331 -1.25983 -2.14481 2.25568 -0.302623 -2.17283 5.89824 0.0729982 -2.20081 
5.63977 0.262849 -2.20035 5.19022 -0.938592 -2.25574 3.78626 -0.130171 -2.46163 
3.77662 -0.2079 -2.46472 3.7868 -0.268241 -2.46668 3.80468 -0.321102 -2.46817 
3.81488 -0.376481 -2.46994 3.8111 -0.43767 -2.47228 3.81959 -0.493719 -2.47412 
3.8279 -0.550039 -2.46856 3.82328 -0.612617 -2.43835 3.83078 -0.674872 -2.35443 
3.84223 -0.757695 -2.20444 5.62294 -0.741173 -2.3134 5.5369 -0.725264 -2.58932 
5.47126 -0.70867 -2.72548 5.42045 -0.726941 -2.76121 5.37891 -0.77215 -2.74167 
5.33185 -0.808488 -2.67746 5.28372 -0.846555 -2.56885 5.23985 -0.898352 -2.42355 
5.79575 -0.434678 -2.32005 5.77943 -0.51092 -2.3661 5.76193 -0.600704 -2.21248 
2.3583 -0.334071 -2.17387 2.44921 -0.367385 -2.10607 4.80726 -1.18348 -2.19775 
4.85488 -1.14085 -2.21723 4.89988 -1.10668 -2.19013 4.93816 -1.06029 -2.1405 
4.97875 -1.01854 -2.10088 5.01898 -0.972371 -2.09817 5.07057 -0.949702 -2.13311 
5.13253 -0.949579 -2.19086 5.25344 -0.960091 -2.12148 5.31206 -0.965623 -2.03864 
5.37324 -0.972223 -2.00768 5.42784 -0.960314 -2.00587 5.47466 -0.930098 -1.99204 
5.5196 -0.880649 -1.97262 5.5997 -0.822269 -1.94622 5.83172 -0.218942 -2.1893 
5.8254 -0.138934 -2.23842 5.84259 -0.0684094 -2.256 5.86985 0.00247714 -2.24119 
5.7227 0.253926 -2.15039 5.79475 0.164892 -2.14814 5.8314 0.106477 -2.18272 
5.95024 0.0317185 -1.90442 1.11516 -1.78108 -2.09017 1.16372 -1.74283 -2.08754 
1.21798 -1.73074 -2.06102 1.27855 -1.73532 -2.03495 1.33462 -1.72688 -2.03323 
1.39068 -1.71844 -2.03151 1.4517 -1.72255 -2.0227 1.50646 -1.71313 -1.99874 
1.55753 -1.69423 -1.98193 1.60809 -1.67339 -1.97248 1.65879 -1.65217 -1.97042 
1.70949 -1.63095 -1.96837 1.76033 -1.60935 -1.97371 1.81066 -1.58581 -1.98641 
1.85745 -1.55242 -2.01366 1.89749 -1.50364 -2.03311 1.93934 -1.4599 -2.04529 
1.9784 -1.41238 -2.02773 2.0231 -1.37901 -2.00313 2.06691 -1.34421 -1.9711 
2.10132 -1.28561 -1.95325 2.24918 -0.216656 -2.20443 2.23379 -0.152514 -2.23954 
2.21421 -0.0987241 -2.27267 2.19521 -0.0467927 -2.2836 2.18736 0.00724442 -2.2744 
2.20797 0.0619769 -2.24963 2.24544 0.107445 -2.22724 2.27743 0.167161 -2.18223 
2.29934 0.236517 -2.09016 2.22038 -0.39192 -2.14486 2.19891 -0.466098 -2.12588 
2.19382 -0.528827 -2.11842 2.17531 -0.596288 -2.11889 2.14766 -0.667465 -2.12219 
2.11844 -0.739301 -2.12556 2.09079 -0.810478 -2.12887 2.07245 -0.877758 -2.1318 
2.06977 -0.938487 -2.1341 2.06242 -1.00117 -2.13658 2.06152 -1.06134 -2.13139 
2.0572 -1.12353 -2.10412 2.07848 -1.17597 -2.03879 3.93796 -0.968647 -2.01699 
4.00571 -1.02158 -1.99201 4.05049 -1.06717 -1.93028 4.09853 -1.10876 -1.85199 
4.14166 -1.14946 -1.8005 4.19719 -1.17081 -1.79988 4.25361 -1.16319 -1.85009 
4.3124 -1.15368 -1.92982 4.38013 -1.1659 -2.00271 4.44801 -1.1806 -2.05345 
4.51017 -1.18413 -2.07672 4.57948 -1.20209 -2.09295 4.66157 -1.22967 -2.11413 
4.81735 -1.329 -1.9878 4.88024 -1.37357 -1.85439 4.9436 -1.39558 -1.75473 
4.99774 -1.39012 -1.67656 5.04755 -1.37323 -1.60795 5.09681 -1.35428 -1.54669 
5.14639 -1.33469 -1.50024 5.19634 -1.31456 -1.46859 5.2463 -1.29442 -1.43693 
5.29588 -1.27483 -1.39048 5.34528 -1.25551 -1.33662 5.39486 -1.23592 -1.29017 
5.445 -1.21552 -1.26591 5.49551 -1.19457 -1.25646 5.54621 -1.17335 -1.2544 
5.59669 -1.1523 -1.24494 5.64604 -1.13002 -1.22064 5.69041 -1.09729 -1.18124 
5.72496 -1.03824 -1.17409 5.75452 -0.961755 -1.27271 5.7688 -0.861798 -1.5356 
5.82137 0.372983 -1.88032 5.82528 0.444891 -1.71075 5.87826 0.23455 -1.85431 
5.92918 0.191045 -1.65813 5.95925 0.139463 -1.54804 5.97654 0.0755432 -1.53883 
0.987926 -1.8784 -1.93382 0.919139 -1.88968 -1.83958 0.850432 -1.87674 -1.78645 
0.783013 -1.8614 -1.75546 0.722116 -1.85903 -1.74949 0.65955 -1.85125 -1.7582 
0.599398 -1.8478 -1.78183 1.12465 -1.9273 -1.85803 1.18735 -1.97501 -1.68766 
1.25444 -2.00947 -1.55129 1.31886 -2.03212 -1.43681 1.3766 -2.03911 -1.31699 
1.43539 -2.04934 -1.18983 1.48758 -2.04382 -1.06226 1.53623 -2.02845 -0.949247 
1.58474 -2.01059 -0.858392 1.63357 -1.99209 -0.782341 1.68256 -1.97321 -0.713679 
1.73072 -1.95276 -0.640046 1.77454 -1.92246 -0.543908 1.81206 -1.87079 -0.407606 
2.19472 -1.23411 -1.8452 2.24849 -1.22595 -1.78423 2.29425 -1.19438 -1.76709 
2.33028 -1.13677 -1.7789 2.36605 -1.07923 -1.78331 2.41045 -1.04373 -1.77347 
2.45515 -1.01035 -1.74888 2.49399 -0.963013 -1.72392 2.53392 -0.919039 -1.68917 
2.56762 -0.859047 -1.63175 2.60248 -0.784076 -1.54656 2.57105 -0.321545 -1.93325 
2.57556 -0.255637 -1.90848 2.58283 -0.192704 -1.88868 2.58304 -0.133615 -1.86179 
2.58749 -0.0733064 -1.81498 2.57759 -0.0192509 -1.7564 2.56633 0.0354366 -1.69042 
2.5607 0.100959 -1.62142 2.58762 -0.479516 -1.8101 2.61303 -0.543717 -1.66847 
2.63173 -0.610144 -1.54933 2.25221 0.373701 -1.91578 2.21829 0.428542 -1.89238 
2.19499 0.47961 -1.8812 2.17356 0.530259 -1.87741 2.15229 0.580961 -1.87608 
2.13091 0.631621 -1.87476 2.10786 0.681578 -1.87351 2.07559 0.727677 -1.87263 
2.02936 0.767935 -1.87232 1.9971 0.814038 -1.87144 1.97394 0.863953 -1.87019 
1.95079 0.913867 -1.86894 1.91843 0.959928 -1.86807 1.87022 0.999166 -1.86043 
1.82642 1.03986 -1.83779 1.77718 1.07769 -1.79316 1.74173 1.12111 -1.74055 
1.70647 1.16479 -1.69535 1.65771 1.20341 -1.67292 1.61238 1.24385 -1.66516 
1.5515 1.27798 -1.66544 1.4814 1.30825 -1.6661 1.41112 1.33824 -1.65935 
1.34958 1.37151 -1.63744 1.30145 1.40981 -1.59276 1.23916 1.44199 -1.54123 
1.16766 1.47032 -1.49009 1.09467 1.49822 -1.44642 1.02139 1.5258 -1.39536 
0.948156 1.55328 -1.34428 0.875854 1.57925 -1.30066 0.808682 1.59515 -1.27953 
2.39456 0.269417 -1.85423 2.46675 0.22653 -1.72052 3.74696 -0.90561 -1.88602 
3.67417 -0.914536 -1.78883 3.61476 -0.895224 -1.72732 3.56952 -0.857385 -1.70039 
3.51948 -0.819035 -1.69282 3.47584 -0.777888 -1.68499 3.42549 -0.739937 -1.66263 
3.38111 -0.700065 -1.6178 3.3335 -0.661936 -1.55828 3.31218 -0.613306 -1.48288 
3.32556 -0.552755 -1.39134 3.35639 -0.500485 -1.27743 3.40383 -0.483922 -1.14958 
3.46626 -0.503541 -1.01526 3.53423 -0.535656 -0.888682 3.60356 -0.568838 -0.784341 
3.67367 -0.601035 -0.709614 3.74452 -0.632145 -0.664487 3.81557 -0.662986 -0.626753 
3.88694 -0.693181 -0.603822 3.95775 -0.721326 -0.588237 4.02451 -0.737668 -0.594573 
4.08061 -0.729317 -0.592855 4.13173 -0.710522 -0.576044 4.18135 -0.691032 -0.529596 
5.90623 -0.443162 -1.83562 5.92212 -0.523956 -1.68083 5.8724 -0.609191 -1.72805 
5.93533 -0.269624 -1.81781 5.97248 -0.205273 -1.61432 5.97558 -0.128223 -1.55786 
0.528984 -1.76835 -1.96605 0.536119 -1.70228 -2.09692 0.528255 -1.64345 -2.19135 
0.510623 -1.58929 -2.26396 0.490942 -1.53637 -2.32183 0.470887 -1.484 -2.3649 
0.451951 -1.43174 -2.3857 0.441954 -1.37612 -2.39133 0.447557 -1.31429 -2.38892 
0.450938 -1.25548 -2.38668 0.474636 -1.20098 -2.38408 0.517593 -1.16558 -2.38912 
0.563309 -1.13061 -2.40893 0.603863 -1.08092 -2.45057 0.646604 -1.03572 -2.49974 
0.686497 -0.984023 -2.54874 0.726483 -0.937961 -2.59053 0.750879 -0.879828 -2.63969 
0.757393 -0.818233 -2.68917 0.776992 -0.749384 -2.73064 0.805384 -0.677122 -2.75693 
0.835455 -0.604157 -2.78316 0.865999 -0.530607 -2.82418 0.896628 -0.456828 -2.87261 
0.925292 -0.384065 -2.9137 0.942501 -0.316677 -2.93304 0.936071 -0.259569 -2.93852 
0.927767 -0.203439 -2.93667 0.933337 -0.141503 -2.93426 0.934039 -0.0816029 -2.93205 
0.939508 -0.0197089 -2.92964 0.929324 0.035634 -2.92786 0.909643 0.0868093 -2.91907 
0.88781 0.136697 -2.89554 0.863639 0.185025 -2.84989 0.830073 0.229228 -2.79721 
0.782719 0.267853 -2.7525 0.749898 0.313142 -2.72942 0.726558 0.362785 -2.72077 
0.703116 0.412386 -2.71212 0.668507 0.456927 -2.68912 0.610072 0.490915 -2.64486 
0.549672 0.523886 -2.59326 0.501449 0.561955 -2.54118 0.439388 0.594306 -2.49707 
0.368822 0.621125 -2.45337 0.300671 0.638203 -2.41739 0.239398 0.640036 -2.39661 
0.177023 0.645211 -2.38317 0.120364 0.636046 -2.36269 0.0631848 0.625974 -2.32 
0.000481178 0.62764 -2.2622 -0.0562775 0.615135 -2.20477 -0.108282 0.592016 -2.15503 
-0.155532 0.558281 -2.11297 -0.197062 0.510198 -2.06388 -0.244599 0.475717 -2.00702 
-0.295483 0.448496 -1.94257 -0.343207 0.413744 -1.87831 -0.385109 0.365118 -1.81442 
-0.432876 0.330467 -1.75016 -0.484464 0.304924 -1.68566 -0.536051 0.279381 -1.62117 
-0.583775 0.244628 -1.55691 -0.625079 0.193859 -1.48566 -0.668001 0.145516 -1.39954 
-0.70496 0.0803836 -1.28422 -0.736962 0.0058445 -1.13947 -0.757688 -0.0626575 -0.964545 
-0.751272 -0.0965502 -0.772846 -0.725419 -0.0767567 -0.571272 -0.685327 -0.0544088 -0.376662 
-0.639114 -0.0399494 -0.197012 -0.586783 -0.0369271 -0.0472876 -0.523476 -0.0581973 0.0795705 
-0.456967 -0.0906583 0.191284 -0.400792 -0.12973 0.309892 -0.367741 -0.178598 0.427569 
-0.334318 -0.226923 0.53045 -0.276796 -0.264196 0.597257 0.493769 -1.89018 -1.68223 
0.440045 -1.91564 -1.56589 0.371652 -1.90471 -1.4634 0.298189 -1.88069 -1.36798 
0.226174 -1.85328 -1.29464 0.163697 -1.82137 -1.23572 0.115661 -1.78303 -1.19104 
0.0551595 -1.7501 -1.13945 -0.00543613 -1.71741 -1.08046 -0.0522436 -1.67913 -1.0135 
-0.103817 -1.64285 -0.946731 -0.148845 -1.60383 -0.879707 -0.198723 -1.56704 -0.80546 
-0.233322 -1.52424 -0.715783 -0.259169 -1.47835 -0.60353 -0.283424 -1.43199 -0.483803 
-0.305797 -1.38485 -0.36401 -0.316903 -1.3326 -0.25856 -0.304555 -1.27034 -0.15958 
-0.28987 -1.20652 -0.0827163 -0.286989 -1.14726 -0.0211511 -0.269769 -1.08161 0.0261746 
-0.245205 -1.01307 0.0812081 -0.228358 -0.947967 0.143339 -0.225571 -0.888936 0.212311 
-0.209003 -0.824138 0.281841 -0.186515 -0.756669 0.3442 -0.182072 -0.696365 0.391008 
-0.214388 -0.651058 0.421516 -0.234425 -0.600613 0.452521 -0.23177 -0.541057 0.499257 
-0.232363 -0.483054 0.553281 -0.226132 -0.422002 0.600161 -0.224107 -0.362129 0.62465 
-0.0389439 1.08667 -1.6161 -0.0141923 1.15373 -1.5018 -0.000709004 1.21569 -1.37314 
-0.0107216 1.26731 -1.23062 -0.020419 1.31646 -1.07335 -0.00393184 1.36098 -0.893347 
0.0270743 1.36893 -0.699494 0.0481173 1.33025 -0.500186 0.0544217 1.27039 -0.302025 
0.0459478 1.20232 -0.111954 0.0518635 1.14055 0.0638843 0.0694112 1.08442 0.210564 
0.0985909 1.03393 0.328084 0.142684 0.990456 0.416576 0.17477 0.942345 0.489763 
0.205456 0.893841 0.555492 0.241187 0.847642 0.614016 0.260053 0.794771 0.657035 
2.56121 0.259167 -1.48214 2.57856 0.329287 -1.4124 2.56879 0.383735 -1.34145 
2.54767 0.432738 -1.27097 2.52492 0.481082 -1.20304 2.50383 0.530314 -1.14244 
2.49046 0.58297 -1.08895 2.48204 0.637888 -1.04266 2.44541 0.680616 -0.982697 
2.41456 0.725184 -0.900278 2.39773 0.774648 -0.78025 2.38494 0.825106 -0.637842 
2.33367 0.857097 -0.482245 2.26633 0.871495 -0.335116 2.20283 0.867015 -0.188592 
2.14158 0.855933 -0.0348269 2.09241 0.814606 0.132958 2.04151 0.778112 0.293459 
1.98891 0.748541 0.424522 1.94026 0.712431 0.525775 1.89765 0.662627 0.619271 
4.44068 0.794746 -1.37563 4.3768 0.783926 -1.4073 4.32412 0.767018 -1.44137 
4.26988 0.758581 -1.49001 4.21002 0.764217 -1.54322 4.15563 0.755352 -1.58198 
4.10419 0.735912 -1.58399 4.05251 0.713437 -1.54905 4.00051 0.690317 -1.49929 
3.94873 0.667367 -1.45695 3.89822 0.643555 -1.43686 3.8518 0.610702 -1.42439 
3.8118 0.561834 -1.40495 3.76977 0.514949 -1.35583 3.73308 0.453182 -1.28487 
3.6962 0.391144 -1.20651 3.65402 0.343895 -1.14999 3.61463 0.292865 -1.12319 
3.57357 0.247246 -1.11107 3.53837 0.18765 -1.09931 3.50302 0.127692 -1.08016 
3.46267 0.0803759 -1.06808 4.59613 0.817522 -1.45739 4.6581 0.830344 -1.50479 
4.72653 0.818235 -1.45408 4.88758 0.810966 -1.36379 4.96044 0.805369 -1.3844 
5.02274 0.80271 -1.3854 5.08964 0.783593 -1.36465 5.15946 0.753947 -1.31208 
5.22775 0.721107 -1.23741 5.2864 0.683726 -1.14834 5.32939 0.639984 -1.06729 
5.37385 0.597054 -0.993599 5.39354 0.543947 -0.928316 5.38997 0.481108 -0.863985 
5.39878 0.423445 -0.799143 5.41837 0.3703 -0.733863 5.44904 0.321983 -0.675544 
5.49416 0.2801 -0.631461 5.52597 0.233225 -0.610138 5.55061 0.183741 -0.603915 
5.58298 0.137684 -0.60479 5.6293 0.0974647 -0.605099 5.66364 0.052424 -0.613304 
5.70032 0.00894273 -0.643635 5.76133 -0.0230715 -0.717416 5.83391 -0.0465774 -0.849914 
5.9038 -0.0560244 -1.0487 5.95551 -0.0389921 -1.30629 2.62582 -0.768767 -1.18209 
2.59584 -0.820668 -0.937585 2.57495 -0.866965 -0.709952 2.52393 -0.902318 -0.485149 
4.59474 0.795074 -1.19132 4.66364 0.780659 -1.12833 4.73412 0.774391 -1.18857 
2.40717 -1.01648 -0.358814 2.37714 -1.09173 -0.436474 2.34815 -1.16336 -0.471963 
2.31821 -1.23606 -0.455614 2.28762 -1.30951 -0.414584 2.25633 -1.38128 -0.373521 
2.22174 -1.44303 -0.354415 2.18142 -1.49044 -0.342334 2.14608 -1.55039 -0.323181 
2.11013 -1.61107 -0.281828 2.0681 -1.65796 -0.232695 2.02755 -1.70761 -0.193525 
1.98021 -1.74153 -0.183599 1.9239 -1.77181 -0.200962 1.76274 -1.78259 -0.101602 
1.68269 -1.75648 0.00856002 1.61232 -1.7407 0.0914006 1.54903 -1.73869 0.159079 
1.47999 -1.72264 0.224666 1.40709 -1.69738 0.290493 1.33371 -1.67028 0.348959 
1.26118 -1.64447 0.399981 1.1927 -1.62761 0.443359 1.12989 -1.62499 0.493775 
1.06123 -1.60839 0.544567 0.988881 -1.58232 0.588186 0.916285 -1.55422 0.617049 
0.844962 -1.52986 0.653223 0.781928 -1.52884 0.725817 0.738531 -1.57963 0.848916 
2.39737 -0.864147 -0.160692 2.37881 -0.80462 -0.0699982 2.39053 -0.740504 0.00432971 
2.404 -0.676478 0.0564462 2.39672 -0.620499 0.0805583 2.38814 -0.564678 0.0898073 
2.39167 -0.503776 0.10202 2.3805 -0.448403 0.143309 2.35946 -0.389914 0.233903 
2.42371 0.466019 0.0321162 2.40865 0.401655 -0.0299429 2.41732 0.346068 -0.0465881 
2.43456 0.293292 -0.0332654 2.44456 0.237677 -0.0276365 2.44087 0.176527 -0.0299724 
2.45106 0.121184 -0.0317462 2.46792 0.067865 -0.00361812 2.47511 0.0101061 0.0389381 
2.45714 -0.0584837 0.0903434 2.42705 -0.133032 0.148642 2.38857 -0.216263 0.241006 
2.24698 -0.282958 0.435192 2.17176 -0.2648 0.508118 2.10794 -0.264854 0.593015 
2.04259 -0.261046 0.69284 1.97941 -0.261835 0.787616 1.91033 -0.246114 0.860597 
1.83958 -0.219566 0.91169 1.77734 -0.187483 0.963202 1.72911 -0.149418 1.0153 
1.66879 -0.116217 1.05948 1.60913 -0.082163 1.08147 1.56391 -0.041679 1.08923 
1.5158 -0.00220815 1.08947 1.48343 0.0438527 1.09034 1.46038 0.0938098 1.0916 
1.43901 0.144469 1.09292 1.41773 0.195171 1.09424 1.39636 0.24583 1.09556 
1.37331 0.295787 1.09681 1.34123 0.342162 1.09029 1.29555 0.383231 1.0684 
1.26441 0.430962 1.02489 1.24256 0.482778 0.974325 1.22052 0.534321 0.931177 
1.18881 0.581235 0.909858 1.14249 0.621454 0.910167 1.10778 0.665951 0.933168 
1.07092 0.709162 0.970901 1.01097 0.742906 1.00029 0.940923 0.773074 0.999632 
0.870729 0.802177 0.961856 0.804898 0.822741 0.901635 0.745675 0.82756 0.841002 
0.684646 0.834533 0.802644 0.629293 0.824404 0.800879 0.577244 0.80425 0.821082 
0.525382 0.784369 0.833872 0.470631 0.774952 0.809906 0.410574 0.780325 0.764097 
0.356381 0.771723 0.717933 -0.164862 -0.262432 0.703952 -0.130819 -0.207238 0.766153 
-0.0971064 -0.149824 0.813592 -0.0577256 -0.103773 0.838514 -0.0238747 -0.0431118 0.849009 
0.00629822 0.0270302 0.852341 0.0357673 0.0988502 0.855718 0.065194 0.170771 0.859097 
0.0946205 0.242692 0.862476 0.124047 0.314614 0.865855 0.153474 0.386535 0.869234 
0.1829 0.458456 0.872613 0.212513 0.530649 0.868589 0.242685 0.603656 0.842368 
0.273788 0.67802 0.779153 
LINES 42 679
12 32 33 34 35 36 37 38 39 40 41 42 21 
10 15 43 44 45 46 47 48 49 50 31 
5 20 51 52 53 15 
4 28 54 55 23 
10 27 56 57 58 59 60 61 62 63 31 
9 31 64 65 66 67 68 69 70 15 
6 20 71 72 73 74 29 
3 30 75 26 
4 26 76 77 29 
3 29 78 14 
23 25 79 80 81 82 83 84 85 86 87 88 89 90 91 92 93 94 95 96 97 98 99 24 
11 28 100 101 102 103 104 105 106 107 108 22 
15 28 109 110 111 112 113 114 115 116 117 118 119 120 121 24 
15 21 122 123 124 125 126 127 128 129 130 131 132 133 134 27 
23 27 135 136 137 138 139 140 141 142 143 144 145 146 147 148 149 150 151 152 153 154 155 15 
4 26 156 157 17 
6 26 158 159 160 161 14 
9 25 162 163 164 165 166 167 168 19 
16 25 169 170 171 172 173 174 175 176 177 178 179 180 181 182 7 
13 24 183 184 185 186 187 188 189 190 191 192 193 12 
10 23 194 195 196 197 198 199 200 201 16 
5 23 202 203 204 12 
34 22 205 206 207 208 209 210 211 212 213 214 215 216 217 218 219 220 221 222 223 224 225 226 227 228 229 230 231 232 233 234 235 236 13 
4 22 237 238 16 
27 21 239 240 241 242 243 244 245 246 247 248 249 250 251 252 253 254 255 256 257 258 259 260 261 262 263 8 
5 20 264 265 266 15 
5 20 267 268 269 14 
82 19 270 271 272 273 274 275 276 277 278 279 280 281 282 283 284 285 286 287 288 289 290 291 292 293 294 295 296 297 298 299 300 301 302 303 304 305 306 307 308 309 310 311 312 313 314 315 316 317 318 319 320 321 322 323 324 325 326 327 328 329 330 331 332 333 334 335 336 337 338 339 340 341 342 343 344 345 346 347 348 349 3 
36 19 350 351 352 353 354 355 356 357 358 359 360 361 362 363 364 365 366 367 368 369 370 371 372 373 374 375 376 377 378 379 380 381 382 383 3 
20 18 384 385 386 387 388 389 390 391 392 393 394 395 396 397 398 399 400 401 2 
23 16 402 403 404 405 406 407 408 409 410 411 412 413 414 415 416 417 418 419 420 421 422 1 
24 11 423 424 425 426 427 428 429 430 431 432 433 434 435 436 437 438 439 440 441 442 443 444 9 
5 11 445 446 447 10 
27 10 448 449 450 451 452 453 454 455 456 457 458 459 460 461 462 463 464 465 466 467 468 469 470 471 472 14 
6 12 473 474 475 476 6 
5 11 477 478 479 10 
16 6 480 481 482 483 484 485 486 487 488 489 490 491 492 493 7 
18 7 494 495 496 497 498 499 500 501 502 503 504 505 506 507 508 509 0 
11 6 510 511 512 513 514 515 516 517 518 4 
14 5 519 520 521 522 523 524 525 526 527 528 529 530 4 
42 4 531 532 533 534 535 536 537 538 539 540 541 542 543 544 545 546 547 548 549 550 551 552 553 554 555 556 557 558 559 560 561 562 563 564 565 566 567 568 569 570 2 
17 3 571 572 573 574 575 576 577 578 579 580 581 582 583 584 585 2 

POINT_DATA 586
SCALARS DY_raw double
LOOKUP_TABLE default
435.86 416.743 297.797 393.928 385.547 519.145 423.963 368.122 1149.89 
696.466 524.104 685.937 342.862 206.723 885.791 792.508 414.063 577.919 
324.592 253.424 645.365 563.66 349.213 345.799 378.065 252.993 669.588 
534.643 330.04 684.547 525.453 570.247 554.342 532.168 584.51 568.971 
603.561 599.404 508.166 495.741 518.171 552.136 604.677 507.295 482.881 
464.764 440.513 440.513 453.78 499.048 558.702 621.363 612.283 597.032 
341.869 374.266 550.313 588.621 581.297 630.432 578.349 578.349 570.65 
580.629 645.459 667.323 667.323 638.937 647.243 657.958 598.496 583.766 
601.518 647.985 665.407 611.876 622.25 657.632 769.831 235.275 238.432 
256.595 250.263 250.062 272.375 276.737 295.11 343.172 376.668 376.668 
407.84 471.38 471.38 463.617 463.617 402.225 398.181 354.115 376.695 
376.726 332.225 314.667 327.886 328.894 324.168 346.982 326.284 322.383 
332.698 346.481 330.187 358.47 376.426 427.269 427.269 452.309 438.664 
407.544 410.223 367.292 367.292 348.595 590.608 587.663 591.203 569.996 
569.102 579.771 588.251 526.144 559.688 534.393 577.976 551.63 549.101 
601.966 614.733 644.597 707.807 728.972 722.744 756.083 725.777 696.464 
732.041 706.733 740.393 740.393 684.361 684.361 668.715 746.677 746.677 
771.054 787.542 818.606 581.131 555.924 807.159 815.891 873.871 894.41 
281.111 324.951 343.026 358.747 317.712 300.987 282.617 320.248 346.558 
318.247 284.901 288.613 319.08 331.155 334.776 360.628 331.561 335.972 
359.806 359.834 394.768 400.531 405.17 405.17 389.451 395.782 395.782 
391.518 411.451 386.934 375.955 362.654 386.515 440.934 461.58 519.478 
480.113 461.183 449.2 427.028 317.915 319.482 326.843 354.058 332.143 
320.456 310.563 305.321 269.987 281.26 304.134 304.134 299.008 276.742 
276.742 277.985 276.11 295.825 310.881 341.272 309.011 344.442 332.117 
303.169 286.442 273.385 255.009 270.372 275.103 282.164 302.737 272.876 
251.281 255.712 222.218 410.153 378.556 584.059 618.406 598.37 603.152 
606.885 542.345 536.763 512.811 550.544 592.698 657.956 714.164 731.309 
768.627 631.378 567.572 615.332 519.979 522.303 490.061 529.012 536.028 
594.864 727.914 905.941 625.47 638.36 743.625 724.556 832.351 901.082 
254.537 237.808 250.759 252.195 273.177 259.712 262.595 262.595 262.071 
279.898 305.886 359.385 332.208 332.208 312.79 321.384 290.457 289.212 
288.318 318.263 344.263 280.009 276.344 228.417 242.704 248.229 243.754 
267.357 267.357 268.368 268.368 261.367 242.701 266.369 253.923 252.823 
284.326 330.119 329.03 297.128 282.058 286.335 318.727 335.237 353.269 
370.984 336.523 353.556 326.55 287.611 274.411 302.5 266.612 275.252 
297.664 308.065 285.773 312.901 350.356 358.544 339.176 360.904 364.95 
307.115 292.2 351.239 399.751 368.846 318.888 326.702 385.898 368.297 
343.323 344.764 373.347 398.658 395.058 410.82 389.23 377.907 259.525 
302.715 328.146 336.249 324.918 327.047 365.436 390.867 376.581 347.364 
416.07 374.754 363.088 386.449 318.083 306.394 338.856 284.9 355.678 
331.266 279.807 320.04 260.124 267.951 304.597 296.153 317.547 327.187 
280.485 280.485 294.647 354.604 388.733 399.021 284.608 289.031 338.066 
312.526 286.285 293.603 339.903 417.071 426.49 409.785 394.741 377.686 
345.244 349.862 364.099 332.326 268.603 266.761 411.634 436.126 401.88 
336.61 384.345 343.352 374.645 349.997 281.337 313.815 313.744 321.53 
338.143 289.789 262.65 294.79 328.492 292.168 360.862 316.501 327.924 
635.306 610.548 539.416 525.644 526.242 581.604 602.64 525.341 513.833 
556.332 556.332 510.649 510.649 575.437 625.494 703.958 714.048 647.349 
727.533 607.824 607.075 719.1 676.305 555.758 520.91 514.112 516.88 
505.494 490.481 478.33 489.202 468.541 471.636 511.073 539.093 592.104 
633.934 751.915 792.166 838.745 810.644 895.517 880.611 823.077 907.619 
815.539 858.371 934.794 845.584 857.615 352.217 401.967 374.827 388.302 
662.607 609.846 580.956 414.06 356.744 346.566 348.291 332.933 423.067 
426.104 351.19 423.655 334.885 367.739 340.514 343.748 371.179 343.356 
341.725 365.901 359.743 334.432 293.927 353.777 311.021 306.199 298.992 
310.881 309.458 324.66 329.735 387.586 431.175 372.727 358.137 383.776 
343.05 343.05 356.733 322.109 292.167 368.709 467.844 397.411 376.116 
380.136 427.378 427.378 458.059 429.509 445.203 383.365 330.738 345.894 
348.874 304.183 291.816 313.442 262.612 277.113 295.115 305.406 351.71 
383.349 452.337 429.335 429.335 441.346 441.346 390.544 375.996 375.996 
367.879 351.01 334.333 349.475 341.605 317.5 329.543 344.975 361.76 
377.745 406.385 454.878 446.402 392.093 341.368 339.62 339.62 375.162 
360.301 360.301 323.941 288.364 406.357 410.386 429.529 380.037 344.852 
301.97 288.339 337.418 337.418 353.867 449.08 400.63 375.75 346.039 
309.941 
FIELD FieldData 7
DY_minmax 1 586 double
0.242943 0.222675 0.0965618 0.198485 0.189599 0.331247 0.23033 0.171124 1 
0.519252 0.336505 0.508088 0.144343 0 0.719985 0.62108 0.219834 0.393562 
0.124971 0.0495151 0.465072 0.378444 0.151076 0.147456 0.181666 0.0490582 0.490754 
0.347679 0.130747 0.506614 0.337935 0.385427 0.368564 0.345054 0.400551 0.384075 
0.420749 0.416341 0.319606 0.306433 0.330214 0.366226 0.421932 0.318683 0.292798 
0.273589 0.247876 0.247876 0.261944 0.309939 0.373187 0.439624 0.429996 0.413826 
0.143289 0.177638 0.364292 0.404908 0.397143 0.449239 0.394018 0.394018 0.385855 
0.396435 0.465172 0.488352 0.488352 0.458256 0.467063 0.478423 0.415379 0.399761 
0.418583 0.46785 0.486321 0.429565 0.440564 0.478078 0.597038 0.0302729 0.0336202 
0.0528773 0.0461641 0.0459507 0.0696079 0.0742334 0.0937129 0.144671 0.180185 0.180185 
0.213235 0.280604 0.280604 0.272373 0.272373 0.207282 0.202995 0.156273 0.180214 
0.180246 0.133064 0.114448 0.128463 0.129533 0.124522 0.14871 0.126765 0.12263 
0.133566 0.148179 0.130903 0.16089 0.179929 0.233835 0.233835 0.260384 0.245916 
0.212922 0.215762 0.170244 0.170244 0.150421 0.407016 0.403893 0.407647 0.385162 
0.384214 0.395525 0.404517 0.338668 0.374233 0.347413 0.393622 0.365689 0.363008 
0.419058 0.432595 0.464258 0.531276 0.553716 0.547114 0.582461 0.550329 0.51925 
0.556971 0.530137 0.565826 0.565826 0.506417 0.506417 0.489829 0.572488 0.572488 
0.598334 0.615815 0.648751 0.396967 0.370241 0.636614 0.645872 0.707346 0.729122 
0.0788704 0.125352 0.144517 0.161184 0.117677 0.0999436 0.0804677 0.120366 0.148261 
0.118244 0.0828884 0.0868249 0.119127 0.13193 0.135769 0.163179 0.13236 0.137037 
0.162307 0.162337 0.199375 0.205486 0.210404 0.210404 0.193738 0.200451 0.200451 
0.195929 0.217064 0.19107 0.179429 0.165326 0.190625 0.248323 0.270213 0.3316 
0.289863 0.269792 0.257087 0.233579 0.117892 0.119553 0.127358 0.156213 0.132978 
0.120586 0.110097 0.104539 0.0670763 0.0790283 0.10328 0.10328 0.0978458 0.0742383 
0.0742383 0.0755567 0.0735686 0.0944714 0.110435 0.142656 0.108452 0.146017 0.13295 
0.102258 0.0845227 0.0706786 0.0511959 0.0674846 0.072501 0.079987 0.1018 0.0701392 
0.0472429 0.0519412 0.0164286 0.215687 0.182187 0.400071 0.436489 0.415245 0.420315 
0.424273 0.355845 0.349926 0.324531 0.364538 0.409231 0.478422 0.538016 0.556194 
0.595761 0.450242 0.382591 0.433229 0.332131 0.334595 0.300411 0.341708 0.349147 
0.411528 0.552594 0.741349 0.443978 0.457645 0.569252 0.549035 0.663325 0.736196 
0.0506959 0.0329586 0.0466899 0.0482121 0.0704582 0.0561826 0.0592387 0.0592387 0.0586831 
0.0775842 0.105138 0.161861 0.133046 0.133046 0.112458 0.12157 0.08878 0.0874599 
0.0865114 0.118261 0.145827 0.0777023 0.073816 0.0230014 0.0381495 0.0440075 0.0392625 
0.0642883 0.0642883 0.0653601 0.0653601 0.0579366 0.0381462 0.0632398 0.0500448 0.0488777 
0.0822789 0.130832 0.129677 0.0958531 0.0798749 0.0844097 0.118753 0.136258 0.155376 
0.174159 0.137622 0.155681 0.127048 0.0857621 0.0717667 0.101548 0.0634975 0.072658 
0.0964214 0.107448 0.0838131 0.112576 0.152287 0.160969 0.140435 0.163472 0.167761 
0.106441 0.0906278 0.153223 0.204659 0.171892 0.118924 0.127208 0.189972 0.17131 
0.144831 0.146359 0.176664 0.2035 0.199683 0.216395 0.193504 0.181499 0.0559842 
0.101776 0.12874 0.137331 0.125317 0.127574 0.168276 0.195239 0.180093 0.149116 
0.221961 0.178156 0.165787 0.190556 0.11807 0.105677 0.140094 0.0828873 0.157931 
0.132047 0.0774884 0.120145 0.0566194 0.0649177 0.103772 0.0948184 0.117502 0.127722 
0.0782063 0.0782063 0.093222 0.156791 0.192977 0.203885 0.0825785 0.0872679 0.139257 
0.112178 0.0843567 0.0921148 0.141205 0.223022 0.233009 0.215298 0.199347 0.181264 
0.146867 0.151764 0.166858 0.133171 0.0656088 0.0636556 0.217258 0.243225 0.206916 
0.137714 0.188324 0.144862 0.17804 0.151907 0.0791103 0.113545 0.113469 0.121725 
0.139339 0.088071 0.0592975 0.0933736 0.129106 0.090594 0.163427 0.116393 0.128504 
0.454407 0.428157 0.352739 0.338137 0.338772 0.397469 0.419773 0.337816 0.325615 
0.370674 0.370674 0.322238 0.322238 0.39093 0.444004 0.527195 0.537893 0.467176 
0.552191 0.425268 0.424475 0.54325 0.497876 0.370066 0.333118 0.325911 0.328845 
0.316773 0.300855 0.287973 0.2995 0.277594 0.280875 0.322688 0.352396 0.408601 
0.452952 0.578042 0.620718 0.670103 0.64031 0.730297 0.714492 0.653492 0.743128 
0.645499 0.690912 0.771939 0.677355 0.69011 0.154261 0.207008 0.178233 0.19252 
0.483353 0.427413 0.396782 0.21983 0.159061 0.148269 0.150098 0.133815 0.22938 
0.2326 0.153172 0.230003 0.135884 0.170718 0.141853 0.145282 0.174365 0.144866 
0.143137 0.168769 0.16224 0.135404 0.0924591 0.155915 0.110582 0.10547 0.0978286 
0.110434 0.108925 0.125043 0.130424 0.19176 0.237976 0.176006 0.160537 0.187721 
0.144541 0.144541 0.159049 0.122339 0.0905926 0.171746 0.276855 0.202178 0.179599 
0.183862 0.23395 0.23395 0.26648 0.23621 0.25285 0.187285 0.131488 0.147557 
0.150716 0.103332 0.0902209 0.11315 0.0592572 0.0746315 0.0937185 0.10463 0.153723 
0.187268 0.260413 0.236026 0.236026 0.24876 0.24876 0.194898 0.179472 0.179472 
0.170867 0.152981 0.135299 0.151354 0.14301 0.117452 0.130221 0.146583 0.164379 
0.181327 0.211692 0.263107 0.254121 0.196539 0.142758 0.140905 0.140905 0.178588 
0.162832 0.162832 0.124281 0.0865609 0.211663 0.215935 0.236231 0.183757 0.146452 
0.100986 0.0865335 0.13857 0.13857 0.15601 0.25696 0.205591 0.179211 0.147711 
0.109438 
WidthEq 1 586 double
2.04085 4.55845 4.30771 3.71074 4.91272 3.52727 6.02006 5.41664 1 
2.99312 5.62539 4.30641 8.53793 6.0682 5.81066 5.73736 7.01519 6.93019 
5.50378 6.94988 6.75459 4.87381 6.6546 5.99306 6.78345 8.02858 6.169 
5.8942 5.82258 5.81908 4.29666 7.76161 5.22713 5.70263 5.37238 5.18338 
4.86818 4.53451 4.83032 4.77758 4.86276 4.8817 4.84074 7.98817 7.06346 
6.20073 6.4329 6.4329 6.48533 6.9669 7.33628 5.82195 5.89869 6.83666 
5.74213 5.45464 6.35836 6.08652 6.23696 6.18892 7.46859 7.46859 8.04542 
7.91476 7.52521 7.07532 7.07532 7.24207 7.14688 6.96735 7.84788 7.57162 
7.13477 6.33707 5.57975 6.46609 6.90866 6.44794 6.17955 8.64283 8.78151 
8.75927 8.59393 8.26681 7.227 6.73893 6.60423 5.50594 5.02486 5.02486 
4.65124 3.97818 3.97818 3.79256 3.79256 4.30506 4.98801 5.58151 5.92751 
6.72968 5.59754 5.50625 5.43145 5.54943 5.59303 5.8566 5.97092 6.00646 
6.20383 5.90715 6.08651 5.74303 5.52412 5.63587 5.63587 5.78961 5.81829 
5.70935 6.09647 6.46686 6.46686 7.00894 4.97186 5.16071 5.3757 5.82825 
6.17886 5.83871 5.25348 5.16302 4.7586 4.81435 5.30325 6.10167 6.30824 
5.47332 5.24535 4.47634 4.45932 4.4079 4.24301 4.13281 4.02657 4.07374 
3.92655 4.23902 4.24461 4.24461 4.69537 4.69537 4.76888 4.2562 4.2562 
4.53439 4.75819 4.97079 6.73365 7.33729 5.92984 6.12634 6.00986 5.95188 