# vtk DataFile Version 3.0
vtk output
ASCII
DATASET POLYDATA
POINTS 615 float
4.73093 0.391385 1.39178 5.5125 0.788267 1.38358 5.8818 0.294183 1.30677 
6.07291 -0.227346 1.47153 0.376906 -0.159951 0.891363 1.21211 0.849243 0.963433 
6.03423 0.681387 1.2831 0.171404 1.10005 0.697425 4.52837 0.211149 0.97439 
4.5841 0.401342 0.981176 5.70291 1.11486 1.06745 -0.0805304 0.847766 0.476051 
5.12599 1.18345 0.762684 -0.47996 0.146255 0.23759 2.58146 1.38837 0.462233 
4.5257 0.496464 0.577857 -0.433561 0.966286 0.0534134 3.07891 0.390286 0.278958 
4.30892 0.638879 0.298357 2.98785 1.28269 0.0867555 4.40216 0.846862 -0.0261804 
4.70866 0.877723 0.12845 0.385926 1.79492 -0.479888 0.59547 1.86022 -0.464829 
2.21275 2.01859 -0.354165 3.21493 1.09138 -0.502558 3.34773 0.637808 -0.621011 
3.80329 0.786018 -0.267667 3.9933 0.671699 -0.407158 5.9311 -0.234164 -0.382402 
3.26342 0.904865 -0.502318 5.88533 0.0513252 -0.340774 5.91802 -0.0537021 -0.340278 
6.25203 0.165606 -0.314421 6.36683 0.719859 -0.297829 -0.0425229 1.60189 -0.91258 
5.44986 -0.719025 -0.582751 5.45023 0.202823 -0.567895 5.59537 0.228858 -0.557773 
6.07552 0.224866 -0.52574 1.32173 -1.25757 -1.06786 1.09061 2.0693 -1.02978 
5.6928 0.39269 -0.749097 5.91869 0.405479 -0.73379 5.92859 0.6198 -0.72968 
-0.40859 1.25454 -1.54406 4.96006 0.623311 -1.19531 2.23382 1.75032 -1.62673 
1.48654 -0.864345 -1.8524 2.05978 -0.629037 -2.01077 2.15562 1.64756 -1.96773 
2.90166 0.72789 -1.93265 2.84867 0.713513 -1.93643 2.79271 0.708673 -1.94025 
2.73216 0.72026 -1.95154 2.67356 0.729011 -1.97758 2.61137 0.754425 -2.02588 
2.54667 0.789603 -2.08162 2.48096 0.826294 -2.12997 2.41428 0.860996 -2.15614 
2.34962 0.885817 -2.16749 2.28954 0.89421 -2.17137 2.22847 0.905774 -2.17527 
2.17246 0.902801 -2.18649 2.11804 0.898117 -2.21247 2.06466 0.895223 -2.26063 
2.02381 0.853778 -2.31601 1.98598 0.800938 -2.36394 1.94271 0.76045 -2.38975 
1.89996 0.716568 -2.40817 1.85263 0.689112 -2.43405 1.80379 0.671657 -2.48214 
1.75486 0.656164 -2.53764 1.70486 0.642394 -2.58575 1.65091 0.637934 -2.61913 
1.59245 0.64793 -2.65258 1.53949 0.643699 -2.70074 1.49001 0.629953 -2.75624 
1.44114 0.612593 -2.80434 1.39381 0.585138 -2.83022 1.35054 0.541233 -2.84124 
1.30524 0.502144 -2.8449 1.26151 0.458015 -2.84853 1.21327 0.42836 -2.85223 
1.16504 0.398696 -2.85593 1.1213 0.354576 -2.85957 1.07604 0.315383 -2.86322 
1.03288 0.269411 -2.86685 0.987693 0.228256 -2.86311 0.94599 0.172494 -2.84452 
0.902262 0.118122 -2.80377 0.850537 0.0877306 -2.75574 0.795793 0.0687437 -2.71515 
0.741991 0.0518513 -2.69675 0.689652 0.0336689 -2.69311 0.640235 0.00780438 -2.69683 
0.592352 -0.0229866 -2.70053 0.535463 -0.0248471 -2.70436 0.480078 -0.0315388 -2.70817 
0.426542 -0.0441695 -2.71196 0.369509 -0.0472758 -2.70839 0.304019 -0.0266262 -2.69017 
0.236474 -0.00448975 -2.64978 0.172361 0.00491427 -2.60193 0.103816 0.0289216 -2.55416 
0.0346356 0.0631587 -2.51368 -0.0243229 0.102523 -2.46502 -0.0598714 0.149334 -2.40724 
-0.095915 0.196025 -2.34207 -0.156354 0.235034 -2.27124 -0.227974 0.268571 -2.19381 
-0.298905 0.290013 -2.10169 -0.362934 0.287203 -2.00206 -0.427376 0.282313 -1.88765 
-0.496239 0.289918 -1.76591 -0.561061 0.282833 -1.63671 -0.623208 0.266153 -1.50006 
-0.682243 0.248722 -1.34836 -0.722262 0.238998 -1.17299 -0.723625 0.249844 -0.979866 
-0.718142 0.266221 -0.778763 -0.682005 0.247939 -0.576169 -0.629661 0.211863 -0.372778 
-0.575041 0.17459 -0.169255 -0.523767 0.148426 0.0342245 2.19555 1.683 -1.7962 
2.11576 -0.625959 -1.99955 2.17413 -0.633994 -1.9735 2.22298 -0.616529 -1.92541 
2.26089 -0.565651 -1.87007 2.29826 -0.513035 -1.81476 2.34353 -0.484084 -1.76672 
2.39177 -0.464681 -1.71863 2.43808 -0.437358 -1.67798 2.48036 -0.393691 -1.65216 
2.52467 -0.35484 -1.63373 2.56695 -0.311172 -1.60793 2.6128 -0.284074 -1.55987 
2.66013 -0.26687 -1.48962 2.70648 -0.249905 -1.40456 2.74936 -0.223519 -1.31218 
2.78818 -0.180684 -1.23464 2.83006 -0.142524 -1.17926 2.87288 -0.100613 -1.15345 
2.92364 -0.082472 -1.13491 2.9779 -0.077273 -1.10892 3.01921 -0.0356042 -1.06095 
3.05602 0.017103 -0.998237 3.09575 0.0587203 -0.928084 3.13147 0.113256 -0.857992 
3.16718 0.167793 -0.78791 3.20685 0.209611 -0.717758 3.24198 0.265999 -0.647674 
3.27471 0.332257 -0.586263 3.30832 0.404314 -0.555633 3.33908 0.498706 -0.570622 
1.43387 -0.86442 -1.92275 1.37382 -0.842462 -1.98581 1.31277 -0.820742 -2.03409 
1.25718 -0.821635 -2.06009 1.2016 -0.824289 -2.07871 1.14204 -0.812454 -2.10477 
1.0855 -0.8052 -2.15298 1.02734 -0.791046 -2.20862 0.970226 -0.781949 -2.25684 
0.907123 -0.758733 -2.28295 0.843003 -0.73566 -2.2943 0.782872 -0.7254 -2.30558 
0.719246 -0.702208 -2.3243 0.656143 -0.678992 -2.35042 0.596559 -0.670489 -2.3617 
0.53445 -0.657287 -2.35821 0.473463 -0.651103 -2.33991 0.411466 -0.639967 -2.32903 
0.354484 -0.64494 -2.31807 0.298974 -0.658056 -2.29229 0.238534 -0.66386 -2.22961 
0.171103 -0.654033 -2.13743 0.104744 -0.649357 -2.03784 0.0384163 -0.641368 -1.95305 
-0.0187251 -0.660812 -1.87551 -0.0634721 -0.715301 -1.79028 -0.0946524 -0.779813 -1.6746 
-0.0990771 -0.83802 -1.53476 -0.0812565 -0.889373 -1.3859 -0.0338288 -0.931639 -1.26461 
0.027918 -0.969654 -1.18684 0.0926276 -1.00696 -1.15342 0.147171 -1.0475 -1.13557 
0.177287 -1.09561 -1.11206 0.20592 -1.14409 -1.06638 0.257993 -1.18522 -1.01158 
0.321821 -1.22273 -0.963369 0.38844 -1.25932 -0.929804 0.455086 -1.29392 -0.903633 
0.518711 -1.31711 -0.884898 0.576318 -1.31585 -0.888454 0.634833 -1.31238 -0.914186 
0.697273 -1.32153 -0.939859 0.753696 -1.31647 -0.943433 0.806195 -1.30221 -0.932267 
0.859681 -1.28771 -0.935885 0.91808 -1.28218 -0.96901 0.981974 -1.29087 -1.01686 
1.0409 -1.28532 -1.05738 1.09591 -1.27232 -1.07576 1.15237 -1.26736 -1.07934 
1.21281 -1.27689 -1.07545 1.26873 -1.27195 -1.07163 2.3043 1.75941 -1.46347 
2.35799 1.77183 -1.32604 2.40636 1.78459 -1.23102 2.45878 1.78855 -1.17301 
2.51833 1.77673 -1.14694 2.57792 1.76822 -1.13567 2.64308 1.74351 -1.13171 
2.71124 1.70917 -1.12771 2.77994 1.67309 -1.1237 2.84807 1.63675 -1.1123 
2.91349 1.59963 -1.08625 2.9678 1.55916 -1.03873 3.00535 1.5135 -0.984967 
3.04656 1.46894 -0.938384 3.07423 1.4201 -0.90762 3.1019 1.37125 -0.876856 
3.14249 1.32637 -0.822893 3.1754 1.2762 -0.739827 3.20725 1.20727 -0.627435 
2.18482 1.82052 -1.47048 2.1397 1.87235 -1.33901 2.08018 1.90081 -1.24353 
2.0163 1.91049 -1.17093 1.94734 1.9324 -1.10836 1.87881 1.95431 -1.05319 
1.81629 1.96201 -1.02012 1.75472 1.97346 -1.01663 1.69914 1.97081 -1.03523 
1.64305 1.96979 -1.05385 1.57951 1.99102 -1.06519 1.51495 2.01378 -1.06913 
1.45441 2.02195 -1.06562 1.39235 2.03328 -1.05473 1.33433 2.02993 -1.03639 
1.27681 2.0267 -1.02545 1.21525 2.03815 -1.02195 1.1552 2.04644 -1.02583 
5.00033 0.67685 -1.18433 5.04651 0.708 -1.15847 5.09121 0.738794 -1.11044 
5.12851 0.79162 -1.05512 5.16638 0.844364 -1.00719 5.21324 0.871596 -0.973922 
5.26662 0.877907 -0.940552 5.32417 0.865712 -0.884929 5.37931 0.856129 -0.807142 
5.43903 0.83012 -0.721896 5.50374 0.794942 -0.666164 5.57191 0.758845 -0.65476 
5.64205 0.724976 -0.680316 5.70975 0.700747 -0.713307 5.77277 0.690314 -0.731534 
5.84423 0.662587 -0.734631 -0.344645 1.23373 -1.54012 -0.288748 1.23878 -1.5363 
-0.240367 1.26626 -1.5252 -0.201055 1.31947 -1.49944 -0.164322 1.37414 -1.44413 
-0.125639 1.41572 -1.3592 -0.0939626 1.47127 -1.23739 -0.0672311 1.53589 -1.08607 
5.99549 0.654605 -0.62812 6.05143 0.675162 -0.557232 6.10645 0.680789 -0.523764 
6.1659 0.672946 -0.512488 6.21837 0.687301 -0.501322 6.26485 0.715774 -0.468057 
6.31735 0.716364 -0.39772 5.9271 0.534492 -0.731152 5.9158 0.463684 -0.733047 
5.64637 0.315553 -0.649496 6.0253 0.194736 -0.499881 5.97864 0.149798 -0.459179 
5.92996 0.107906 -0.403707 5.90761 -0.134667 -0.369009 5.84108 -0.268929 -0.4662 
5.7837 -0.312737 -0.524197 5.73505 -0.342132 -0.559106 5.68853 -0.371259 -0.590901 
5.64719 -0.412823 -0.638878 5.60184 -0.439803 -0.694326 5.5537 -0.459173 -0.742401 
5.50843 -0.488089 -0.760748 5.48045 -0.539724 -0.748593 5.47798 -0.595755 -0.705115 
5.4752 -0.653835 -0.646836 5.67779 0.170156 -0.456681 5.74922 0.125447 -0.385807 
5.81703 0.087687 -0.352182 5.51428 0.217235 -0.563381 5.39303 -0.736421 -0.520003 
5.33669 -0.753698 -0.464647 5.28085 -0.770856 -0.416684 5.22546 -0.78779 -0.376114 
5.16905 -0.803105 -0.32816 5.10963 -0.808777 -0.280241 5.04513 -0.798141 -0.232409 
4.98212 -0.790566 -0.191954 4.91411 -0.768644 -0.144176 4.84661 -0.748365 -0.0963793 
4.78653 -0.750222 -0.0558806 4.7279 -0.751619 -0.0375497 4.6629 -0.728751 -0.0340998 
4.59661 -0.693937 -0.0379712 4.53926 -0.654316 -0.0411674 4.49632 -0.61009 -0.0433265 
4.43905 -0.570332 -0.0465158 4.37399 -0.532998 -0.0502642 4.31682 -0.493206 -0.0534459 
4.27532 -0.448497 -0.0480737 4.23015 -0.404894 -0.0355466 4.19892 -0.356913 -0.0145901 
4.16704 -0.309206 -0.00852625 4.11394 -0.268179 -0.0188432 4.06244 -0.226763 -0.0513201 
4.03536 -0.17777 -0.0894596 4.02052 -0.125029 -0.141575 4.00742 -0.0717482 -0.193576 
3.9927 -0.0189749 -0.245684 3.96796 0.0307137 -0.291083 3.92988 0.0761728 -0.352297 
3.90895 0.12691 -0.427135 3.90805 0.183816 -0.51537 3.92233 0.245524 -0.587677 
3.9209 0.302441 -0.638829 3.90981 0.35649 -0.660973 3.90677 0.413273 -0.658409 
3.92739 0.479622 -0.618835 3.95841 0.561809 -0.531912 5.51165 -0.756772 -0.475283 
5.57388 -0.792544 -0.382599 5.6341 -0.818435 -0.304735 5.69022 -0.82778 -0.241733 
5.74876 -0.839737 -0.200895 5.80412 -0.83295 -0.197085 5.85543 -0.804649 -0.230317 
5.89968 -0.750253 -0.278466 5.94284 -0.694039 -0.319221 5.98794 -0.650913 -0.330367 
6.02643 -0.593725 -0.312019 6.05824 -0.528015 -0.26429 6.07929 -0.463716 -0.209866 
6.08317 -0.404634 -0.173022 6.08011 -0.346337 -0.185651 6.02712 -0.29397 -0.261112 
4.05777 0.635372 -0.628032 4.12724 0.613221 -0.79638 4.19018 0.617804 -0.903472 
4.24709 0.635215 -0.968069 4.29786 0.665263 -1.00131 4.33816 0.718697 -0.990337 
4.37437 0.771253 -0.920243 4.41124 0.79989 -0.783674 4.43296 0.821809 -0.581397 
4.42168 0.845194 -0.321902 3.31784 0.770296 -0.649344 3.28882 0.849825 -0.609169 
3.2209 0.974169 -0.511473 -0.030976 1.5656 -0.71192 -0.0118367 1.55784 -0.517721 
0.00264008 1.559 -0.345962 0.0382211 1.55823 -0.209941 0.0903101 1.54856 -0.117514 
0.139103 1.56412 -0.06203 0.18295 1.60617 -0.0510047 0.230716 1.64586 -0.0842903 
0.280296 1.69338 -0.176739 0.334376 1.73667 -0.313499 0.0156792 1.62171 -1.0049 
0.0689683 1.65049 -1.06769 0.115252 1.69324 -1.09361 0.163518 1.7228 -1.08991 
0.209808 1.75188 -1.05664 0.249208 1.79287 -0.979105 0.290259 1.81661 -0.849752 
0.334825 1.81882 -0.675964 6.30305 0.179508 -0.281086 6.35555 0.183516 -0.22554 
6.41109 0.17094 -0.140356 6.46195 0.164507 -0.0182601 6.50698 0.163499 0.133234 
6.52549 0.200484 0.313266 6.50936 0.249668 0.498596 6.47044 0.293736 0.674903 
6.4088 0.320237 0.819708 6.3423 0.32711 0.941591 6.27453 0.334985 1.04857 
6.21418 0.316957 1.16303 6.16097 0.276734 1.2717 6.09924 0.260338 1.34749 
6.01149 0.275464 1.35523 5.97595 -0.154316 -0.358813 5.96845 -0.0960796 -0.345016 
5.90168 -0.00118831 -0.340526 3.29889 1.00107 -0.468698 3.30231 0.937268 -0.469497 
4.01406 0.621823 -0.16341 4.03645 0.574383 0.0359418 4.07874 0.547264 0.179405 
4.12428 0.559689 0.267419 4.16782 0.598961 0.31303 4.22687 0.624894 0.317395 
3.92737 0.7477 -0.337952 3.86191 0.785143 -0.291608 4.03623 0.767224 -0.33036 
4.08307 0.813104 -0.276373 4.12973 0.844438 -0.24305 4.17292 0.884455 -0.211673 
4.22501 0.898334 -0.163423 4.29909 0.877836 -0.0994 3.11853 1.18144 -0.247681 
3.05407 1.24168 -0.0505498 2.27734 1.99573 -0.350215 2.33738 1.98744 -0.346334 
2.39846 1.97587 -0.342438 2.4545 1.97874 -0.331217 2.50955 1.98138 -0.305222 
2.56755 1.96907 -0.256998 2.62234 1.95927 -0.201511 2.67307 1.93028 -0.154041 
2.71212 1.88697 -0.129855 2.75702 1.84354 -0.112697 2.7948 1.79781 -0.0886341 
2.83755 1.75373 -0.0419405 2.87152 1.70696 0.01156 2.90301 1.65937 0.0574445 
2.91502 1.60561 0.079655 2.94887 1.55859 0.088589 2.98436 1.51204 0.0902121 
3.01677 1.46453 0.0916148 3.01685 1.40695 0.0906937 3.01048 1.34736 0.0893091 
0.531525 1.88103 -0.468769 0.475629 1.87598 -0.472587 0.426753 1.84838 -0.476299 
4.62023 0.904298 0.0586251 4.5547 0.902591 0.00966144 4.48916 0.882019 -0.0148478 
4.68415 0.785854 0.254037 4.64686 0.707543 0.376502 4.6048 0.635902 0.478968 
4.56421 0.565898 0.544421 4.75579 0.947135 0.164893 4.8045 0.983939 0.198442 
4.85043 1.01589 0.234203 4.88752 1.07069 0.284584 4.92082 1.13468 0.34724 
4.95635 1.1888 0.422265 5.00027 1.21468 0.512242 5.05454 1.2149 0.627245 
4.36075 0.738828 0.137609 2.91486 1.30353 0.208439 2.84737 1.31013 0.315406 
2.78029 1.32225 0.392789 2.71672 1.32991 0.440635 2.65008 1.35425 0.458844 
4.39118 0.58014 0.401914 4.46112 0.535072 0.494965 3.03057 0.362697 0.267854 
2.98428 0.330197 0.249392 2.93242 0.317302 0.223445 2.8856 0.284787 0.212365 
2.83575 0.258603 0.216039 2.78254 0.238107 0.241852 2.73187 0.207753 0.275093 
2.68819 0.151515 0.323241 2.64698 0.0856198 0.378826 2.60235 0.0290488 0.441759 
2.55027 -0.00363363 0.50458 2.49863 -0.0359869 0.560006 2.45433 -0.0885156 0.600745 
2.40851 -0.131044 0.61927 2.35123 -0.135091 0.630231 2.295 -0.144183 0.648598 
2.24266 -0.170865 0.689214 2.19532 -0.213655 0.729917 2.145 -0.241719 0.748373 
2.09467 -0.259531 0.72245 2.04528 -0.275248 0.67434 1.99536 -0.290979 0.633633 
1.94297 -0.307305 0.629868 1.88812 -0.324225 0.663046 1.83227 -0.341383 0.711019 
1.77692 -0.358423 0.75159 1.72309 -0.37521 0.769993 1.67078 -0.393498 0.77363 
1.62194 -0.421205 0.769919 1.57711 -0.463505 0.773669 1.52678 -0.491569 0.792125 
1.4725 -0.510332 0.825322 1.41814 -0.527133 0.851118 1.36518 -0.541616 0.847344 
1.31123 -0.546085 0.813965 1.25323 -0.535865 0.773125 1.19818 -0.538496 0.74713 
1.1411 -0.539746 0.743294 1.07557 -0.51899 0.76152 1.00803 -0.496854 0.801906 
0.943914 -0.48745 0.849754 0.87576 -0.463357 0.89013 0.806118 -0.429368 0.908294 
0.736923 -0.393405 0.911674 0.667694 -0.357335 0.915054 0.598078 -0.321353 0.925824 
0.5297 -0.284948 0.944111 0.471835 -0.245338 0.948308 0.429968 -0.200848 0.93138 
-0.375399 0.941882 0.153436 -0.32026 0.932309 0.231213 -0.262071 0.918051 0.286846 
-0.205417 0.908729 0.342456 -0.144211 0.883076 0.405535 4.54385 0.445459 0.778722 
5.18554 1.25662 0.800019 5.23976 1.29297 0.826501 5.29151 1.31192 0.847596 
5.34288 1.32605 0.876006 5.39645 1.32834 0.924168 5.45758 1.30464 0.979856 
5.52269 1.2696 1.02819 5.58902 1.23146 1.05428 5.65121 1.18359 1.0651 
5.12419 1.099 0.964154 5.12761 1.03359 1.1341 5.1371 0.978122 1.26255 
5.16114 0.928329 1.3475 5.21308 0.88727 1.40229 5.27806 0.851995 1.42586 
5.34481 0.826949 1.42744 5.41712 0.815401 1.40982 -0.0417424 0.900948 0.5092 
0.00295403 0.931742 0.557228 0.0471551 0.962417 0.612659 0.0849553 1.01536 0.660583 
0.124238 1.06866 0.686339 -0.0417195 0.802358 0.500188 -0.0395407 0.745534 0.521692 
-0.0332021 0.689936 0.528649 -0.0204358 0.636306 0.528639 -0.015651 0.580189 0.528056 
-0.0290058 0.518559 0.555871 -0.040177 0.457679 0.5987 -0.0657785 0.392303 0.640482 
-0.0881541 0.327826 0.660221 -0.0855015 0.271079 0.666913 -0.0710967 0.21796 0.667021 
-0.0548544 0.165414 0.667262 -0.0385065 0.1129 0.66751 -0.0221588 0.0603864 0.667758 
-0.00570558 0.0079053 0.668013 0.0125524 -0.0438976 0.6684 0.0416229 -0.0904248 0.669595 
0.0935166 -0.119375 0.672599 0.151735 -0.130336 0.683742 0.21473 -0.153575 0.709851 
0.275774 -0.175295 0.758128 0.328327 -0.173154 0.821075 5.78057 1.06815 1.13872 
5.81891 1.01777 1.16274 5.84202 0.966548 1.14119 5.87248 0.918215 1.10532 
5.91794 0.874669 1.08539 5.957 0.829232 1.08727 5.999 0.784854 1.11906 
6.02236 0.734841 1.18663 5.65158 1.02809 1.16409 5.6063 0.951226 1.24645 
5.56185 0.874564 1.3165 5.90387 0.157273 1.21991 5.9014 0.0682458 1.18268 
5.90599 0.00766219 1.19834 5.91826 -0.0461942 1.23394 5.93448 -0.0986077 1.26388 
5.96166 -0.147572 1.30203 6.01265 -0.188974 1.37159 4.55011 0.333141 0.977806 
4.52728 0.268415 0.975238 4.63721 0.377825 1.14769 4.68482 0.378776 1.28455 
1.16489 0.794144 1.05592 1.11221 0.76341 1.11872 1.05902 0.742818 1.14453 
1.00975 0.714782 1.14821 0.966018 0.670662 1.14458 0.921295 0.629722 1.14093 
0.881602 0.57433 1.12996 0.842402 0.519057 1.11161 0.79919 0.478378 1.08579 
0.756527 0.432525 1.07477 0.710798 0.393108 1.07851 0.666654 0.346898 1.08966 
0.622487 0.305876 1.07862 0.584817 0.249103 1.04549 0.549607 0.184425 1.01239 
0.509993 0.127071 1.00882 0.464035 0.0836448 1.03475 0.424315 0.0262839 1.06087 
0.39956 -0.037053 1.05078 0.39332 -0.0967714 0.990004 5.82517 0.412252 1.41181 
5.79289 0.487666 1.47174 5.77237 0.542985 1.48017 5.74507 0.592253 1.47023 
5.70159 0.636339 1.45813 5.66019 0.682423 1.4462 5.59725 0.72999 1.42049 

LINES 52 720
75 51 52 53 54 55 56 57 58 59 60 61 62 63 64 65 66 67 68 69 70 71 72 73 74 75 76 77 78 79 80 81 82 83 84 85 86 87 88 89 90 91 92 93 94 95 96 97 98 99 100 101 102 103 104 105 106 107 108 109 110 111 112 113 114 115 116 117 118 119 120 121 122 123 124 13 
3 50 125 47 
55 48 156 157 158 159 160 161 162 163 164 165 166 167 168 169 170 171 172 173 174 175 176 177 178 179 180 181 182 183 184 185 186 187 188 189 190 191 192 193 194 195 196 197 198 199 200 201 202 203 204 205 206 207 208 40 
21 47 209 210 211 212 213 214 215 216 217 218 219 220 221 222 223 224 225 226 227 25 
20 47 228 229 230 231 232 233 234 235 236 237 238 239 240 241 242 243 244 245 41 
18 46 246 247 248 249 250 251 252 253 254 255 256 257 258 259 260 261 44 
10 45 262 263 264 265 266 267 268 269 35 
9 44 270 271 272 273 274 275 276 34 
4 44 277 278 43 
3 42 279 38 
5 39 280 281 282 31 
3 29 283 32 
13 29 284 285 286 287 288 289 290 291 292 293 294 36 
5 38 295 296 297 31 
3 38 298 37 
41 36 299 300 301 302 303 304 305 306 307 308 309 310 311 312 313 314 315 316 317 318 319 320 321 322 323 324 325 326 327 328 329 330 331 332 333 334 335 336 337 28 
18 36 338 339 340 341 342 343 344 345 346 347 348 349 350 351 352 353 29 
12 28 354 355 356 357 358 359 360 361 362 363 20 
3 25 366 30 
12 35 367 368 369 370 371 372 373 374 375 376 22 
10 35 377 378 379 380 381 382 383 384 22 
17 33 385 386 387 388 389 390 391 392 393 394 395 396 397 398 399 2 
4 29 400 401 32 
3 32 402 31 
4 25 403 404 30 
8 28 405 406 407 408 409 410 18 
4 28 411 412 27 
8 28 413 414 415 416 417 418 20 
4 25 419 420 19 
22 24 421 422 423 424 425 426 427 428 429 430 431 432 433 434 435 436 437 438 439 440 19 
5 23 441 442 443 22 
5 21 444 445 446 20 
6 21 447 448 449 450 15 
10 21 451 452 453 454 455 456 457 458 12 
3 20 459 18 
7 19 460 461 462 463 464 14 
4 18 465 466 15 
51 17 467 468 469 470 471 472 473 474 475 476 477 478 479 480 481 482 483 484 485 486 487 488 489 490 491 492 493 494 495 496 497 498 499 500 501 502 503 504 505 506 507 508 509 510 511 512 513 514 515 4 
7 16 516 517 518 519 520 11 
3 15 521 9 
11 12 522 523 524 525 526 527 528 529 530 10 
10 12 531 532 533 534 535 536 537 538 1 
7 11 539 540 541 542 543 7 
24 11 544 545 546 547 548 549 550 551 552 553 554 555 556 557 558 559 560 561 562 563 564 565 4 
10 10 566 567 568 569 570 571 572 573 6 
5 10 574 575 576 1 
9 2 577 578 579 580 581 582 583 3 
4 9 584 585 8 
4 9 586 587 0 
22 5 588 589 590 591 592 593 594 595 596 597 598 599 600 601 602 603 604 605 606 607 4 
9 2 608 609 610 611 612 613 614 1 
35 49 126 127 128 129 130 131 132 133 134 135 136 137 138 139 140 141 142 143 144 145 146 147 148 149 150 151 152 153 154 155 26 364 365 30 

POINT_DATA 615
SCALARS DY_raw double
LOOKUP_TABLE default
93.289 89.1198 103.588 182.169 155.022 103.732 110.91 248.843 95.5201 
119.053 70.9305 168.587 94.6725 172.442 149.954 86.7214 266.184 256.932 
114.633 168.236 108.673 97.7862 164.712 135.586 231.565 150.227 165.153 
277.348 136.11 96.5288 258.345 131.393 122.302 78.2115 81.296 146.853 
86.648 147.326 79.7614 91.7647 156.418 196.61 111.558 87.8059 80.8015 
286.606 94.1073 136.991 105.404 173.031 131.353 127.481 133.692 140.767 
127.383 132.336 127.548 112.82 103.017 124.533 131.412 185.122 206.713 
206.713 225.411 244.053 214.462 203.34 166.502 157.445 178.545 161.091 
150.35 144.477 144.477 140.227 133.879 124.709 151.863 138.634 153.799 
151.609 151.609 165.611 170.505 170.505 183.805 201.826 172.605 185.996 
155.222 167.761 158.613 155.639 151.74 146.235 146.235 140.251 135.894 
154.594 154.941 166.533 159.82 173.004 153.187 130.071 137.629 115.102 
118.553 134.994 142.577 147.917 143.576 123.142 124.979 122.813 124.677 
140.38 140.159 142.284 123.217 115.144 113.866 138.808 166.655 119.907 
110.735 96.6173 105.394 102.192 103.27 118.828 124.966 144.922 156.621 
145.23 145.23 155.677 147.864 185.031 143.927 150.768 187.573 147.883 
130.423 148.781 119.636 150.344 141.273 120.818 145.743 140.105 165.182 
181.584 178.784 160.941 110.375 125.995 122.945 122.945 143.18 150.408 
147.274 136.172 131.4 134.101 131.393 138.163 140.402 128.965 133.408 
129.697 148.697 143.238 143.238 147.078 120.123 133.365 146.14 128.833 
153.036 132.82 108.409 104.848 130.418 155.656 159.647 172.652 160.71 
143.138 156.991 156.146 143.751 135.024 136.279 132.383 134.11 136.854 
144.188 144.188 164.955 160.445 151.537 153.032 147.919 137.786 154.081 
154.081 161.412 135.637 137.169 144.368 141.088 141.088 131.848 114.198 
109.858 106.95 107.165 117.798 117.697 128.662 139.934 133.82 133.82 
135.086 133.008 139.764 146.585 134.389 138.899 145.157 154.577 151.196 
152.105 152.105 151.037 155.156 147.09 147.404 147.975 145.304 142.237 
160.446 161.354 196.61 73.5753 65.2187 85.3469 76.7294 88.4241 88.4241 
84.9253 79.8862 82.3709 86.5599 94.948 101.443 103.464 113.512 103.609 
91.1967 182.49 154.807 154.807 157.845 133.826 137.096 190.817 145.364 
99.1809 103.313 98.9404 88.8954 92.9624 92.9624 94.64 85.1259 85.8526 
72.9959 112.241 120.905 120.729 125.196 126.551 129.734 98.0401 121.138 
149.014 132.88 89.9826 97.1039 97.0718 95.234 80.4902 101.969 116.388 
129.223 81.8869 91.8373 86.1392 82.11 82.11 85.3822 79.2506 84.6928 
108.429 82.8035 89.1312 97.5574 87.6281 83.5737 78.2053 78.4238 84.2235 
93.0751 91.9351 98.6604 99.3101 103.049 109.884 108.596 118.798 120.193 
137.507 142.118 135.194 120.856 116.86 108.689 125.065 115.253 103.042 
138.782 124.784 147.992 136.274 140.807 77.9499 85.1543 77.3158 81.2475 
96.0817 98.0396 78.5089 73.6342 55.8659 45.0894 65.6103 68.1776 73.0685 
95.6171 94.2507 93.853 127.996 112.104 92.5882 76.9616 76.9616 72.7766 
91.8323 125.911 145.395 108.425 168.33 188.28 217.15 174.685 176.049 
158.946 174.417 200.969 219.611 189.111 185.133 163.128 155.369 142.726 
129.402 127.953 142.955 132.76 138.052 144.051 144.454 77.2283 81.2733 
89.7561 88.0406 94.6058 104.565 112.439 96.702 82.8991 70.9443 67.7555 
92.8941 88.0742 81.4126 90.7602 93.32 102.389 131.393 184.125 230.877 
147.377 160.567 131.558 130.19 131.199 124.642 182.364 243.239 125.96 
113.303 130.506 126.94 139.214 115.796 183.662 158.111 192.303 146.33 
146.33 121.978 119.929 137.412 150.318 179.155 166.269 166.269 161.323 
180.322 162.987 177.521 196.84 201.103 173.37 173.37 157.291 172.764 
137.318 137.318 152.514 97.6093 104.733 105.99 93.6041 85.3141 90.879 
86.7214 102.071 105.194 112.207 118.984 100.613 98.0678 88.209 93.7608 
115.189 190.636 196.648 178.425 148.526 159.842 102.3 104.112 161.572 
161.572 141.244 139.881 139.881 118.406 127.028 131.562 132.511 138.525 
135.977 155.032 155.032 137.85 133.745 133.745 134.609 143.181 143.181 
151.97 134.649 140.965 137.107 137.107 143.475 151.446 132.414 144.118 
137.852 137.852 140.797 158.684 154.351 140.315 140.315 121.927 126.042 
126.042 120.248 129.854 142.64 174.166 186.986 186.986 211.296 229.829 
172.383 150.546 157.477 175.366 159.972 173.977 168.011 162.895 85.2824 
99.6509 94.8372 80.2131 67.0956 71.9259 79.1184 92.3944 81.6134 82.9693 
108.124 120.152 121.804 109.444 119.541 123.093 119.381 98.1163 168.587 
171.287 192.2 239.478 206.33 154.657 167.112 167.112 187.989 178.121 
178.121 207.304 222.793 230.493 196.876 196.876 207.879 198.102 198.102 
187.799 187.799 182.823 157.217 142.02 129.942 145.549 158.363 72.0099 
76.5817 70.1386 64.4989 64.7023 63.0072 63.61 80.1291 83.9138 96.4167 
80.2087 146.651 141.279 135.699 155.763 151.839 168.257 147.079 100.863 
85.5167 107.114 93.6651 126.343 157.737 143.94 154.08 190.78 164.616 
155.789 173.133 142.996 154.164 140.363 140.363 139.089 154.083 142.637 
183.377 177.869 182.303 176.664 170.657 121.21 127.393 135.833 106.126 
96.0539 89.9221 85.6928 
FIELD FieldData 7
DY_minmax 1 615 double
0.199571 0.182308 0.242214 0.567578 0.455175 0.242811 0.272532 0.843641 0.208809 
0.306246 0.106996 0.511343 0.205299 0.527304 0.434191 0.172377 0.915444 0.877135 
0.287948 0.509888 0.263269 0.218192 0.4953 0.374703 0.772102 0.435325 0.497126 
0.961667 0.37687 0.212985 0.882986 0.357342 0.319699 0.137142 0.149914 0.421354 
0.172074 0.423311 0.14356 0.193259 0.460956 0.627371 0.275212 0.176868 0.147866 
1 0.202959 0.380518 0.249735 0.529741 0.357174 0.341143 0.366858 0.396152 
0.340735 0.361246 0.34142 0.280437 0.23985 0.328935 0.35742 0.579805 0.669203 
0.669203 0.746621 0.823809 0.70129 0.655238 0.502712 0.465207 0.552575 0.480304 
0.435831 0.411516 0.411516 0.393916 0.367635 0.329666 0.442098 0.387321 0.450112 
0.441043 0.441043 0.499021 0.519285 0.519285 0.574351 0.648968 0.52798 0.583425 
0.456004 0.507923 0.470047 0.457731 0.441589 0.418794 0.418794 0.394016 0.375976 
0.453405 0.454842 0.502839 0.475042 0.529629 0.447578 0.351867 0.383163 0.289889 
0.304175 0.372252 0.403647 0.425757 0.407783 0.323176 0.330783 0.321815 0.329533 
0.394553 0.393635 0.402433 0.323488 0.290063 0.284768 0.388044 0.503343 0.309783 
0.271808 0.213352 0.249693 0.236432 0.240895 0.305316 0.330729 0.413357 0.461796 
0.414635 0.414635 0.457889 0.425538 0.579428 0.409237 0.437563 0.589954 0.425619 
0.353323 0.429334 0.308659 0.435808 0.39825 0.313556 0.416757 0.393413 0.497245 
0.565158 0.553561 0.479684 0.270314 0.334989 0.322361 0.322361 0.406144 0.436072 
0.423096 0.377127 0.35737 0.368555 0.357342 0.385373 0.394641 0.347286 0.365683 
0.350318 0.42899 0.406386 0.406386 0.422286 0.310676 0.365504 0.418401 0.34674 
0.446954 0.363251 0.262177 0.24743 0.353304 0.457801 0.474325 0.528173 0.478727 
0.405972 0.463328 0.459831 0.408508 0.372377 0.377572 0.361441 0.368592 0.379952 
0.410316 0.410316 0.496302 0.477633 0.440749 0.446937 0.425769 0.383812 0.451279 
0.451279 0.481636 0.374911 0.381256 0.411063 0.397484 0.397484 0.359224 0.286144 
0.268175 0.256133 0.257025 0.30105 0.300632 0.346033 0.392703 0.367389 0.367389 
0.372631 0.364027 0.392002 0.420244 0.369746 0.388418 0.414332 0.453334 0.439334 
0.443099 0.443099 0.438678 0.45573 0.422334 0.423633 0.425998 0.414938 0.402242 
0.477633 0.481394 0.627371 0.117946 0.0833455 0.166687 0.131006 0.179428 0.179428 
0.164941 0.144076 0.154364 0.171709 0.20644 0.233331 0.241701 0.283303 0.2423 
0.190907 0.56891 0.454288 0.454288 0.466864 0.367413 0.380953 0.603388 0.415187 
0.223966 0.241075 0.22297 0.181379 0.198219 0.198219 0.205165 0.165771 0.16878 
0.115547 0.27804 0.313915 0.313187 0.331681 0.337294 0.350474 0.219243 0.31488 
0.430301 0.363496 0.18588 0.215367 0.215233 0.207624 0.146577 0.235511 0.295211 
0.348358 0.15236 0.19356 0.169967 0.153284 0.153284 0.166833 0.141445 0.163978 
0.262258 0.156155 0.182355 0.217244 0.176132 0.159344 0.137117 0.138021 0.162035 
0.198685 0.193965 0.221811 0.224501 0.239982 0.268283 0.262951 0.305191 0.310967 
0.382657 0.401747 0.373081 0.313712 0.297168 0.263336 0.331138 0.290514 0.239955 
0.387937 0.329977 0.42607 0.37755 0.396319 0.136059 0.165889 0.133434 0.149713 
0.211134 0.219241 0.138374 0.11819 0.0446201 0 0.084967 0.095597 0.115848 
0.20921 0.203553 0.201906 0.343275 0.277474 0.196669 0.131967 0.131967 0.114639 
0.193539 0.334641 0.415314 0.26224 0.510279 0.592883 0.71242 0.53659 0.54224 
0.471425 0.535481 0.645421 0.722607 0.596324 0.579852 0.48874 0.456612 0.404265 
0.349097 0.343096 0.405212 0.362999 0.384912 0.409753 0.41142 0.133072 0.14982 
0.184943 0.17784 0.205023 0.246261 0.278863 0.213702 0.156551 0.107053 0.093849 
0.197936 0.177979 0.150397 0.1891 0.199699 0.237248 0.357342 0.575676 0.769257 
0.423522 0.478134 0.358025 0.352359 0.356539 0.329387 0.568386 0.82044 0.334844 
0.282439 0.353667 0.338903 0.389723 0.292762 0.573762 0.467966 0.609537 0.419188 
0.419188 0.318359 0.309872 0.382263 0.4357 0.555098 0.501746 0.501746 0.481267 
0.559932 0.488156 0.548332 0.628323 0.645975 0.531147 0.531147 0.464573 0.528637 
0.381873 0.381873 0.444793 0.217459 0.246956 0.25216 0.200875 0.166551 0.189592 
0.172377 0.235933 0.248864 0.277901 0.305962 0.229896 0.219358 0.178537 0.201524 
0.290249 0.602635 0.627528 0.552077 0.428278 0.475134 0.236879 0.244382 0.482295 
0.482295 0.398129 0.392485 0.392485 0.303569 0.339265 0.35804 0.36197 0.386872 
0.376321 0.455216 0.455216 0.384075 0.36708 0.36708 0.370657 0.40615 0.40615 
0.442539 0.370821 0.396975 0.380999 0.380999 0.407366 0.440372 0.361567 0.410028 
0.384084 0.384084 0.396276 0.470338 0.452399 0.394284 0.394284 0.318145 0.335185 
0.335185 0.311193 0.350967 0.40391 0.534442 0.587524 0.587524 0.688178 0.764916 
0.52706 0.436642 0.465343 0.539411 0.475672 0.53366 0.508957 0.487774 0.166419 
0.225912 0.205981 0.14543 0.0911171 0.111117 0.140897 0.195867 0.151228 0.156842 
0.260994 0.310796 0.317639 0.266459 0.308265 0.322976 0.307603 0.219558 0.511343 
0.522524 0.609113 0.804866 0.667616 0.453664 0.505236 0.505236 0.591678 0.550817 
0.550817 0.671652 0.735783 0.767663 0.628473 0.628473 0.674033 0.633549 0.633549 
0.59089 0.59089 0.570287 0.464267 0.401342 0.351333 0.415954 0.46901 0.111465 
0.130394 0.103717 0.0803651 0.0812076 0.0741888 0.0766849 0.145082 0.160753 0.212521 
0.145412 0.420517 0.398276 0.375169 0.458243 0.441998 0.509974 0.42229 0.230931 
0.16739 0.256815 0.201128 0.336429 0.466418 0.409291 0.451275 0.603233 0.494899 
0.458352 0.530165 0.405382 0.451625 0.394479 0.394479 0.389204 0.451289 0.403897 
0.572581 0.549773 0.568133 0.544787 0.519914 0.315179 0.340777 0.375727 0.252723 
0.211019 0.18563 0.168119 
WidthEq 1 615 double
1.8617 4.92894 3.99463 1.84212 6.06868 4.15383 3.55419 2.91058 5.11385 