# vtk DataFile Version 3.0
vtk output
ASCII
DATASET POLYDATA
POINTS 567 float
2.18564 -1.40526 0.428729 1.25306 -1.01143 0.933452 2.60846 -1.44877 0.297293 
1.3625 -0.616495 1.02385 2.96387 -1.11118 0.342696 2.58947 -1.71164 -0.194693 
0.437612 -0.345857 0.842316 1.39152 0.249566 1.30245 0.210659 -1.10785 0.129381 
3.14528 -0.294887 0.553856 3.06578 -1.21842 -0.334625 3.37551 -1.2062 -0.361414 
0.451029 0.0769508 0.772086 1.36628 0.220833 0.997512 5.14318 -0.0207314 0.290987 
-0.0816249 -0.626284 -0.0193165 -0.137197 -0.898139 -0.183454 3.39712 -0.50778 -0.24496 
2.75516 -1.32017 -1.72807 3.76026 -0.353654 -0.794022 3.9182 -0.207872 -0.858678 
-0.323817 0.545431 0.123597 1.74422 0.989543 0.297442 0.531543 -0.898941 -1.59838 
-0.489462 -0.450879 -1.45524 0.788113 -0.860897 -1.66343 3.51581 0.697018 -0.581824 
-0.776297 0.137425 -0.777094 3.77384 0.484161 -1.00786 1.15612 1.55252 0.0781133 
-0.51498 1.01265 -0.518581 -0.847133 0.674207 -0.899728 3.09182 1.2943 -0.694885 
-0.653946 0.0497894 -1.81142 -0.0225114 -0.418105 -2.25203 3.43232 0.796542 -1.50175 
-0.672962 1.14617 -0.929235 -0.859962 0.413643 -1.61849 -0.113036 -0.105328 -2.40335 
2.27701 1.65931 -1.14593 2.79884 1.46904 -1.14197 3.24019 1.1425 -1.6081 
-0.358007 0.0710052 -2.29462 2.9885 1.45803 -1.36312 -0.623365 0.730073 -1.90048 
-0.556644 0.490987 -2.1414 2.13127 1.84274 -1.16199 -0.640506 1.1758 -1.74488 
-0.314981 1.25372 -1.70972 2.71561 1.61492 -1.73671 1.49857 1.06536 -2.95979 
1.47779 1.10409 -2.91952 1.42056 1.11594 -2.90084 1.34691 1.12131 -2.8968 
1.27773 1.14123 -2.89991 1.22474 1.18999 -2.90811 1.17249 1.24494 -2.92077 
1.1113 1.28765 -2.93382 1.0631 1.32306 -2.92449 1.02208 1.35249 -2.90112 
0.974449 1.37142 -2.87676 0.909226 1.37174 -2.85793 0.843922 1.36073 -2.82935 
0.790187 1.34137 -2.77922 0.726122 1.30876 -2.73033 0.655455 1.2769 -2.69024 
0.588742 1.26486 -2.66249 0.53164 1.27117 -2.63885 0.462946 1.27456 -2.62697 
0.388397 1.27364 -2.61857 0.321112 1.27807 -2.60586 0.272002 1.29591 -2.58238 
0.222972 1.3138 -2.55885 0.157749 1.31412 -2.54002 0.0939272 1.30421 -2.51056 
0.0502603 1.29227 -2.45447 0.0145179 1.28055 -2.38879 -0.0270797 1.2645 -2.32657 
-0.0802697 1.24554 -2.27613 -0.121787 1.22956 -2.21387 -0.156048 1.21892 -2.1473 
-0.189647 1.21441 -2.08525 -0.224406 1.2203 -2.03367 -0.257841 1.22724 -1.98124 
-0.282633 1.23057 -1.91267 -0.294679 1.23977 -1.81921 2.75309 1.5885 -1.76708 
2.79049 1.56203 -1.7975 2.82731 1.5295 -1.82337 2.86024 1.47721 -1.83685 
2.89349 1.40262 -1.83055 2.95965 1.33349 -1.78847 3.0433 1.27101 -1.73174 
3.13566 1.20733 -1.67033 -0.402814 1.17453 -1.65128 -0.468809 1.12891 -1.63554 
-0.546435 1.13829 -1.66861 -0.307464 1.2754 -1.59619 -0.308161 1.28843 -1.50042 
-0.321362 1.29963 -1.42563 -0.325574 1.33373 -1.36081 -0.323183 1.37828 -1.29701 
-0.31881 1.41867 -1.22714 -0.312457 1.44362 -1.14141 -0.306924 1.46233 -1.05126 
-0.311379 1.47358 -0.967143 -0.342922 1.46305 -0.900818 -0.393272 1.4062 -0.835705 
-0.438081 1.30286 -0.754252 -0.48268 1.16916 -0.640111 -0.634703 1.10047 -1.81888 
-0.633566 1.03254 -1.87473 -0.632965 0.955064 -1.90867 -0.629476 0.852834 -1.91519 
-0.718002 1.12916 -1.67683 -0.764791 1.09129 -1.59368 -0.796129 1.0497 -1.49536 
-0.823978 1.00059 -1.38748 -0.847053 0.925539 -1.25356 -0.857721 0.816221 -1.0888 
-0.628 1.25185 -1.67246 -0.621383 1.30969 -1.60664 -0.617888 1.3501 -1.53664 
-0.620912 1.36255 -1.45153 -0.640909 1.33991 -1.35693 -0.664862 1.28619 -1.24018 
-0.678989 1.2172 -1.09803 2.18101 1.79344 -1.15909 2.23578 1.73263 -1.14726 
-0.503552 0.450534 -2.18738 -0.484828 0.401206 -2.2377 -0.47425 0.353616 -2.28532 
-0.44618 0.31456 -2.31644 -0.409022 0.265382 -2.32741 -0.375749 0.185189 -2.31621 
-0.608326 0.270027 -1.97983 -0.563655 0.552649 -2.08054 -0.580793 0.598596 -2.0337 
-0.588431 0.647687 -1.98499 -0.597434 0.695142 -1.9377 -0.696106 0.700316 -1.86847 
-0.758814 0.640096 -1.81547 -0.8065 0.53653 -1.73388 3.26509 1.12247 -1.43702 
3.2844 1.09194 -1.28238 3.30976 1.04272 -1.13284 3.35707 0.959316 -0.977786 
3.4253 0.838158 -0.792906 2.95193 1.46453 -1.31419 2.90844 1.46157 -1.26322 
2.85158 1.45461 -1.21101 2.70754 1.51733 -1.17351 2.64086 1.56055 -1.18541 
2.57944 1.58498 -1.18163 2.53124 1.60729 -1.16084 2.48254 1.62256 -1.13471 
2.41529 1.62612 -1.12286 2.34093 1.62887 -1.12646 -0.0261849 -0.0330152 -2.4822 
0.0490009 0.0257951 -2.5485 0.112402 0.0591272 -2.60007 0.157958 0.0574019 -2.64202 
0.197662 0.0382621 -2.67598 0.244541 0.0131477 -2.69588 0.303746 -0.014136 -2.69869 
0.355335 -0.0639289 -2.69133 0.408328 -0.112695 -2.68312 0.477593 -0.132558 -2.67997 
0.550081 -0.11626 -2.70429 0.613404 -0.0898198 -2.74873 0.658553 -0.0767912 -2.80394 
0.705683 -0.079195 -2.84329 0.772307 -0.0784802 -2.86129 0.846856 -0.0775541 -2.86969 
0.91555 -0.0809465 -2.88157 0.973312 -0.0924015 -2.89992 1.04201 -0.0957936 -2.9118 
1.11663 -0.0948088 -2.92016 1.18533 -0.098201 -2.93204 1.24302 -0.109603 -2.95033 
1.31047 -0.11201 -2.96109 1.37838 -0.104266 -2.96204 1.43721 -0.0882198 -2.95377 
1.50513 -0.0784578 -2.95276 1.57172 -0.0677694 -2.95067 1.62119 -0.0450125 -2.93471 
1.66327 -0.0123593 -2.91858 1.71142 0.0206833 -2.91319 1.77523 0.0520558 -2.93214 
1.83787 0.0842499 -2.95014 1.87708 0.137635 -2.95499 1.90356 0.199996 -2.94951 
1.94247 0.262946 -2.96576 1.97363 0.336042 -2.98154 2.01987 0.398515 -3.00955 
2.06274 0.453995 -3.02318 2.10195 0.498019 -3.01637 2.14132 0.532578 -2.99804 
2.18061 0.567191 -2.97966 2.21858 0.612089 -2.97184 2.25458 0.672419 -2.97989 
2.28991 0.737902 -2.99324 2.32663 0.793033 -2.99606 2.3679 0.821572 -2.97345 
2.41935 0.819543 -2.92998 2.4837 0.79906 -2.8853 2.54385 0.786212 -2.84306 
2.60563 0.786262 -2.81961 2.65642 0.798731 -2.79306 2.70786 0.80606 -2.76123 
2.77162 0.790677 -2.72191 2.8331 0.767537 -2.66909 2.89877 0.736768 -2.61383 
2.95212 0.719353 -2.55443 2.99611 0.717902 -2.49909 3.03131 0.736673 -2.45409 
3.06226 0.763129 -2.41147 3.11386 0.775027 -2.38558 3.16252 0.784315 -2.3515 
3.20372 0.803549 -2.31718 3.23621 0.833592 -2.28164 3.25705 0.871843 -2.23665 
3.28267 0.897379 -2.18388 3.30616 0.905693 -2.1061 3.33697 0.890124 -2.01097 
3.36568 0.85737 -1.89078 3.39851 0.817699 -1.76746 3.41929 0.795326 -1.63619 
-0.140755 0.0289289 -2.40763 -0.183815 0.0940938 -2.40111 -0.240292 0.0984513 -2.37254 
-0.293356 0.0871575 -2.32848 -0.407267 -0.0713087 -2.15715 -0.440852 -0.19826 -2.03782 
-0.467866 -0.281386 -1.92077 -0.49239 -0.34205 -1.80034 -0.503944 -0.40103 -1.65136 
3.29646 1.02603 -1.58664 3.35644 0.913578 -1.54789 2.85836 1.44489 -1.02418 
2.91244 1.40857 -0.921012 2.96984 1.36477 -0.832442 3.03582 1.32293 -0.763789 
-0.0702083 -0.272005 -2.32875 -0.868647 0.314877 -1.44373 -0.860322 0.239806 -1.26878 
-0.844812 0.190773 -1.11091 -0.823726 0.15855 -0.978879 -0.794816 0.139645 -0.876371 
-0.853771 0.290941 -1.60375 -0.84882 0.189859 -1.60933 -0.83851 0.12088 -1.63621 
-0.810631 0.083561 -1.66908 -0.773599 0.0629925 -1.70755 -0.72517 0.0524655 -1.75496 
-0.650336 1.12234 -0.809991 -0.611246 1.09158 -0.709908 -0.5641 1.05515 -0.616354 
-0.713041 1.05129 -0.871283 -0.762203 0.972163 -0.817614 -0.794453 0.89196 -0.791306 
-0.80481 0.809019 -0.801531 -0.816627 0.736009 -0.839957 3.54319 0.695722 -1.37503 
3.62496 0.608555 -1.25215 3.70238 0.533813 -1.13739 -0.585103 -0.20735 -1.64044 
-0.838011 0.510862 -0.869541 -0.828646 0.369076 -0.842645 -0.811616 0.246188 -0.815592 
-0.483783 0.921825 -0.330688 -0.435534 0.816967 -0.15858 -0.379776 0.694433 -0.00460545 
1.19443 1.53235 0.0433275 1.23933 1.52266 0.00755881 1.29597 1.52728 -0.0261473 
1.35226 1.51474 -0.0453757 1.42417 1.48557 -0.0308625 1.50731 1.41961 0.0294832 
1.5864 1.32253 0.111918 1.64723 1.2007 0.193323 1.69741 1.08792 0.253733 
3.87609 0.436439 -0.9633 3.96588 0.382113 -0.913216 4.04288 0.322228 -0.866956 
4.10532 0.274765 -0.848298 4.17467 0.266226 -0.854884 4.24724 0.282591 -0.879161 
4.31247 0.293538 -0.907779 4.36083 0.269517 -0.926806 4.40326 0.229857 -0.93956 
4.45419 0.185204 -0.937476 4.52263 0.159101 -0.929911 4.59115 0.133057 -0.9223 
4.64143 0.104817 -0.935303 4.68979 0.0807959 -0.954329 4.74835 0.0701381 -0.972009 
4.80192 0.0595068 -0.989039 4.85298 0.068548 -0.986618 4.88201 0.108369 -0.961883 
4.91448 0.157026 -0.949727 4.95735 0.212506 -0.963356 5.01106 0.265037 -0.991598 
5.05518 0.319643 -1.00623 5.09446 0.363614 -0.999485 5.13449 0.393027 -0.975869 
5.17642 0.407061 -0.936329 5.22041 0.40561 -0.880986 5.26696 0.392992 -0.816068 
5.32164 0.365283 -0.746086 5.38856 0.314923 -0.668559 5.44704 0.246978 -0.55519 
5.49184 0.167951 -0.409405 5.50829 0.096415 -0.252792 5.49422 0.0367211 -0.122338 
5.46688 -0.00270065 -0.0224023 5.436 -0.0277372 0.06086 5.40232 -0.0435739 0.132663 
5.35874 -0.0554512 0.188798 5.29491 -0.0653589 0.218251 5.22977 -0.0649805 0.237131 
5.18222 -0.0459927 0.261538 3.73337 0.488868 -0.915222 3.69368 0.517101 -0.872423 
3.65322 0.576442 -0.871905 3.62049 0.640214 -0.868028 3.60312 0.689043 -0.832198 
3.58463 0.704513 -0.766419 3.56392 0.707327 -0.678091 -0.684478 0.00868086 -0.644041 
-0.607453 -0.100284 -0.510644 -0.553709 -0.174123 -0.381673 -0.481306 -0.24707 -0.285301 
-0.397267 -0.314187 -0.215818 -0.311008 -0.381447 -0.150227 -0.226261 -0.445671 -0.0918579 
-0.147372 -0.523838 -0.0428615 3.49358 0.62168 -0.420608 3.46943 0.538564 -0.270192 
3.43733 0.449476 -0.131512 3.39286 0.350527 -0.000867886 3.35051 0.264344 0.117714 
3.30255 0.173579 0.211779 3.26432 0.0747294 0.276036 3.23289 -0.0401718 0.344559 
3.19662 -0.165821 0.434367 0.737153 -0.850415 -1.6339 0.653962 -0.863576 -1.61297 
0.427501 -0.95736 -1.54106 0.350987 -0.990937 -1.49414 0.294214 -0.989017 -1.46442 
0.23401 -0.966641 -1.45849 0.18383 -0.915808 -1.46502 0.140245 -0.854471 -1.47255 
0.0973218 -0.798286 -1.47478 0.0491223 -0.762886 -1.46545 -0.0100917 -0.746868 -1.45285 
-0.0649695 -0.733286 -1.43279 -0.124925 -0.723449 -1.41574 -0.17973 -0.709814 -1.39563 
-0.236947 -0.697957 -1.37695 -0.27687 -0.666257 -1.3541 -0.310604 -0.607918 -1.34502 
-0.383973 -0.537811 -1.38438 -0.419806 -0.534965 -1.23188 -0.390037 -0.624856 -1.02994 
-0.388175 -0.71122 -0.854792 -0.380789 -0.765912 -0.698815 -0.36718 -0.799447 -0.556763 
-0.347271 -0.821485 -0.435422 -0.314989 -0.847441 -0.329829 -0.278751 -0.862154 -0.244903 
-0.214415 -0.882625 -0.200225 0.54182 -1.04201 -1.59618 0.571525 -1.12462 -1.59983 
0.607848 -1.15852 -1.62697 0.645141 -1.17245 -1.66852 0.688718 -1.17184 -1.71487 
0.743311 -1.15185 -1.76449 0.793566 -1.12941 -1.82158 0.849561 -1.10838 -1.87036 
0.902458 -1.10653 -1.90628 0.960351 -1.11226 -1.92946 1.00665 -1.13217 -1.95461 
1.04693 -1.15651 -1.98332 1.09315 -1.17648 -2.00852 1.15038 -1.18833 -2.02719 
1.19801 -1.20726 -2.05155 1.24704 -1.22516 -2.07508 1.31506 -1.23467 -2.08245 
1.39292 -1.24809 -2.0741 1.47292 -1.27504 -2.04805 1.54685 -1.30228 -2.01114 
1.60979 -1.31708 -1.97116 1.68108 -1.32374 -1.95541 1.75778 -1.32485 -1.95569 
1.83316 -1.31567 -1.96655 1.89983 -1.28632 -1.98782 1.95279 -1.22402 -2.0272 
2.01211 -1.1494 -2.0969 2.07157 -1.09002 -2.17106 2.12457 -1.07471 -2.21467 
2.1872 -1.09712 -2.1924 2.24458 -1.13811 -2.11494 2.30395 -1.18327 -2.0314 
2.37788 -1.21986 -1.98285 2.45649 -1.23635 -1.96721 2.5337 -1.24251 -1.96208 
2.60338 -1.25505 -1.93629 2.6526 -1.27423 -1.86771 2.69462 -1.30003 -1.77874 
3.85797 -0.280263 -0.831657 2.79907 -1.3005 -1.69886 2.84275 -1.25728 -1.69859 
2.89986 -1.22588 -1.70629 2.95372 -1.19919 -1.70262 3.00531 -1.17793 -1.68838 
3.03567 -1.14639 -1.6511 3.07087 -1.12761 -1.60611 3.11552 -1.13421 -1.54547 
3.1694 -1.15667 -1.48067 3.23242 -1.18557 -1.42328 3.27494 -1.17663 -1.37839 
3.29645 -1.13416 -1.33977 3.31897 -1.08306 -1.31361 3.34107 -1.04569 -1.26964 
3.38292 -1.04096 -1.21839 3.43585 -1.04871 -1.17028 3.46738 -1.02735 -1.12231 
3.49848 -0.977608 -1.10893 3.5319 -0.915465 -1.11491 3.55962 -0.849305 -1.11626 
3.57782 -0.790476 -1.09242 3.60087 -0.744414 -1.06087 3.62098 -0.700964 -1.02111 
3.65142 -0.664794 -0.989727 3.68186 -0.628624 -0.958341 3.70173 -0.583332 -0.920222 
3.72418 -0.533152 -0.888047 3.73979 -0.457974 -0.847986 3.68934 -0.44649 -0.654129 
3.63871 -0.522056 -0.534565 3.58738 -0.573978 -0.450699 3.54728 -0.590727 -0.385901 
3.51763 -0.575428 -0.336194 3.49174 -0.546103 -0.294055 3.44318 -0.527861 -0.270246 
-0.126924 -0.902276 -0.0677141 -0.120116 -0.865185 0.00556115 -0.109918 -0.767636 0.0161783 
-0.0453143 -1.00821 -0.0737479 0.041953 -1.09164 0.0105869 0.116475 -1.13332 0.0644802 
0.168581 -1.13114 0.101601 0.00802672 -0.643412 0.00817003 0.0745114 -0.660046 0.0459344 
0.130741 -0.702881 0.0733297 0.161453 -0.779349 0.0815719 0.188136 -0.869937 0.0938801 
0.202406 -0.981047 0.108517 0.4247 -0.0314167 0.760732 0.42669 -0.178966 0.785549 
0.516813 0.106561 0.779708 0.580279 0.106273 0.805218 0.643979 0.0980577 0.835973 
0.695396 0.106576 0.866372 0.746769 0.12332 0.886612 0.812707 0.139148 0.883412 
0.877323 0.165275 0.869625 0.924735 0.212876 0.858144 0.970974 0.26131 0.847606 
1.02945 0.287084 0.84462 1.08704 0.294755 0.865651 1.15212 0.278446 0.903907 
1.2144 0.259413 0.950255 1.2876 0.237378 0.981929 1.37205 0.250987 1.07801 
1.38047 0.260569 1.17965 1.44801 0.176371 1.03744 1.51985 0.124615 1.07149 
1.56482 0.0530446 1.08964 1.59147 -0.0320419 1.09692 1.63432 -0.099553 1.1089 
1.69409 -0.143308 1.12112 1.74362 -0.177728 1.11258 1.79324 -0.200716 1.0944 
1.85929 -0.204162 1.0828 1.92711 -0.196477 1.08181 1.98535 -0.175332 1.08473 
2.05268 -0.151123 1.06875 2.12476 -0.116338 1.03135 2.19609 -0.0782488 0.986854 
2.26082 -0.0507768 0.94325 2.3152 -0.0478339 0.908201 2.37466 -0.0524065 0.885951 
2.43102 -0.0648958 0.866765 2.49963 -0.0683468 0.854842 2.5736 -0.0622157 0.841192 
2.64089 -0.0553809 0.818695 2.69461 -0.0472913 0.778356 2.75259 -0.0416967 0.745437 
2.80408 -0.0408735 0.708672 2.85339 -0.0529376 0.680415 2.87937 -0.07093 0.62853 
2.91694 -0.0860233 0.588415 2.97209 -0.0937678 0.563616 3.0208 -0.134427 0.559484 
3.06364 -0.190677 0.561675 3.10516 -0.247895 0.563076 3.33476 -1.23978 -0.378613 
3.28669 -1.27277 -0.38396 3.22223 -1.29687 -0.36823 3.15699 -1.29857 -0.351359 
3.10812 -1.2694 -0.337629 3.15067 -0.421807 0.574967 3.14799 -0.533697 0.590962 
3.1336 -0.627973 0.60481 3.12697 -0.718353 0.600722 3.11901 -0.79844 0.586053 
3.1 -0.856699 0.562877 3.09065 -0.917093 0.52605 3.08679 -0.981351 0.484766 
3.07671 -1.0459 0.45435 3.04693 -1.08722 0.428254 3.00705 -1.10738 0.392878 
0.286701 -1.10382 0.12381 0.356011 -1.09504 0.123695 0.41565 -1.08413 0.137243 
0.48694 -1.09079 0.152992 0.567019 -1.11767 0.179088 0.648919 -1.15064 0.209428 
0.728911 -1.17949 0.233628 0.799665 -1.19825 0.237662 0.858676 -1.22006 0.229845 
0.928021 -1.23986 0.233045 0.999272 -1.27504 0.252169 1.06027 -1.32164 0.271866 
1.12488 -1.35012 0.298343 1.18444 -1.35053 0.321628 1.25433 -1.34695 0.326762 
1.33045 -1.34297 0.32113 1.40773 -1.33982 0.314554 1.48377 -1.33578 0.308984 
1.55176 -1.32607 0.30994 1.60262 -1.3043 0.324775 1.65341 -1.28247 0.339671 
1.72008 -1.27183 0.341694 1.78865 -1.26722 0.348001 1.85004 -1.26922 0.374697 
1.92723 -1.29829 0.40942 2.03233 -1.34926 0.434897 2.59194 -1.65576 -0.140643 
2.59441 -1.59988 -0.0865927 2.59755 -1.54915 -0.0272524 2.60204 -1.50868 0.042683 
2.60898 -1.48329 0.128762 2.61674 -1.46293 0.220233 1.32394 -0.646941 0.999042 
1.29212 -0.682136 0.968777 1.27068 -0.72465 0.930096 1.24099 -0.765911 0.904042 
1.216 -0.822499 0.893617 1.22009 -0.910593 0.900778 2.54927 -1.45526 0.329493 
2.48196 -1.4591 0.349721 2.42772 -1.44688 0.378756 2.34446 -1.43104 0.409742 

LINES 49 668
37 50 51 52 53 54 55 56 57 58 59 60 61 62 63 64 65 66 67 68 69 70 71 72 73 74 75 76 77 78 79 80 81 82 83 84 85 48 
10 49 86 87 88 89 90 91 92 93 41 
5 48 94 95 96 47 
15 48 97 98 99 100 101 102 103 104 105 106 107 108 109 30 
6 47 110 111 112 113 44 
8 47 114 115 116 117 118 119 31 
9 47 120 121 122 123 124 125 126 36 
8 45 129 130 131 132 133 134 42 
3 45 135 33 
6 45 136 137 138 139 44 
5 44 140 141 142 37 
7 41 143 144 145 146 147 26 
5 43 148 149 150 40 
72 38 158 159 160 161 162 163 164 165 166 167 168 169 170 171 172 173 174 175 176 177 178 179 180 181 182 183 184 185 186 187 188 189 190 191 192 193 194 195 196 197 198 199 200 201 202 203 204 205 206 207 208 209 210 211 212 213 214 215 216 217 218 219 220 221 222 223 224 225 226 227 35 
6 38 228 229 230 231 42 
7 42 232 233 234 235 236 24 
4 41 237 238 35 
6 40 239 240 241 242 32 
3 38 243 34 
7 37 244 245 246 247 248 27 
8 37 249 250 251 252 253 254 33 
5 36 255 256 257 30 
7 36 258 259 260 261 262 31 
5 35 263 264 265 28 
3 33 266 24 
5 31 267 268 269 27 
5 30 270 271 272 21 
11 29 273 274 275 276 277 278 279 280 281 22 
42 28 282 283 284 285 286 287 288 289 290 291 292 293 294 295 296 297 298 299 300 301 302 303 304 305 306 307 308 309 310 311 312 313 314 315 316 317 318 319 320 321 14 
9 28 322 323 324 325 326 327 328 26 
10 27 329 330 331 332 333 334 335 336 15 
11 26 337 338 339 340 341 342 343 344 345 9 
4 25 346 347 23 
18 23 348 349 350 351 352 353 354 355 356 357 358 359 360 361 362 363 24 
11 24 364 365 366 367 368 369 370 371 372 16 
3 20 411 19 
9 19 440 441 442 443 444 445 446 17 
5 16 447 448 449 15 
6 16 450 451 452 453 8 
8 15 454 455 456 457 458 459 8 
4 13 476 477 7 
33 13 478 479 480 481 482 483 484 485 486 487 488 489 490 491 492 493 494 495 496 497 498 499 500 501 502 503 504 505 506 507 508 9 
7 11 509 510 511 512 513 10 
13 9 514 515 516 517 518 519 520 521 522 523 524 4 
8 3 557 558 559 560 561 562 1 
12 46 127 128 39 157 156 155 154 153 152 151 40 
69 23 373 374 375 376 377 378 379 380 381 382 383 384 385 386 387 388 389 390 391 392 393 394 395 396 397 398 399 400 401 402 403 404 405 406 407 408 409 410 18 412 413 414 415 416 417 418 419 420 421 422 423 424 425 426 427 428 429 430 431 432 433 434 435 436 437 438 439 19 
19 6 461 460 12 462 463 464 465 466 467 468 469 470 471 472 473 474 475 13 
40 5 551 552 553 554 555 556 2 563 564 565 566 0 550 549 548 547 546 545 544 543 542 541 540 539 538 537 536 535 534 533 532 531 530 529 528 527 526 525 8 

POINT_DATA 567
SCALARS DY_raw double
LOOKUP_TABLE default
475.418 311.236 524.284 422.469 359.479 425.287 458.012 803.783 371.004 
443.445 394.665 684.419 451.97 250.284 394.395 377.177 291.783 425.443 
331.872 399.76 354.383 742.572 603.755 502.372 287.187 662.136 315.052 
358.65 319.578 334.965 377.39 444.128 357.756 364.687 477.367 314.837 
311.206 377.049 350.466 267.612 304.113 258.818 336.721 275.733 407.078 
264.043 323.084 321.798 279.476 290.805 346.303 383.405 469.439 469.439 
528.249 656.898 500.2 555.283 633.9 475.899 546.471 496.735 509.47 
513.682 528.693 612.921 486.896 418.014 367.085 396.391 331.141 375.642 
337.561 280.696 307.672 307.672 289.284 297.649 322.673 342.59 346.991 
328.667 307.566 297.87 301.901 285.771 262.156 266.855 266.855 279.083 
311.479 300.222 297.944 273.936 338.957 336.039 349.467 313.643 420.867 
510.891 490.761 500.862 437.204 365.959 352.846 350.222 365.493 337.138 
359.781 358.223 315.439 310.739 329.546 313.466 332.81 358.359 365.779 
340.645 346.419 404.628 349.997 388.388 400.036 401.512 411.273 371.845 
323.661 292.419 280.782 253.791 242.498 244.859 248.423 237.51 267.455 
396.435 301.078 368.363 370.009 381.837 358.219 308.155 291.285 303.287 
272.043 261.608 285.958 308.807 281.124 264.041 273.696 289.522 321.737 
328.917 318.131 318.131 275.255 261.429 376.107 365.083 355.443 310.991 
372.873 333.46 333.46 404.521 429.55 506.039 483.55 483.618 425.352 
406.935 430.141 430.141 370.1 437.604 477.125 357.811 381.524 374.813 
365.357 363.239 321.026 403.755 351.887 410.147 367.586 367.586 416.391 
375.098 338.918 387.077 365.131 326.878 308.985 271.553 237.684 217.985 
217.985 221.827 247.955 225.369 236.863 302.017 323.579 375.876 338.512 
338.512 279.189 261.36 273.078 283.31 310.96 355.819 364.375 364.375 
376.368 353.971 353.971 314.97 321.102 321.102 311.33 338.073 347.478 
308.996 295.316 280.638 401.124 370.564 381.848 370.406 456.201 362.758 
321.24 286.025 264.005 282.648 296.76 306.266 294.916 305.286 332.01 
492.911 433.002 440.45 341.569 303.619 347.473 355.508 363.015 363.143 
378.249 385.97 381.48 322.09 336.347 337.109 320.358 322.187 393.456 
401.004 418.442 283.383 245.613 275.45 333.28 463.331 429.61 397.903 
397.355 359.214 449.158 359.693 284.662 281.848 286.834 306.175 334.329 
448.346 398.739 486.228 309.365 305.694 334.67 336.347 389.503 338.555 
394.479 361.344 456.166 404.315 426.945 403.852 446.678 474.521 444.373 
469.594 426.712 457.589 418.779 422.637 399.327 389.336 313.052 313.052 
300.24 232.88 244.839 246.189 227.141 239.92 254.784 297.362 331.192 
340.023 309.569 360.549 360.549 331.996 360.295 394.395 347.348 370.015 
416.225 362.981 319.663 301.213 295.809 374.402 354.965 373.259 389.331 
417.511 391.33 394.422 371.428 350.52 384.065 458.74 591.593 550.925 
514.424 483.013 429.893 448.759 715.826 690.16 511.246 513.611 478.465 
551.781 520.777 477.558 514.992 485.846 493.241 437.915 437.915 326.75 
293.115 275.445 254.486 260.631 362.182 382.715 292.496 289.521 297.033 
285.154 296.398 294.644 277.847 485.146 516.911 503.766 509.82 485.802 
451.308 501.35 485.842 504.441 445.793 445.793 440.644 421.333 421.333 
476.153 388.04 418.331 400.739 374.729 366.24 401.516 445.012 389.209 
424.573 357.941 347.757 368.669 388.499 385.928 324.968 346.293 309.335 
277.965 267.601 267.601 287.683 322.497 333.5 352.298 331.872 334.004 
356.527 314.159 305.783 280.902 292.725 304.916 315.443 338.676 352.616 
352.616 350.145 375.784 375.784 398.595 424.934 385.5 327.811 279.417 
279.417 298.771 291.145 291.145 314.164 317.487 354.679 354.487 445.523 
392.801 382.152 392.304 365.149 384.625 384.625 335.062 364.882 384.228 
313.099 345.116 367.18 367.18 398.735 413.926 431.6 431.434 441.338 
404.349 474.222 544.972 461.003 445.575 444.748 425.564 452.879 376.231 
350.362 352.822 315.11 304.284 335.763 369.178 310.918 281.541 532.832 
623.424 329.79 357.217 310.375 343.837 315.415 328.303 332.216 319.712 
319.864 367.019 407.12 376.925 354.264 356.284 312.279 362.649 344.353 
366.372 428.146 345.399 354.551 424.836 378.107 460.905 460.905 376.58 
376.58 348.708 320.982 341.835 413.793 587.218 475.514 444.256 410.331 
410.331 428.357 514.416 476.618 511.981 549.251 627.728 547.114 547.114 
480.909 480.909 371.603 433.066 390.012 393.485 368.654 370.853 349.568 
399.233 381.547 347.288 462.573 395.502 408.251 395.556 397.338 342.502 
358.775 402.097 327.329 354.206 316.209 336.47 347.829 347.829 359.754 
370.956 419.656 435.4 461.912 507.963 489.848 493.405 494.73 376.328 
363.335 326.785 293.5 289.421 285.766 524.284 569.521 552.223 559.538 

FIELD FieldData 7
DY_minmax 1 567 double
0.439458 0.159187 0.522876 0.349069 0.241542 0.353881 0.409744 1 0.261216 
0.384877 0.301607 0.796237 0.399429 0.055137 0.301145 0.271754 0.125979 0.354146 
0.194413 0.310304 0.232841 0.895509 0.658538 0.485471 0.118133 0.758198 0.165701 
0.240125 0.173427 0.199695 0.272116 0.386044 0.238601 0.250432 0.442785 0.165334 
0.159135 0.271535 0.226156 0.0847179 0.147027 0.0697052 0.202691 0.0985805 0.322795 
0.078625 0.179413 0.177216 0.104971 0.12431 0.219049 0.282385 0.429251 0.429251 
0.529644 0.749258 0.481761 0.575793 0.709998 0.440279 0.56075 0.475848 0.497586 
0.504777 0.530401 0.674185 0.459051 0.341464 0.254525 0.304552 0.193166 0.269133 
0.204126 0.107052 0.153103 0.153103 0.121713 0.135993 0.178711 0.21271 0.220223 
0.188943 0.152922 0.13637 0.143252 0.115716 0.0754031 0.0834247 0.0834247 0.104299 
0.159601 0.140385 0.136496 0.0955127 0.206508 0.201527 0.22445 0.163295 0.346335 
0.500012 0.46565 0.482893 0.374223 0.252603 0.230218 0.225738 0.251808 0.203404 
0.242056 0.239397 0.166362 0.158338 0.190444 0.162993 0.196016 0.239629 0.252296 
0.20939 0.219248 0.318613 0.225355 0.29089 0.310774 0.313295 0.329957 0.262651 
0.180398 0.127064 0.1072 0.061124 0.0418461 0.0458757 0.0519606 0.0333311 0.0844502 
0.304627 0.141846 0.256707 0.259516 0.279707 0.239391 0.153928 0.125128 0.145618 
0.0922809 0.0744687 0.116036 0.155041 0.107783 0.0786212 0.0951027 0.12212 0.177112 
0.189369 0.170957 0.170957 0.0977643 0.074162 0.269926 0.251108 0.234651 0.158769 
0.264406 0.197125 0.197125 0.318431 0.361158 0.49173 0.453339 0.453455 0.353991 
0.322553 0.362166 0.362166 0.259672 0.374906 0.442372 0.238695 0.279173 0.267718 
0.251576 0.24796 0.1759 0.317123 0.228582 0.328035 0.255381 0.255381 0.338694 
0.268204 0.206442 0.288654 0.251189 0.185889 0.155345 0.0914454 0.0336287 0 
0 0.00655851 0.0511609 0.0126052 0.0322269 0.143449 0.180258 0.269533 0.205749 
0.205749 0.104481 0.0740457 0.0940489 0.111516 0.158715 0.235293 0.249899 0.249899 
0.270371 0.232139 0.232139 0.165562 0.17603 0.17603 0.159347 0.205 0.221054 
0.155363 0.132011 0.106954 0.312632 0.260463 0.279727 0.260194 0.406652 0.247139 
0.176264 0.11615 0.0785605 0.110386 0.134476 0.150703 0.131327 0.14903 0.194649 
0.46932 0.367051 0.379764 0.210967 0.146185 0.221046 0.234763 0.247577 0.247795 
0.273582 0.286763 0.279099 0.177715 0.202054 0.203354 0.174759 0.177882 0.299542 
0.312428 0.342196 0.111639 0.0471645 0.0980972 0.196817 0.418825 0.36126 0.307133 
0.306199 0.241089 0.39463 0.241906 0.113824 0.10902 0.117531 0.150547 0.198609 
0.393244 0.308561 0.457912 0.155994 0.149727 0.19919 0.202053 0.292794 0.205823 
0.301289 0.244725 0.406592 0.31808 0.356711 0.317289 0.390397 0.437927 0.386462 
0.429515 0.356312 0.409023 0.342771 0.349356 0.309564 0.29251 0.162287 0.162287 
0.140416 0.0254277 0.0458422 0.0481471 0.0156298 0.0374451 0.062819 0.135504 0.193254 
0.208328 0.156341 0.243369 0.243369 0.194626 0.242934 0.301145 0.220833 0.259527 
0.338412 0.24752 0.173573 0.142077 0.132851 0.267016 0.233836 0.265065 0.292502 
0.340605 0.295913 0.301192 0.261939 0.226248 0.283511 0.410987 0.637777 0.568353 
0.506043 0.452423 0.361742 0.393948 0.849851 0.806038 0.500618 0.504657 0.444659 
0.569815 0.516889 0.443111 0.507013 0.457259 0.469883 0.375438 0.375438 0.185671 
0.128252 0.0980896 0.0623105 0.0727998 0.246155 0.281207 0.127196 0.122118 0.134942 
0.114663 0.133857 0.130864 0.10219 0.456064 0.510289 0.487849 0.498185 0.457184 
0.398301 0.483725 0.457252 0.489003 0.388885 0.388885 0.380096 0.34713 0.34713 
0.440711 0.290296 0.342007 0.311975 0.267574 0.253082 0.313301 0.387553 0.292292 
0.352661 0.238916 0.221531 0.257229 0.29108 0.286691 0.182628 0.219032 0.155942 
0.102391 0.0846996 0.0846996 0.11898 0.178411 0.197193 0.229283 0.194413 0.198053 
0.236502 0.164176 0.149879 0.107405 0.127587 0.148398 0.166369 0.20603 0.229826 
0.229826 0.225607 0.269376 0.269376 0.308316 0.353278 0.285961 0.187482 0.104869 
0.104869 0.137907 0.12489 0.12489 0.164185 0.169858 0.233348 0.23302 0.388424 
0.298424 0.280246 0.297575 0.251221 0.284468 0.284468 0.199859 0.250765 0.283789 
0.162367 0.217023 0.254687 0.254687 0.308554 0.334486 0.364657 0.364374 0.381281 
0.318138 0.437416 0.558192 0.414851 0.388514 0.387101 0.354353 0.400982 0.270137 
0.225978 0.230177 0.165801 0.147319 0.201056 0.258098 0.158644 0.108495 0.537468 
0.692115 0.19086 0.237679 0.157717 0.21484 0.16632 0.188322 0.195002 0.173656 
0.173916 0.254412 0.322869 0.271323 0.232639 0.236088 0.160968 0.246953 0.215721 
0.253308 0.35876 0.217505 0.233129 0.35311 0.273341 0.414682 0.414682 0.270733 
0.270733 0.223155 0.175824 0.211422 0.33426 0.630308 0.439621 0.386262 0.328349 
0.328349 0.359121 0.506031 0.441506 0.501874 0.565496 0.699462 0.561848 0.561848 
0.44883 0.44883 0.262237 0.36716 0.293664 0.299591 0.257203 0.260958 0.224623 
0.309404 0.279213 0.220731 0.41753 0.303035 0.324798 0.303127 0.306169 0.212561 
0.24034 0.314293 0.186659 0.23254 0.167676 0.202263 0.221654 0.221654 0.242011 
0.261133 0.344268 0.371144 0.416402 0.495014 0.464091 0.470162 0.472424 0.270304 
0.248124 0.18573 0.12891 0.121947 0.115708 0.522876 0.600098 0.570569 0.583056 

WidthEq 1 567 double
2.25882 4.32667 2.55917 3.73773 2.75199 2.73165 1.97751 1.73197 3.42482 
3.62518 2.55372 1.91483 3.16049 5.66471 1.88323 4.82019 4.08086 3.03988 
5.51977 4.09532 3.12915 2.54532 1 3.00802 6.84431 1.875 6.66803 
5.27725 4.45489 5.6861 5.28678 3.47504 4.24433 5.1408 2.11631 4.7775 
5.16608 4.28407 3.5102 4.78945 4.85993 5.06764 3.91653 4.29048 4.66893 
6.31035 3.24802 5.22877 4.118 4.08787 3.01434 2.92473 2.54827 2.54827 
2.2254 1.71759 2.14038 1.94712 1.76902 2.32021 2.03102 2.19059 2.1873 
2.25302 2.19051 1.97596 2.53441 2.9236 3.34777 3.17244 3.67591 3.20378 
3.41963 3.74154 3.43045 3.43045 3.36508 3.46353 3.39686 3.43651 3.43115 
3.9057 3.64925 3.86016 4.00553 4.21385 5.05465 5.18929 5.18929 5.30375 
5.13093 5.25916 5.03482 5.20591 4.05688 4.68676 4.69265 3.75046 3.08534 
2.67935 2.89667 2.62351 3.25824 3.73557 3.81046 3.99246 4.2897 4.87196 
4.73854 4.97811 5.29847 5.42081 5.21076 5.48566 4.92339 4.44693 4.10796 
4.13186 3.99272 3.60899 4.85568 4.48208 4.26848 4.34312 4.4581 4.37541 
4.78659 4.22242 4.56615 6.28291 6.33962 5.94619 5.47483 4.7117 4.74148 
5.20253 5.79666 5.02435 5.28557 5.18435 5.33197 5.03855 4.74321 4.63654 
5.11664 5.62324 5.47596 6.01918 4.7046 4.9872 4.97759 5.01673 4.53195 
4.42381 4.50762 4.50762 4.80157 4.69239 3.38179 3.23486 3.15962 3.44664 
3.00066 3.40933 3.40933 2.91425 2.70714 2.2757 2.10496 2.01189 2.0983 
2.29441 2.31458 2.31458 2.92533 2.60593 2.56169 3.27054 3.17971 3.22551 
3.3056 3.43054 3.66414 3.08352 3.38638 2.97338 3.22369 3.22369 3.03468 
3.43989 3.56613 3.34803 3.40907 3.54743 3.67158 3.97964 4.21376 4.53819 
4.53819 4.68278 4.37844 4.39429 3.88492 3.18222 3.24967 3.00741 3.25547 
3.25547 3.5676 3.74068 3.60232 3.13728 3.03243 2.81996 3.02637 3.02637 
3.31712 3.54725 3.54725 3.80942 3.82085 3.82085 3.7102 3.78328 4.0877 
4.1303 4.68797 5.0705 3.30248 3.47799 3.41132 3.79072 3.38197 3.85159 
4.52555 5.36791 6.19884 4.72062 4.73404 5.17803 5.23769 5.01846 4.71274 
2.56013 3.51426 3.40387 4.25143 5.26912 5.28089 4.66044 4.43749 4.55654 
4.50771 4.60027 4.84703 5.09266 5.07474 5.2576 5.20626 4.90322 4.01843 
3.88518 3.57608 4.9259 4.964 4.83854 6.07927 3.44483 3.88388 4.49983 
4.89941 5.10435 4.19662 5.4686 7.84096 8.12044 7.60779 6.34378 5.92073 