# vtk DataFile Version 3.0
vtk output
ASCII
DATASET POLYDATA
POINTS 387 float
0.464774 -0.772916 1.56997 -0.0848006 0.0576641 1.48614 0.0291772 0.0812965 1.28979 
0.157381 0.321764 1.12781 0.0811697 0.000205706 1.07568 0.814497 -0.61679 0.791999 
-0.0670201 -0.611888 0.77388 -0.394075 0.930253 0.0678171 1.40555 1.53767 0.333018 
1.12994 1.65359 -0.121984 -0.695385 -0.296262 -0.323999 0.282419 1.45538 0.0260295 
0.126379 1.32841 0.0702481 -0.162209 1.13005 0.032913 2.35499 -0.859358 -0.428064 
0.0625347 -1.35839 -0.555556 -0.0807442 -1.02206 -0.505807 4.00387 -0.122344 -0.479486 
2.69627 -0.244105 -0.754435 2.74028 0.779451 -0.364943 3.1215 0.676194 -0.575486 
2.82225 0.315205 -0.638589 -0.24666 -0.828942 -0.951531 3.29899 -0.0122747 -0.882298 
2.96823 0.826715 -0.757629 2.75494 1.3733 -1.41885 0.292346 -0.61024 -1.85062 
2.60308 0.907098 -2.17031 2.60664 0.961306 -2.16172 2.61031 1.01551 -2.15313 
2.61579 1.06959 -2.14452 2.63108 1.12185 -2.12848 2.66118 1.17079 -2.09765 
2.67565 1.21615 -2.03772 2.68132 1.25714 -1.94616 2.69493 1.29192 -1.81041 
2.7272 1.32668 -1.63176 0.344265 -0.662687 -1.88024 0.396822 -0.705395 -1.90832 
0.450052 -0.73536 -1.91938 0.502108 -0.780751 -1.91789 0.55385 -0.82844 -1.90178 
0.60661 -0.861851 -1.8909 0.658391 -0.910196 -1.88238 0.709486 -0.967741 -1.86782 
0.760647 -1.02057 -1.83003 0.812747 -1.05783 -1.78225 0.86464 -1.09825 -1.73499 
0.917795 -1.1207 -1.69238 0.971451 -1.13424 -1.64086 1.02534 -1.14417 -1.58876 
1.08005 -1.14301 -1.54241 1.1362 -1.12346 -1.51564 1.19153 -1.11771 -1.49855 
1.24606 -1.12295 -1.4757 1.30016 -1.13217 -1.43849 1.35453 -1.13856 -1.40833 
1.41002 -1.13165 -1.39856 1.4668 -1.10751 -1.40105 1.52228 -1.1006 -1.39128 
1.57665 -1.10699 -1.36112 1.6306 -1.11736 -1.31659 1.68466 -1.12605 -1.2718 
1.73937 -1.12478 -1.22542 1.79533 -1.10562 -1.18372 1.85128 -1.08927 -1.15745 
1.90772 -1.06656 -1.13768 1.96302 -1.05994 -1.11295 2.01785 -1.05687 -1.06629 
2.07323 -1.04287 -1.00291 2.12775 -1.04198 -0.9416 2.18261 -1.03689 -0.894631 
2.23759 -1.00451 -0.858366 2.2831 -0.960939 -0.813047 2.31091 -0.920066 -0.731038 
2.34095 -0.887353 -0.597755 2.83331 1.3492 -1.31846 2.89076 1.29179 -1.21375 
2.92915 1.21928 -1.10681 2.94936 1.14776 -1.01511 2.97344 1.08126 -0.957542 
2.9811 1.0205 -0.929418 2.97868 0.960416 -0.901402 2.97383 0.895861 -0.844152 
2.68846 1.41553 -1.31115 2.62873 1.43427 -1.19699 2.57356 1.46314 -1.07613 
2.51993 1.50337 -0.968464 2.46707 1.54892 -0.894951 2.41435 1.59037 -0.859571 
2.36099 1.61843 -0.848805 2.30801 1.65093 -0.844838 2.25404 1.66838 -0.843253 
2.20023 1.68698 -0.848987 2.14771 1.72282 -0.866981 2.09532 1.75691 -0.907746 
2.04326 1.79609 -0.947713 1.98964 1.81509 -0.968376 1.93442 1.81724 -0.946725 
1.87861 1.81415 -0.903401 1.82281 1.81106 -0.860087 1.76759 1.81321 -0.838436 
1.71333 1.8275 -0.829851 1.66021 1.85788 -0.826218 1.60611 1.87333 -0.824952 
1.55136 1.87892 -0.825246 1.49634 1.88158 -0.818506 1.44031 1.87848 -0.777506 
1.37794 1.85811 -0.656271 1.28489 1.79218 -0.426889 2.66983 -0.241818 -1.13245 
2.62866 -0.212125 -1.43523 2.57946 -0.176777 -1.64448 2.52882 -0.135502 -1.79564 
2.47942 -0.0707862 -1.92153 2.43051 0.00273647 -2.03853 2.38075 0.0657994 -2.14219 
2.32931 0.106896 -2.22684 2.27712 0.13912 -2.29789 2.22281 0.140136 -2.3664 
2.16919 0.153022 -2.42553 2.11628 0.177887 -2.47525 2.06136 0.173434 -2.52212 
2.00694 0.175324 -2.57549 1.95289 0.184119 -2.62027 1.89848 0.191152 -2.64283 
1.84313 0.191291 -2.6215 1.78719 0.186189 -2.57849 1.73061 0.171242 -2.53706 
1.67351 0.144809 -2.51993 1.61771 0.135596 -2.51507 1.56271 0.137388 -2.51597 
1.50784 0.140974 -2.51658 1.45296 0.144668 -2.51718 1.39808 0.148255 -2.51779 
1.34309 0.150155 -2.51867 1.28757 0.144003 -2.52083 1.23156 0.131508 -2.51649 
1.17707 0.144785 -2.49307 1.12112 0.139566 -2.4501 1.0634 0.108438 -2.40372 
1.00604 0.0817325 -2.36414 0.948699 0.0514856 -2.34763 0.892121 0.0304251 -2.34464 
0.835366 0.00542839 -2.34978 0.77959 -0.0046461 -2.35256 0.723821 -0.0146121 -2.35532 
0.667185 -0.0378055 -2.36018 0.611416 -0.0477714 -2.36294 0.555647 -0.0577378 -2.3657 
0.499017 -0.0808321 -2.37054 0.443217 -0.0900355 -2.36568 0.387585 -0.0929479 -2.33733 
0.331326 -0.100456 -2.27971 0.273952 -0.121256 -2.20171 0.215629 -0.157742 -2.13369 
0.157835 -0.188648 -2.07979 0.0993685 -0.232297 -2.04289 0.0406913 -0.278348 -1.99139 
-0.0157791 -0.314843 -1.91582 -0.0637397 -0.370494 -1.8206 -0.0971215 -0.437016 -1.72676 
-0.143644 -0.503297 -1.64067 -0.188549 -0.571727 -1.54238 -0.209852 -0.648704 -1.39992 
-0.224599 -0.735784 -1.19642 2.81339 -0.280864 -0.84301 2.89343 -0.255916 -0.903938 
2.95574 -0.205086 -0.943371 3.01462 -0.158808 -0.986398 3.07211 -0.129992 -1.02565 
3.12947 -0.0995279 -1.04213 3.18555 -0.0810527 -1.01553 3.24211 -0.0504379 -0.957012 
2.70954 -0.369668 -0.694187 2.69985 -0.454627 -0.639293 2.66714 -0.518597 -0.593797 
2.63686 -0.578267 -0.55788 2.58933 -0.637631 -0.515723 2.53173 -0.696319 -0.473667 
2.47247 -0.753733 -0.438958 2.41357 -0.807694 -0.426197 3.01828 0.760591 -0.699439 
3.06908 0.706009 -0.639429 2.90893 0.779055 -0.668882 2.85174 0.764753 -0.567359 
2.7963 0.777141 -0.461607 3.35087 -0.0579531 -0.865862 3.4041 -0.0817074 -0.838452 
3.45757 -0.101855 -0.81047 3.51067 -0.126325 -0.775673 3.56589 -0.119683 -0.743447 
3.62063 -0.119178 -0.704692 3.67497 -0.124909 -0.666936 3.72952 -0.124789 -0.61325 
3.78504 -0.109837 -0.557205 3.83975 -0.108676 -0.510856 3.89427 -0.113914 -0.488013 
3.949 -0.11865 -0.480081 3.24564 0.0306915 -0.779191 3.19291 0.078255 -0.705359 
3.14096 0.131454 -0.668118 3.08936 0.186197 -0.653125 3.03714 0.230341 -0.647311 
2.98318 0.247903 -0.64571 2.92857 0.255619 -0.645668 2.8746 0.273082 -0.644082 
-0.312178 -0.785543 -0.846117 -0.34732 -0.741483 -0.757453 -0.389251 -0.692715 -0.695695 
-0.439233 -0.638766 -0.663296 -0.490487 -0.582027 -0.647981 -0.539877 -0.524254 -0.639966 
-0.579515 -0.468671 -0.621588 -0.604586 -0.417414 -0.572078 -0.645269 -0.363869 -0.470035 
-0.184989 -0.899717 -0.793819 -0.130592 -0.95517 -0.64387 2.78753 0.376629 -0.659687 
2.77809 0.438669 -0.695141 2.77867 0.501195 -0.737816 2.76907 0.562086 -0.765952 
2.73373 0.618913 -0.757785 2.69755 0.668841 -0.705725 2.6876 0.711205 -0.616788 
2.70058 0.747387 -0.498331 2.76178 0.249754 -0.552661 2.70205 0.188893 -0.496006 
2.64503 0.133647 -0.475904 2.60037 0.0810449 -0.47762 2.58289 0.0277741 -0.48636 
2.57771 -0.02518 -0.503221 2.57939 -0.0775519 -0.545166 2.60891 -0.142829 -0.630721 
-0.685806 -0.193923 -0.571718 -0.677853 -0.105265 -0.764626 -0.673751 -0.0326008 -0.870119 
-0.681239 0.0286324 -0.901163 -0.705169 0.0812138 -0.870921 -0.714446 0.129329 -0.818559 
-0.713756 0.176774 -0.766098 -0.71067 0.227536 -0.735563 -0.705501 0.279316 -0.712316 
-0.690523 0.329278 -0.681651 -0.660947 0.373619 -0.621557 -0.64502 0.415399 -0.53965 
-0.627592 0.454761 -0.443106 -0.586594 0.494853 -0.360926 -0.545125 0.538393 -0.300703 
-0.526442 0.586946 -0.262678 -0.509575 0.63562 -0.224672 -0.479743 0.681103 -0.171896 
-0.463456 0.726337 -0.111936 -0.447304 0.771052 -0.0483241 -0.41831 0.817501 0.00459658 
-0.406344 0.869706 0.0542997 1.01344 1.74442 -0.275211 0.937375 1.77947 -0.393068 
0.879374 1.77975 -0.460038 0.825266 1.79218 -0.494428 0.769439 1.78008 -0.505027 
0.713632 1.77077 -0.500183 0.657394 1.75737 -0.480995 0.600168 1.72892 -0.464192 
0.543119 1.70441 -0.439264 0.484993 1.66863 -0.38863 0.425531 1.62971 -0.293522 
0.359391 1.55813 -0.148679 1.27143 1.65431 -0.0513374 1.35345 1.63935 0.0438411 
1.39536 1.60277 0.17572 2.68678 0.820298 -0.262172 2.63222 0.847307 -0.146603 
2.57587 0.848398 -0.0276398 2.51968 0.850638 0.0840049 2.46574 0.882134 0.170292 
2.41307 0.928082 0.228877 2.3605 0.970573 0.25692 2.30715 0.998734 0.267702 
2.25429 1.03314 0.271973 2.20109 1.06235 0.27542 2.14887 1.10649 0.281232 
2.09666 1.15073 0.287061 2.04359 1.18184 0.29081 1.99149 1.22789 0.296925 
1.94009 1.28314 0.296997 1.8883 1.33137 0.288468 1.83558 1.36413 0.269985 
1.78271 1.39843 0.274238 1.72876 1.42113 0.306647 1.67451 1.44423 0.369101 
1.61947 1.45288 0.414287 1.56458 1.45744 0.421328 1.51047 1.46785 0.391804 
1.45728 1.49095 0.356789 -0.601987 -0.282474 -0.16384 -0.536305 -0.307799 -0.013403 
-0.484646 -0.368794 0.116117 -0.434622 -0.428721 0.22478 -0.382527 -0.459863 0.311005 
-0.32951 -0.478206 0.391758 -0.276533 -0.495905 0.480113 -0.22398 -0.517586 0.582829 
-0.171917 -0.547965 0.676676 -0.120212 -0.588788 0.738865 0.116379 -1.37776 -0.557443 
0.168723 -1.41999 -0.562954 0.221231 -1.46096 -0.575765 0.275678 -1.47487 -0.599281 
0.331359 -1.47368 -0.642896 0.387322 -1.46944 -0.693538 0.443136 -1.46624 -0.736834 
0.498478 -1.46649 -0.758185 0.553351 -1.47019 -0.757589 0.607753 -1.47733 -0.735047 
0.661692 -1.48781 -0.690542 0.715592 -1.49764 -0.638425 0.770288 -1.49658 -0.592091 
0.826166 -1.47999 -0.558289 0.880543 -1.48627 -0.52811 0.933746 -1.50798 -0.485384 
0.989278 -1.49293 -0.429323 1.04561 -1.46688 -0.37903 1.10087 -1.45971 -0.346721 
1.15603 -1.45414 -0.314664 1.21184 -1.43602 -0.265628 1.26717 -1.42416 -0.210072 
1.32295 -1.40529 -0.153416 1.37856 -1.39026 -0.10487 1.43512 -1.35965 -0.046353 
1.49232 -1.31908 0.0137509 1.5498 -1.27567 0.0667938 1.60763 -1.23051 0.0976235 
1.66513 -1.193 0.112248 1.72168 -1.17108 0.116902 1.77857 -1.14406 0.122364 
1.83511 -1.12225 0.127001 1.8928 -1.08434 0.126688 1.95079 -1.04414 0.111747 
2.00844 -1.01429 0.0651728 2.06688 -0.975886 -0.00254929 2.12519 -0.94219 -0.0859974 
2.18366 -0.904652 -0.161357 2.24103 -0.883851 -0.239358 2.29791 -0.871856 -0.326255 
-0.110654 1.10309 0.194778 -0.0576683 1.09172 0.32163 -0.00243425 1.10638 0.392619 
0.0520773 1.12834 0.397235 0.0972117 1.17828 0.338542 0.117236 1.24918 0.222604 
-0.140015 1.20271 -0.0827019 -0.0932188 1.27024 -0.176089 -0.0357414 1.32873 -0.218169 
0.0218433 1.37177 -0.187678 0.0762856 1.37889 -0.0803994 -0.220293 1.08246 0.00544385 
-0.279784 1.0306 0.011031 -0.341852 0.97774 0.05014 0.196406 1.38841 0.0486712 
0.342903 1.37133 0.21163 0.398816 1.33789 0.357567 0.454165 1.34513 0.444887 
0.509159 1.34806 0.479028 0.564 1.34512 0.487243 0.618887 1.34164 0.487873 
0.673877 1.33974 0.488753 0.729396 1.34589 0.490909 0.785248 1.35713 0.49387 
0.839148 1.33861 0.492117 0.894122 1.33114 0.467316 0.953745 1.35946 0.373807 
1.02877 1.46321 0.168446 1.18051 1.50386 0.200578 1.23215 1.44168 0.430188 
1.28746 1.44995 0.509397 1.34521 1.48023 0.457699 0.75743 -0.62918 0.893825 
0.700512 -0.64053 0.988325 0.64332 -0.654823 1.08985 0.584855 -0.683558 1.21909 
0.524619 -0.733078 1.38252 0.0668248 0.040546 1.17921 0.13974 0.267343 1.12638 
0.106404 0.210501 1.14674 0.0757165 0.147685 1.20371 -0.0278902 0.0689064 1.39162 

LINES 30 450
11 27 28 29 30 31 32 33 34 35 36 25 
41 26 37 38 39 40 41 42 43 44 45 46 47 48 49 50 51 52 53 54 55 56 57 58 59 60 61 62 63 64 65 66 67 68 69 70 71 72 73 74 75 14 
10 25 76 77 78 79 80 81 82 83 24 
28 25 84 85 86 87 88 89 90 91 92 93 94 95 96 97 98 99 100 101 102 103 104 105 106 107 108 109 9 
58 18 110 111 112 113 114 115 116 117 118 119 120 121 122 123 124 125 126 127 128 129 130 131 132 133 134 135 136 137 138 139 140 141 142 143 144 145 146 147 148 149 150 151 152 153 154 155 156 157 158 159 160 161 162 163 164 165 22 
10 18 166 167 168 169 170 171 172 173 23 
10 18 174 175 176 177 178 179 180 181 14 
4 24 182 183 20 
5 24 184 185 186 19 
14 23 187 188 189 190 191 192 193 194 195 196 197 198 17 
10 23 199 200 201 202 203 204 205 206 21 
11 22 207 208 209 210 211 212 213 214 215 10 
4 22 216 217 16 
10 21 218 219 220 221 222 223 224 225 19 
10 21 226 227 228 229 230 231 232 233 18 
14 9 256 257 258 259 260 261 262 263 264 265 266 267 11 
5 9 268 269 270 8 
26 19 271 272 273 274 275 276 277 278 279 280 281 282 283 284 285 286 287 288 289 290 291 292 293 294 8 
12 10 295 296 297 298 299 300 301 302 303 304 6 
42 15 305 306 307 308 309 310 311 312 313 314 315 316 317 318 319 320 321 322 323 324 325 326 327 328 329 330 331 332 333 334 335 336 337 338 339 340 341 342 343 344 14 
8 13 345 346 347 348 349 350 12 
7 13 351 352 353 354 355 12 
3 12 359 11 
15 11 360 361 362 363 364 365 366 367 368 369 370 371 372 9 
6 9 373 374 375 376 8 
7 5 377 378 379 380 381 0 
3 4 382 2 
5 3 383 384 385 2 
3 2 386 1 
28 10 234 235 236 237 238 239 240 241 242 243 244 245 246 247 248 249 250 251 252 253 254 255 7 358 357 356 13 

POINT_DATA 387
SCALARS DY_raw double
LOOKUP_TABLE default
203.688 191.493 169.517 85.979 191.955 176.27 238.969 247.927 198.676 
275.195 212.25 256.356 279.614 330.71 268.611 137.62 353.518 268.838 
298.238 272.121 323.681 226.151 216.104 244.278 182.219 298.998 228.47 
284.042 284.042 267.815 267.815 260.145 233.591 265.408 256.161 262.004 
267.839 207.057 182.558 179.442 204.327 204.327 208.259 219.334 219.334 
186.211 198.495 217.489 197.077 197.077 192.394 175.887 190.021 188.512 
180.526 169.691 196.179 194.188 194.188 215.709 215.709 219.987 220.502 
227.077 226.594 216.625 216.625 208.351 204.877 226.943 243.082 262.028 
267.291 238.985 233.394 213.488 298.049 258.884 202.779 222.526 202.239 
173.14 190.897 161.56 278.065 234.528 211.17 211.674 231.063 208.243 
214.389 212.299 195.4 188.086 191.244 182.954 168.075 147.11 137.694 
144.527 124.801 121.482 121.482 132.869 132.869 149.752 171.354 177.595 
201.875 208.976 290.966 231.375 192.765 182.204 176.461 189.832 183.186 
202.949 195.674 213.604 256.133 237.065 242.944 217.19 199.627 163.334 
195.999 222.808 194.714 236.965 236.965 236.435 264.688 264.276 236.879 
236.879 219.848 200.263 200.263 218.07 265.695 336.342 326.34 416.869 
367.628 331.759 331.759 282.069 223.093 246.587 201.424 185.364 202.781 
166.611 183.988 206.869 173.558 193.578 186.482 196.608 199.482 171.645 
202.522 178.122 202.259 187.459 316.714 295.903 305.671 274.813 244.158 
202.34 215.669 230.775 307.539 307.664 324.52 282.326 254.047 258.25 
258.25 215.981 221.831 241.968 220.028 256.035 261.889 273.225 274.962 
320.519 320.519 291.523 257.068 245.765 231.834 251.924 264.193 290.129 
245.476 239.039 252.093 286.193 238.195 233.096 233.096 232.852 232.852 
225.275 207.255 204.023 193.921 218.603 207.825 218.348 197.777 216.532 
253.072 308.489 187.904 188.939 183.942 183.942 219.897 224.698 238.363 
238.241 235.658 313.123 276.122 262.262 262.262 285.017 305.028 271.102 
170.469 191.94 180.136 161.713 173.568 154.135 187.982 191.872 162.857 
162.857 136.487 198.807 185.936 154.808 178.204 142.162 143.303 171.489 
184.191 202.517 201.253 201.069 229.412 221.076 227.449 233.001 225.468 
227.212 227.212 180.557 175.67 169.051 194.456 246.176 253.221 240.481 
208.066 251.904 233.023 240.003 245.013 241.636 262.405 205.995 209.019 
201.268 161.473 160.807 165.039 172.905 170.15 179.712 182.381 161.54 
181.689 193.952 203.174 215.784 211.353 201.256 214.311 193.976 193.263 
207.701 215.102 205.074 151.795 152.978 194.736 176.507 176.485 155.861 
155.861 176.834 196.851 196.851 202.939 161.858 135.854 142.577 171.293 
189.279 206.718 206.544 221.31 197.854 219.602 211.485 250.595 273.348 
247.33 287.85 272.967 287.193 272.882 256.968 279.365 279.365 279.178 
277.778 245.221 264.34 290.117 290.117 340.12 330.351 294.626 261.632 
288.343 246.528 318.38 312.883 287.412 305.693 265.728 256.119 245.987 
268.856 294.995 255.594 294.132 279.187 259.186 252.213 211.305 268.15 
268.852 291.948 272.239 268.167 258.276 264.641 264.641 332.864 354.728 
354.728 338.637 309.075 226.99 225.262 291.01 317.873 269.972 174.733 
120.68 148.768 184.874 145.054 180.609 157.606 157.606 180.027 143.345 

FIELD FieldData 7
DY_minmax 1 387 double
0.355734 0.318879 0.252466 0 0.320275 0.272872 0.462358 0.489431 0.340588 
0.57184 0.381611 0.514906 0.585193 0.739613 0.551941 0.156067 0.808542 0.552627 
0.641479 0.56255 0.718371 0.423621 0.393258 0.478404 0.290853 0.643775 0.430628 
0.598577 0.598577 0.549535 0.549535 0.526357 0.446107 0.542262 0.514316 0.531975 
0.549607 0.365916 0.291877 0.282461 0.357665 0.357665 0.369547 0.403019 0.403019 
0.302917 0.340041 0.397444 0.335755 0.335755 0.321601 0.271717 0.314432 0.309869 
0.285737 0.25299 0.333042 0.327025 0.327025 0.392065 0.392065 0.404991 0.406548 
0.42642 0.424959 0.394832 0.394832 0.369828 0.359329 0.426015 0.474788 0.532046 
0.547952 0.462407 0.44551 0.385353 0.640906 0.522544 0.352987 0.412666 0.351354 
0.263415 0.317078 0.228419 0.580513 0.448939 0.378346 0.37987 0.438464 0.3695 
0.388073 0.381759 0.330688 0.308583 0.318127 0.293073 0.248106 0.184748 0.15629 
0.17694 0.117326 0.107295 0.107295 0.141709 0.141709 0.192733 0.258017 0.276876 
0.350257 0.371716 0.619502 0.439408 0.322724 0.290805 0.27345 0.31386 0.293775 
0.3535 0.331515 0.385703 0.51423 0.456603 0.474373 0.39654 0.343461 0.233779 
0.332496 0.413517 0.328614 0.456302 0.456302 0.454702 0.540085 0.538839 0.456042 
0.456042 0.404574 0.345382 0.345382 0.399198 0.543129 0.756634 0.726406 1 
0.851185 0.742785 0.742785 0.592612 0.414379 0.485381 0.348891 0.300356 0.352994 
0.243681 0.296199 0.365348 0.264677 0.32518 0.303735 0.334338 0.343023 0.258895 
0.352211 0.278469 0.351415 0.306687 0.697316 0.634422 0.663942 0.570686 0.478041 
0.351662 0.391942 0.437596 0.669588 0.669964 0.720907 0.593389 0.507926 0.520628 
0.520628 0.392887 0.410565 0.471422 0.405116 0.513934 0.531628 0.565884 0.571137 
0.708816 0.708816 0.621185 0.517057 0.482898 0.440795 0.501512 0.538589 0.616971 
0.482025 0.46257 0.502023 0.605078 0.460021 0.444608 0.444608 0.443872 0.443872 
0.420974 0.366514 0.356748 0.326217 0.40081 0.368237 0.40004 0.33787 0.39455 
0.50498 0.672459 0.308034 0.311162 0.296059 0.296059 0.404719 0.419231 0.460527 
0.460157 0.452352 0.686464 0.57464 0.532753 0.532753 0.601524 0.662 0.559468 
0.255341 0.320229 0.284558 0.22888 0.264709 0.205976 0.30827 0.320024 0.232338 
0.232338 0.152644 0.340983 0.302087 0.208012 0.278719 0.169794 0.173243 0.258424 
0.296811 0.352195 0.348374 0.34782 0.433475 0.408283 0.427544 0.444323 0.421557 
0.426827 0.426827 0.28583 0.271058 0.251055 0.327835 0.484138 0.505431 0.466929 
0.368967 0.501449 0.44439 0.465484 0.480623 0.47042 0.533186 0.362706 0.371847 
0.34842 0.228154 0.226141 0.238932 0.262703 0.254378 0.283275 0.29134 0.228356 
0.289251 0.326311 0.354181 0.392292 0.378899 0.348384 0.387839 0.326383 0.324227 
0.367864 0.390229 0.359923 0.198906 0.20248 0.328681 0.27359 0.273521 0.211195 
0.211195 0.274576 0.335072 0.335072 0.35347 0.229317 0.15073 0.171049 0.257832 
0.312188 0.364891 0.364366 0.40899 0.338105 0.403829 0.379299 0.497495 0.566259 
0.487627 0.610083 0.565105 0.6081 0.564848 0.516755 0.584443 0.584443 0.583877 
0.579646 0.481253 0.539035 0.616935 0.616935 0.768052 0.73853 0.630561 0.53085 
0.611573 0.485203 0.702349 0.685739 0.60876 0.664009 0.543227 0.514189 0.483567 
0.552682 0.631678 0.512603 0.629071 0.583905 0.523457 0.502384 0.378753 0.550547 
0.55267 0.62247 0.562906 0.550598 0.520707 0.539943 0.539943 0.746123 0.8122 
0.8122 0.76357 0.67423 0.426158 0.420934 0.619635 0.700818 0.556054 0.268229 
0.104871 0.189759 0.298876 0.178533 0.285986 0.216467 0.216467 0.284226 0.17337 

WidthEq 1 387 double
1 1.02144 1.73043 1.95592 1.74128 2.30657 1.45014 2.28329 3.61452 
3.2979 3.28682 2.80402 2.38822 2.08877 4.36914 1.92783 1.92901 2.23971 
3.92347 5.88131 3.28524 3.56637 4.70296 3.04328 5.76398 4.67006 1.91731 
3.39558 3.39558 3.89679 3.89679 3.93506 4.02938 3.97508 4.16737 4.39454 
4.79142 2.34393 2.4953 2.7217 2.88772 2.88772 2.89514 2.86749 2.86749 
2.98337 2.89447 2.8399 3.10588 3.10588 3.32021 3.53105 3.46086 3.51929 
3.57359 3.79683 3.58686 3.56771 3.56771 3.44027 3.44027 3.7259 3.7294 
3.78359 3.72432 3.87018 3.87018 3.69989 4.12524 4.03633 3.9188 3.79787 
3.93106 4.10105 4.10807 4.64244 4.30402 3.96799 4.37189 4.40217 4.87774 
5.053 5.15528 5.6073 4.53979 4.62178 4.57901 4.04389 3.76434 3.23914 
3.07245 3.02487 2.78356 2.85905 2.83291 2.81124 2.85378 2.7639 2.77774 
2.95508 3.06647 3.05575 3.05575 2.82999 2.82999 2.73998 2.64025 2.59781 
2.62661 2.95219 4.6328 5.8215 6.36592 6.0479 6.16923 5.52656 5.82466 
5.23259 5.301 4.79179 4.12282 4.28178 4.10649 4.01624 4.18595 4.27472 
3.89716 3.60749 3.77291 3.49739 3.49739 3.81215 3.42686 3.63253 4.08562 
4.08562 4.17318 4.05521 4.05521 3.47232 3.05511 2.68806 2.67365 2.22842 
2.44325 2.55239 2.55239 2.76719 2.95979 2.77277 3.02511 2.95898 2.81766 
3.03485 3.09116 3.0658 3.66015 3.6501 3.90455 3.95384 4.04507 4.09315 
3.78131 4.1924 4.21078 4.62282 3.89676 3.73618 3.37918 3.11505 3.04449 
2.85627 3.18548 3.24609 3.89504 3.60088 3.17123 3.37737 3.93257 4.36 
4.36 5.41847 4.98483 4.74223 5.83444 5.81811 5.98554 3.03475 2.80365 
2.4148 2.4148 2.12291 2.05003 2.0747 2.02235 1.91775 1.87998 2.09213 
2.34262 2.99967 2.94144 2.7098 3.15937 3.44047 3.44047 3.54796 3.54796 
4.35422 3.65611 3.11351 3.04009 2.81363 3.12305 3.24055 3.53599 3.27623 
3.80342 2.77452 3.47958 3.37451 3.40307 3.40307 4.31061 4.98187 5.00946 
6.11436 3.1712 2.82045 2.99577 3.36087 3.36087 3.57897 3.51173 3.60709 
3.38026 2.70584 2.68168 2.7096 2.43764 2.44947 2.28802 2.17936 2.24256 
2.24256 2.4449 2.02588 2.08995 2.01022 1.79091 1.71971 1.53673 1.48696 
1.52053 1.65171 1.81413 1.90421 3.76998 3.66787 3.53515 3.30607 3.21189 
2.81564 2.81564 2.81937 2.78903 2.8476 2.96194 2.72126 3.07967 3.0873 
3.29048 5.76525 5.62114 5.29559 4.09533 3.64187 3.48244 2.93439 2.8603 
2.72929 2.59398 2.64502 2.64936 2.73531 2.74492 2.62029 2.88429 3.08703 
3.25483 3.47373 3.32576 3.40334 3.58764 3.83819 3.50676 3.57786 3.29861 
2.68302 2.52531 2.56092 2.46798 2.35203 2.45377 2.16511 1.74683 2.14529 
2.14529 2.03784 2.10316 2.10316 1.92924 1.99439 1.94369 2.04449 2.04543 
2.28218 2.43485 2.52662 2.50521 2.62389 2.58817 2.80832 2.58169 2.48042 
2.59442 2.20802 2.41765 2.28577 2.48415 2.59627 2.65927 2.65927 2.62953 
2.66626 2.93257 2.87125 2.79266 2.79266 2.90179 3.28997 3.49467 4.04843 
3.95851 4.20389 3.93916 2.06945 1.54019 1.50225 1.56283 1.79256 2.13027 
2.37357 2.23739 2.29367 2.19146 2.40082 2.82337 2.85008 2.58753 2.7008 
2.51297 2.17805 2.0422 1.8447 1.80364 1.91342 1.91342 1.84195 1.75523 
1.75523 1.75311 1.72825 2.04012 2.39716 2.3318 2.37975 2.72761 2.88822 
3.16075 3.07766 2.43391 1.40753 2.13145 2.38036 2.38036 2.23527 1.31067 

rRFP 1 387 double
2570.4 2576.78 2787.79 2854.9 2791.02 2959.26 2704.37 2952.33 3348.53 
3254.3 3251 3107.31 2983.56 2894.44 3573.12 2846.54 2846.89 2939.36 
3440.48 4023.17 3250.53 3334.2 3672.47 3178.52 3988.25 3662.68 2843.41 
3283.37 3283.37 3432.54 3432.54 3443.93 3472 3455.84 3513.07 3580.68 
3698.8 2970.38 3015.43 3082.81 3132.22 3132.22 3134.43 3126.2 3126.2 
3160.69 3134.23 3117.99 3197.15 3197.15 3260.94 3323.69 3302.8 3320.19 
3336.35 3402.79 3340.3 3334.6 3334.6 3296.67 3296.67 3381.68 3382.72 
3398.85 3381.21 3424.62 3424.62 3373.94 3500.53 3474.07 3439.09 3403.1 
3442.74 3493.33 3495.42 3654.46 3553.74 3453.73 3573.94 3582.95 3724.49 
3776.65 3807.09 3941.62 3623.91 3648.31 3635.58 3476.32 3393.12 3236.81 
3187.2 3173.04 3101.22 3123.69 3115.91 3109.46 3122.12 3095.37 3099.49 
3152.27 3185.42 3182.23 3182.23 3115.04 3115.04 3088.25 3058.57 3045.94 
3054.51 3151.41 3651.59 4005.37 4167.4 4072.75 4108.86 3917.59 4006.31 
3830.1 3850.46 3698.91 3499.81 3547.12 3494.95 3468.09 3518.6 3545.02 
3432.65 3346.44 3395.67 3313.67 3313.67 3407.35 3292.68 3353.89 3488.74 
3488.74 3514.8 3479.69 3479.69 3306.21 3182.04 3072.8 3068.51 2936 
2999.94 3032.42 3032.42 3096.35 3153.67 3098.01 3173.11 3153.43 3111.37 
3176.01 3192.77 3185.22 3362.11 3359.12 3434.85 3449.52 3476.67 3490.98 
3398.17 3520.52 3525.99 3648.62 3432.53 3384.74 3278.49 3199.88 3178.88 
3122.86 3220.84 3238.88 3432.02 3344.47 3216.6 3277.95 3443.19 3570.4 
3570.4 3885.42 3756.36 3684.16 4009.22 4004.36 4054.19 3175.98 3107.2 
2991.47 2991.47 2904.6 2882.91 2890.25 2874.67 2843.54 2832.3 2895.44 
2969.99 3165.54 3148.21 3079.27 3213.07 3296.73 3296.73 3328.72 3328.72 
3568.68 3360.91 3199.42 3177.57 3110.17 3202.26 3237.23 3325.16 3247.85 
3404.75 3098.53 3308.37 3277.1 3285.6 3285.6 3555.7 3755.48 3763.69 
4092.53 3216.59 3112.2 3164.38 3273.04 3273.04 3337.95 3317.94 3346.32 
3278.81 3078.09 3070.9 3079.21 2998.27 3001.79 2953.74 2921.4 2940.21 
2940.21 3000.43 2875.72 2894.79 2871.06 2805.79 2784.6 2730.14 2715.33 
2725.32 2764.36 2812.7 2839.51 3394.8 3364.41 3324.91 3256.73 3228.7 
3110.77 3110.77 3111.88 3102.85 3120.28 3154.31 3082.68 3189.35 3191.62 
3252.09 3988.63 3945.74 3848.85 3491.63 3356.67 3309.22 3146.11 3124.06 
3085.07 3044.8 3059.99 3061.28 3086.86 3089.72 3052.63 3131.2 3191.54 
3241.48 3306.63 3262.59 3285.68 3340.53 3415.1 3316.46 3337.62 3254.51 
3071.3 3024.36 3034.96 3007.3 2972.79 3003.07 2917.16 2792.67 2911.26 
2911.26 2879.28 2898.72 2898.72 2846.96 2866.35 2851.26 2881.26 2881.54 
2952 2997.44 3024.75 3018.38 3053.7 3043.07 3108.59 3041.14 3011 
3044.93 2929.93 2992.32 2953.07 3012.11 3045.48 3064.23 3064.23 3055.38 
3066.31 3145.57 3127.32 3103.93 3103.93 3136.41 3251.94 3312.86 3477.67 
3450.91 3523.94 3445.15 2888.69 2731.17 2719.88 2737.91 2806.28 2906.79 
2979.2 2938.67 2955.42 2925 2987.31 3113.07 3121.02 3042.88 3076.59 
3020.69 2921.01 2880.58 2821.8 2809.58 2842.25 2842.25 2820.98 2795.17 
2795.17 2794.54 2787.14 2879.96 2986.22 2966.77 2981.04 3084.57 3132.37 
3213.48 3188.75 2997.16 2691.69 2907.14 2981.22 2981.22 2938.04 2662.86 

rGFP 1 387 double
2823 2814.91 2912.65 2787.48 2953.56 3025.89 2965.85 3185.4 3337.43 
3526.88 3316.94 3338.14 3287.09 3310.09 3792.91 2884.62 3301.25 3221.43 
3789.44 4219.74 3682.68 3425.85 3635.64 3362.72 3669.62 4015.65 3057.36 
3583.8 3583.8 3662.93 3662.93 3643 3560.54 3674.33 3686.83 3770.7 
3902.64 3104.64 3074.85 3107.7 3209.35 3209.35 3222.25 3248.25 3248.25 
3174.85 3193.85 3236.96 3231.41 3231.41 3258.1 3240.38 3276.95 3282.74 
3264.44 3263.6 3322.98 3312.12 3312.12 3361.41 3361.41 3438.96 3441.65 
3478.48 3463.22 3457.69 3457.69 3390.19 3464.48 3535.33 3571.9 3614.46 
3670.05 3599.4 3578.11 3610.42 3902.12 3646.56 3505.84 3598.91 3605.78 
3494.19 3603.44 3525.23 3881.67 3703.25 3586.26 3475.3 3489.11 3293.84 
3278.01 3261.49 3163.22 3157.06 3161.09 3133.64 3098.96 3025.91 3001.79 
3046.4 3002.01 2990.53 2990.53 2995.33 2995.33 3029.63 3071.73 3080.67 
3149.56 3236.25 3967.3 3966.26 3846.44 3721.26 3707.94 3668.43 3686.31 
3681.26 3656.58 3642.86 3675.3 3634.37 3616.96 3491.6 3454.94 3317.52 
3383.15 3423.09 3353.95 3448.07 3448.07 3520.64 3526.36 3579.3 3587.11 
3587.11 3536.78 3431.42 3431.42 3376.52 3431.04 3523.42 3491.83 3548.27 
3517.52 3466.09 3466.09 3399.85 3279.62 3303.04 3228.64 3167.8 3190.68 
3124.95 3188.05 3253.53 3254.56 3325.89 3347.44 3396.67 3426.23 3321.88 
3385.11 3366.07 3470.98 3485.9 3853.47 3724.86 3652.23 3475.37 3362.65 
3197.25 3306.32 3368.43 3817.19 3727.17 3648.44 3572.83 3618.37 3745.28 
3745.28 3789.6 3725.1 3766.78 3903.05 4108.95 4186.86 3448.48 3390.21 
3393.3 3393.3 3238.19 3146.31 3129.2 3088.16 3102.44 3115.99 3226.3 
3194.37 3336.35 3360.83 3394.84 3371.86 3421.27 3421.27 3445.46 3445.46 
3600.21 3377.06 3254.54 3208.85 3234.38 3268.36 3326.88 3318.65 3328.72 
3581.85 3475.22 3273.14 3256.89 3245.28 3245.28 3567.2 3738.73 3813.38 
4076 3366.63 3502.46 3446.51 3500.74 3500.74 3639.38 3690.49 3597.2 
3195.54 3138.67 3102.38 3057.49 3042.41 2996.86 3049.42 3037.47 2984.53 
2984.53 2953.01 3022.07 3007.91 2930.51 2938.46 2863.79 2839.53 2874.31 
2899.38 2953.81 2984.41 3002.19 3484.19 3430.19 3423.38 3389.63 3343.49 
3259.06 3259.06 3128.37 3109.26 3100.7 3195.28 3289.22 3399.15 3361.75 
3303.95 4071.6 3929.17 3890.27 3622.72 3499.32 3533.12 3223.78 3217.17 
3168.63 3038.17 3044.65 3056.56 3092.26 3086.36 3090.21 3145.35 3117.99 
3210.68 3293.05 3295.02 3353.7 3377.57 3391.77 3370.85 3313.33 3256.81 
3176.58 3162.51 3144.49 2993.94 2979.12 3097.15 3001.47 2927.6 2953.68 
2953.68 2979.67 3033.32 3033.32 3010.83 2942.12 2883.37 2910.81 2969.68 
3051.28 3122.64 3141.17 3173.74 3138.46 3187.68 3213.23 3266.27 3297.33 
3260.99 3254.89 3279.25 3275.77 3297.19 3286.47 3362.22 3362.22 3353.42 
3359.94 3338.44 3378.3 3429.51 3429.51 3606.27 3706.16 3648.93 3678.51 
3760.72 3655.69 3873.46 3266.81 3061.98 3078.54 3034.6 3078.42 3143.33 
3257.46 3279.33 3205.56 3263.89 3289.59 3351.09 3338.14 3166.07 3343.53 
3294.93 3255.19 3175.28 3114 3085.15 3125.68 3125.68 3232.43 3241.94 
3241.94 3212.98 3153.47 3082.4 3159.3 3297.89 3375.77 3355.69 3123.98 
3000.75 3077.17 3069.28 2823.48 3004.27 2994.47 2994.47 3021.72 2807.19 

bkstRFP 1 387 double
297.619 303.999 515.009 582.119 518.239 686.479 431.589 679.549 1075.75 
981.519 978.219 834.529 710.779 621.659 1300.34 573.759 574.109 666.579 
1167.7 1750.39 977.749 1061.42 1399.69 905.739 1715.47 1389.9 570.629 
1010.59 1010.59 1159.76 1159.76 1171.15 1199.22 1183.06 1240.29 1307.9 
1426.02 697.599 742.649 810.029 859.439 859.439 861.649 853.419 853.419 
887.909 861.449 845.209 924.369 924.369 988.159 1050.91 1030.02 1047.41 
1063.57 1130.01 1067.52 1061.82 1061.82 1023.89 1023.89 1108.9 1109.94 
1126.07 1108.43 1151.84 1151.84 1101.16 1227.75 1201.29 1166.31 1130.32 
1169.96 1220.55 1222.64 1381.68 1280.96 1180.95 1301.16 1310.17 1451.71 
1503.87 1534.31 1668.84 1351.13 1375.53 1362.8 1203.54 1120.34 964.029 
914.419 900.259 828.439 850.909 843.129 836.679 849.339 822.589 826.709 
879.489 912.639 909.449 909.449 842.259 842.259 815.469 785.789 773.159 
781.729 878.629 1378.81 1732.59 1894.62 1799.97 1836.08 1644.81 1733.53 
1557.32 1577.68 1426.13 1227.03 1274.34 1222.17 1195.31 1245.82 1272.24 
1159.87 1073.66 1122.89 1040.89 1040.89 1134.57 1019.9 1081.11 1215.96 
1215.96 1242.02 1206.91 1206.91 1033.43 909.259 800.019 795.729 663.219 
727.159 759.639 759.639 823.569 880.889 825.229 900.329 880.649 838.589 
903.229 919.989 912.439 1089.33 1086.34 1162.07 1176.74 1203.89 1218.2 
1125.39 1247.74 1253.21 1375.84 1159.75 1111.96 1005.71 927.099 906.099 
850.079 948.059 966.099 1159.24 1071.69 943.819 1005.17 1170.41 1297.62 
1297.62 1612.64 1483.58 1411.38 1736.44 1731.58 1781.41 903.199 834.419 
718.689 718.689 631.819 610.129 617.469 601.889 570.759 559.519 622.659 
697.209 892.759 875.429 806.489 940.289 1023.95 1023.95 1055.94 1055.94 