# vtk DataFile Version 3.0
vtk output
ASCII
DATASET POLYDATA
POINTS 441 float
-0.911278 -0.344698 0.0603101 -0.235277 0.208509 0.463589 0.0127432 0.290182 0.56589 
0.204047 0.628679 0.748503 0.99815 1.28641 1.03547 1.05371 1.4067 1.12049 
-0.648245 -0.386377 -0.248408 -0.0216381 1.16935 0.317135 0.682728 1.29717 0.76933 
0.290698 1.20791 0.401268 -0.428975 0.793186 -0.0362704 -0.519584 -0.420039 -0.740455 
0.511496 1.17578 0.157734 -0.329809 1.13016 -0.102169 2.61559 1.52704 0.89702 
0.516738 -0.64929 -0.970463 2.84145 1.83536 0.635538 2.44113 2.68431 0.839606 
1.13947 -0.514589 -0.961443 3.02002 1.81278 0.457203 -0.207429 1.48832 -0.596101 
2.38302 2.52869 0.542907 2.29088 2.52716 0.294395 -0.260932 0.432253 -1.52556 
1.63085 -0.0515708 -1.40578 3.48419 1.59092 -0.451593 0.109706 1.50964 -1.38199 
2.43277 0.209642 -1.42246 5.89537 0.847792 -0.273405 2.59174 0.635256 -1.29017 
5.91334 0.41485 -0.562366 1.53067 0.341788 -1.85434 0.0875481 1.7363 -1.74577 
5.89092 0.57954 -0.728195 5.73045 0.824241 -0.682379 2.77703 1.42754 -1.30739 
1.30038 2.57224 -1.30254 2.58128 3.09999 -0.955672 2.43064 1.19478 -1.93766 
2.92884 1.42863 -1.70589 2.70404 1.41696 -1.91656 2.61557 3.00786 -1.20181 
3.1945 2.69836 -1.37264 3.03736 2.78845 -1.45785 3.17107 2.56743 -1.72383 
3.35737 2.55191 -2.04484 3.2582 2.55117 -1.8879 3.09179 2.63401 -1.75989 
3.03274 2.68273 -1.75313 3.00696 2.71765 -1.69002 3.01384 2.74962 -1.58309 
3.18273 2.60472 -1.59711 3.18022 2.64286 -1.48509 2.94816 2.84568 -1.42652 
2.87105 2.88904 -1.39965 2.80038 2.92483 -1.37104 2.73612 2.95556 -1.32609 
2.68309 2.9837 -1.26521 3.11686 2.75424 -1.40953 3.25117 2.69473 -1.28387 
3.29642 2.67271 -1.21351 3.33497 2.6248 -1.17124 3.36457 2.57067 -1.15848 
3.39959 2.51759 -1.15196 3.41831 2.4602 -1.14357 3.43123 2.39526 -1.1151 
3.45652 2.32947 -1.07517 3.47876 2.26562 -1.0436 3.51157 2.20988 -1.03053 
3.53051 2.15711 -1.03673 3.5305 2.10212 -1.04923 3.50878 2.03772 -1.04694 
3.49026 1.95836 -0.994713 3.47575 1.85821 -0.875362 3.475 1.7345 -0.684402 
2.78159 1.39456 -1.88008 2.83826 1.375 -1.82805 2.88254 1.38219 -1.76747 
2.64148 1.37609 -1.92745 2.58374 1.32902 -1.91879 2.52781 1.27892 -1.9087 
2.47598 1.24169 -1.91512 2.561 3.04777 -1.22712 2.50921 3.07516 -1.25635 
2.4508 3.10993 -1.26831 2.38894 3.13787 -1.26745 2.32841 3.13719 -1.26057 
2.27228 3.1279 -1.26387 2.21885 3.11761 -1.27496 2.16942 3.10051 -1.29566 
2.12273 3.07098 -1.32024 2.07088 3.06482 -1.33752 2.01424 3.08032 -1.34803 
1.96281 3.07226 -1.3659 1.91898 3.02978 -1.39454 1.87566 2.97374 -1.41993 
1.82643 2.9219 -1.42905 1.76588 2.88758 -1.41026 1.7013 2.86017 -1.38181 
1.64033 2.82776 -1.36242 1.58825 2.78885 -1.3675 1.53693 2.76904 -1.38156 
1.48394 2.75675 -1.39327 1.42724 2.72747 -1.38786 1.36646 2.66041 -1.35686 
2.62362 3.04084 -1.11328 2.60797 3.07106 -1.03265 2.8477 1.43488 -1.5056 
2.99054 1.40274 -1.62405 3.03665 1.38525 -1.55174 3.07876 1.3739 -1.49468 
3.12546 1.35863 -1.45416 3.17551 1.32742 -1.41867 3.21728 1.29144 -1.36278 
3.24543 1.23063 -1.29556 3.24445 1.15215 -1.22701 3.22326 1.07196 -1.17312 
3.17437 0.990176 -1.12783 3.11206 0.916394 -1.0834 3.04481 0.856549 -1.03515 
2.98828 0.792732 -1.0181 2.9431 0.73387 -1.03689 2.90393 0.692821 -1.08005 
2.86125 0.667618 -1.11824 2.81732 0.63689 -1.15068 2.76849 0.620464 -1.17369 
2.71817 0.616436 -1.20065 2.66245 0.621134 -1.23956 2.47452 1.12438 -1.86952 
2.51417 1.05065 -1.78745 2.54585 0.978678 -1.68243 2.56943 0.91638 -1.56243 
2.58575 0.837493 -1.45078 2.58717 0.74356 -1.36276 2.36786 1.23807 -1.93947 
2.30753 1.27034 -1.94473 2.25084 1.27479 -1.95121 2.19278 1.26299 -1.94781 
2.12972 1.24 -1.92548 2.06719 1.20335 -1.89991 2.0118 1.14566 -1.88843 
1.96259 1.09372 -1.89758 1.91453 1.05916 -1.91626 1.87154 1.01287 -1.94609 
1.82868 0.954723 -1.97214 1.78233 0.889842 -1.98534 1.73022 0.817301 -1.9785 
1.67627 0.742249 -1.96492 1.62405 0.6674 -1.95077 1.58333 0.596124 -1.94017 
1.55766 0.523076 -1.91768 1.53226 0.440216 -1.89062 1.3501 2.55012 -1.3703 
1.33959 2.52984 -1.40556 1.30441 2.54249 -1.37816 1.24049 2.60249 -1.30843 
1.18618 2.60746 -1.32222 1.13674 2.59037 -1.34292 1.09094 2.54557 -1.3648 
1.03898 2.49482 -1.3661 0.970155 2.46418 -1.32371 0.88844 2.44683 -1.24724 
0.811904 2.40602 -1.1781 0.750698 2.34086 -1.14651 0.701603 2.27717 -1.15186 
0.656638 2.22856 -1.17493 0.610105 2.19832 -1.19974 0.562327 2.16245 -1.21882 
0.507564 2.13569 -1.2201 0.447386 2.09966 -1.20184 0.390582 2.03755 -1.18421 
0.339867 1.96713 -1.17617 0.304869 1.90358 -1.1856 0.289768 1.84683 -1.20311 
0.271723 1.79203 -1.22895 0.258554 1.7378 -1.25316 0.229371 1.6817 -1.2827 
0.190661 1.62449 -1.3154 0.150236 1.56707 -1.34868 5.74372 0.773101 -0.697802 
5.76641 0.723062 -0.710092 5.80521 0.674906 -0.717025 5.84087 0.626382 -0.725003 
5.65758 0.856946 -0.650098 5.5886 0.894589 -0.631239 5.52192 0.933052 -0.619607 
5.45537 0.959663 -0.604188 5.38808 0.967081 -0.579825 5.31767 0.988655 -0.551024 
5.24906 1.0246 -0.532697 5.18589 1.0697 -0.533947 5.12889 1.12065 -0.555805 
5.08011 1.16812 -0.601191 5.03846 1.19465 -0.66062 4.99489 1.21855 -0.713377 
4.94075 1.25657 -0.739283 4.88274 1.28954 -0.751807 4.82566 1.29581 -0.757716 
4.76472 1.29704 -0.750244 4.69319 1.31238 -0.71592 4.61781 1.32268 -0.668206 
4.5453 1.30869 -0.620604 4.47122 1.29057 -0.566818 4.39208 1.28408 -0.501904 
4.31174 1.27177 -0.431346 4.23056 1.27451 -0.363546 4.15337 1.27044 -0.305368 
4.08439 1.2405 -0.262754 4.0135 1.23044 -0.221407 3.94949 1.22302 -0.201684 
3.89478 1.2298 -0.214916 3.84694 1.26181 -0.257655 3.80377 1.28391 -0.310985 
3.75634 1.30278 -0.350361 3.69599 1.33514 -0.355594 3.63386 1.37945 -0.359574 
3.57553 1.43187 -0.375794 3.52634 1.50143 -0.412997 5.75405 0.856984 -0.589459 
5.78012 0.878753 -0.499966 5.81243 0.876035 -0.417878 5.85049 0.864629 -0.337401 
5.89215 0.497175 -0.652261 5.91682 0.601336 -0.638729 5.94568 0.61302 -0.560416 
5.96381 0.640344 -0.487514 5.9657 0.677645 -0.423743 5.96825 0.714521 -0.351741 
5.95544 0.752726 -0.291858 5.93106 0.798513 -0.257066 0.0986267 1.62297 -1.56388 
2.53283 0.555348 -1.30172 2.48025 0.498484 -1.3137 2.42869 0.473421 -1.32707 
2.38331 0.454271 -1.35284 2.35695 0.416364 -1.39111 2.3606 0.372936 -1.43099 
2.37386 0.324194 -1.45372 2.39431 0.269307 -1.45209 1.58497 0.242256 -1.73062 
1.61402 0.147859 -1.6143 1.62393 0.0519594 -1.50612 1.46034 0.261057 -1.83123 
1.39342 0.201519 -1.79917 1.33062 0.129319 -1.76248 1.26466 0.0409251 -1.70821 
1.19138 -0.0615118 -1.62034 1.1215 -0.175017 -1.49466 1.08418 -0.287562 -1.34285 
1.08543 -0.38144 -1.18926 1.10625 -0.446948 -1.06034 0.0461084 1.422 -1.33495 
-0.00611723 1.34715 -1.32081 -0.0372331 1.28853 -1.34365 -0.0503073 1.23431 -1.36783 
-0.0683505 1.17722 -1.38633 -0.0742497 1.11696 -1.38612 -0.0705118 1.06012 -1.39005 
-0.0743698 1.00468 -1.40383 -0.101629 0.948806 -1.43272 -0.138415 0.891817 -1.46479 
-0.167494 0.835729 -1.49429 -0.182501 0.778991 -1.51178 -0.202568 0.719369 -1.52362 
-0.211503 0.657158 -1.51955 -0.220664 0.593684 -1.51603 -0.245235 0.520096 -1.51803 
3.49413 1.61517 -0.289285 3.45375 1.62169 -0.134524 3.38069 1.61985 0.0104072 
3.32468 1.62628 0.138775 3.28449 1.64446 0.240594 3.24066 1.66908 0.319209 
3.177 1.69599 0.376552 3.11537 1.72771 0.419901 3.07209 1.76847 0.447347 
-0.166054 0.398082 -1.5821 -0.0859407 0.364091 -1.62097 -0.0187263 0.322425 -1.63092 
0.0399268 0.2712 -1.61416 0.0897376 0.21057 -1.57342 0.128192 0.146314 -1.52912 
0.154188 0.0829014 -1.4963 0.196609 0.0259934 -1.47269 0.238934 -0.0309259 -1.44911 
0.2631 -0.0945529 -1.41691 0.290313 -0.160121 -1.37634 0.314584 -0.223736 -1.3441 
0.358729 -0.280443 -1.31992 0.412297 -0.336048 -1.2926 0.460072 -0.399211 -1.2452 
0.490805 -0.47354 -1.17414 0.499422 -0.559629 -1.08108 1.57506 -0.158831 -1.32903 
1.49674 -0.237946 -1.25228 1.41822 -0.314272 -1.16839 1.33742 -0.372694 -1.08047 
1.25933 -0.417736 -1.00518 1.19296 -0.459516 -0.966275 -0.34906 0.323941 -1.47424 
-0.413038 0.227238 -1.41433 -0.454932 0.136125 -1.34321 -0.496746 0.0479266 -1.27916 
-0.521962 -0.0398209 -1.20469 -0.528128 -0.125346 -1.12388 -0.522259 -0.216341 -1.01708 
-0.525222 -0.315252 -0.891197 2.30961 2.53689 0.41004 2.34124 2.53322 0.491565 
2.40806 2.44911 0.626756 2.4301 2.38064 0.67293 2.47638 2.32878 0.68315 
2.53038 2.28698 0.666608 2.5698 2.24119 0.652543 2.61984 2.19435 0.649348 
2.66817 2.14731 0.645582 2.70223 2.10777 0.607734 2.73822 2.07076 0.563191 
2.79224 2.03126 0.539314 2.83456 1.97663 0.555555 2.84546 1.90916 0.590688 
2.40082 2.57199 0.605338 2.40607 2.61383 0.663585 2.42183 2.6523 0.740011 
-0.224511 1.3717 -0.423573 -0.277971 1.25083 -0.263141 2.93463 1.69941 0.578455 
2.85258 1.60474 0.683112 2.77227 1.54723 0.76947 2.69479 1.52197 0.835986 
2.9317 1.82533 0.543027 1.05316 -0.612488 -0.842838 0.969387 -0.676844 -0.743657 
0.894764 -0.715044 -0.681186 0.829397 -0.738843 -0.651617 0.771732 -0.752461 -0.648789 
0.717928 -0.761043 -0.659342 0.667987 -0.764585 -0.683285 0.623816 -0.760467 -0.727272 
0.586971 -0.744468 -0.797467 0.55348 -0.709873 -0.884287 2.75844 1.72251 0.749467 
2.68315 1.61973 0.836634 0.422806 -0.712681 -0.841067 0.340563 -0.772705 -0.748015 
0.273013 -0.831666 -0.699519 0.209661 -0.86459 -0.672804 0.141791 -0.877051 -0.639691 
0.0698894 -0.860007 -0.604823 0.003257 -0.821749 -0.593255 -0.0479308 -0.763339 -0.635222 
-0.0851164 -0.700747 -0.72077 -0.115186 -0.659104 -0.820352 -0.152984 -0.627542 -0.893153 
-0.205618 -0.585106 -0.925159 -0.26648 -0.539187 -0.933635 -0.331502 -0.496495 -0.928123 
-0.400517 -0.461045 -0.901897 -0.468039 -0.436886 -0.838507 2.53573 1.50127 0.970862 
2.45852 1.49729 1.02907 2.38782 1.49767 1.0662 2.31397 1.5123 1.10778 
2.24011 1.52693 1.14938 2.17131 1.52992 1.17984 2.10722 1.54541 1.19177 
2.04806 1.5611 1.18881 1.98732 1.59516 1.18411 1.92451 1.63867 1.18236 
1.86134 1.68376 1.18111 1.80045 1.72978 1.17267 1.74549 1.77151 1.14792 
1.69753 1.80403 1.10533 1.64494 1.84627 1.07327 1.58542 1.87482 1.06684 
1.52583 1.85868 1.07637 1.47194 1.80541 1.08176 1.42272 1.75357 1.07264 
1.37465 1.719 1.05396 1.32971 1.67029 1.03086 1.28203 1.60827 1.0204 
1.22406 1.54428 1.03697 1.14834 1.48527 1.07694 -0.393414 1.04021 -0.0477954 
-0.438154 0.961654 -0.0164983 -0.447702 0.898673 -0.0101668 -0.440215 0.844563 -0.0201737 
-0.29502 1.06714 -0.00926903 -0.258065 1.0394 0.0647269 -0.215977 1.04472 0.111664 
-0.171997 1.07525 0.144047 -0.128019 1.09995 0.178329 -0.0893525 1.12799 0.224635 
-0.0564481 1.14739 0.278329 0.405695 1.18421 0.280681 -0.575575 -0.426806 -0.565129 
-0.620658 -0.418698 -0.402926 0.205472 1.18643 0.406842 0.146558 1.15464 0.390186 
0.096864 1.14375 0.360814 0.0391298 1.15144 0.340225 0.61049 1.30697 0.72485 
0.55101 1.29488 0.703137 0.493779 1.26582 0.705747 0.432028 1.26289 0.716887 
0.381834 1.25656 0.694555 0.347961 1.2411 0.62431 0.319221 1.23395 0.523138 
0.771926 1.23994 0.737993 0.845245 1.19166 0.72457 0.90572 1.14297 0.737358 
0.954747 1.09827 0.781129 0.992646 1.0865 0.846192 1.02031 1.11536 0.918917 
1.02943 1.17999 0.981016 -0.609079 -0.327357 -0.176642 -0.58604 -0.279027 -0.110808 
-0.579552 -0.235632 -0.0543401 -0.555394 -0.186196 -0.00690213 -0.520548 -0.134023 0.0391933 
-0.485914 -0.0841658 0.0925453 -0.45697 -0.0418543 0.166008 -0.429959 -0.00206573 0.246176 
-0.401014 0.0402459 0.319639 -0.366255 0.0900125 0.372993 -0.327236 0.143013 0.412403 
-0.283848 0.187496 0.441665 0.985186 1.38987 1.08092 0.876545 1.34857 1.00855 
0.806975 1.34909 0.972671 0.759743 1.34143 0.929621 0.719374 1.33149 0.863864 
1.06519 1.33253 1.08242 -0.778472 -0.386146 -0.108269 -0.867247 -0.373818 -0.00626825 
0.213363 0.577077 0.731767 0.211517 0.524277 0.711359 0.183756 0.470192 0.68299 
0.14269 0.424131 0.653804 0.0966809 0.391998 0.628434 0.0536932 0.345704 0.598605 

LINES 49 546
3 45 46 44 
6 44 47 48 49 50 43 
4 44 51 52 42 
7 43 53 54 55 56 57 41 
3 43 58 42 
18 42 59 60 61 62 63 64 65 66 67 68 69 70 71 72 73 74 25 
25 41 82 83 84 85 86 87 88 89 90 91 92 93 94 95 96 97 98 99 100 101 102 103 104 36 
4 41 105 106 37 
3 39 107 35 
22 39 108 109 110 111 112 113 114 115 116 117 118 119 120 121 122 123 124 125 126 127 29 
8 38 128 129 130 131 132 133 29 
20 38 134 135 136 137 138 139 140 141 142 143 144 145 146 147 148 149 150 151 31 
5 36 152 153 154 36 
26 36 155 156 157 158 159 160 161 162 163 164 165 166 167 168 169 170 171 172 173 174 175 176 177 178 26 
6 34 179 180 181 182 33 
37 34 183 184 185 186 187 188 189 190 191 192 193 194 195 196 197 198 199 200 201 202 203 204 205 206 207 208 209 210 211 212 213 214 215 216 217 25 
3 33 222 30 
3 32 230 26 
10 29 231 232 233 234 235 236 237 238 27 
11 31 242 243 244 245 246 247 248 249 250 18 
18 26 251 252 253 254 255 256 257 258 259 260 261 262 263 264 265 266 23 
11 25 267 268 269 270 271 272 273 274 275 19 
19 23 276 277 278 279 280 281 282 283 284 285 286 287 288 289 290 291 292 15 
10 23 299 300 301 302 303 304 305 306 11 
4 22 307 308 21 
14 21 309 310 311 312 313 314 315 316 317 318 319 320 16 
5 21 321 322 323 17 
4 20 324 325 13 
6 19 326 327 328 329 14 
3 19 330 16 
12 18 331 332 333 334 335 336 337 338 339 340 15 
4 16 341 342 14 
18 15 343 344 345 346 347 348 349 350 351 352 353 354 355 356 357 358 11 
26 14 359 360 361 362 363 364 365 366 367 368 369 370 371 372 373 374 375 376 377 378 379 380 381 382 5 
6 13 383 384 385 386 10 
3 12 394 9 
4 11 395 396 6 
9 8 401 402 403 404 405 406 407 9 
9 8 408 409 410 411 412 413 414 4 
14 6 415 416 417 418 419 420 421 422 423 424 425 426 1 
3 5 427 4 
6 4 428 429 430 431 8 
3 5 432 4 
4 6 433 434 0 
8 3 435 436 437 438 439 440 2 
10 39 77 76 75 40 78 79 80 81 38 
14 34 218 219 220 221 28 229 228 227 226 225 224 223 33 
12 31 239 240 241 24 293 294 295 296 297 298 18 
14 13 387 388 389 390 391 392 393 7 400 399 398 397 9 

POINT_DATA 441
SCALARS DY_raw double
LOOKUP_TABLE default
55.9872 29.9138 22.7716 36.6949 20.4915 25.201 37.0616 32.3025 30.4942 
38.963 61.3842 30.1016 39.4829 36.1287 24.2419 32.1695 24.5796 22.2973 
26.6276 27.729 34.9946 23.1175 22.9101 26.6451 26.8345 24.9351 25.2588 
59.3288 21.4954 27.4088 72.7698 22.8236 0 24.4837 31.3185 60.9168 
51.8803 48.8847 28.1704 27.5039 26.9671 36.6854 22.723 18.9081 41.9986 
1.12 26.9142 30.3856 28.4316 22.2905 22.1539 30.9728 22.1529 24.0697 
29.5328 31.3843 31.5362 31.2165 21.5009 25.3234 26.1182 26.7384 25.4304 
24.8299 24.3263 26.1917 26.2338 22.2212 24.2595 23.1915 23.1915 24.9768 
27.2041 34.0383 27.7718 27.6426 30.7608 29.8621 26.9081 31.4477 32.3 
28.7748 32.4987 32.4251 28.072 28.8221 41.5486 41.5486 40.4173 39.8792 
39.8792 39.8022 37.4314 37.4314 33.7776 33.7776 39.6233 36.8292 47.7009 
41.1423 40.2625 40.2625 42.0062 43.7548 52.1338 42.192 40.0925 45.6458 
34.42 38.5993 36.1581 35.5221 29.8491 27.5335 30.7627 32.3865 39.4204 
43.7424 40.5017 34.5128 34.1997 36.6372 31.6979 34.5107 33.0358 31.2501 
30.9597 28.6265 37.6616 36.1296 37.5628 36.1395 29.1102 25.8855 28.1704 
25.4099 25.4099 25.98 26.1139 28.4456 28.786 26.9648 29.0778 28.5321 
27.901 27.901 27.0055 27.6247 28.331 25.102 24.838 23.911 50.8488 
47.789 46.2438 46.3673 38.0855 29.1207 29.1207 25.4023 25.9514 32.9774 
33.178 37.5953 42.4029 36.5957 32.2702 32.2702 24.9576 26.3618 26.8208 
26.4656 25.6033 28.9198 28.9198 28.6561 27.2865 29.7158 25.5294 32.4064 
32.4064 33.4707 25.6333 26.7607 33.3777 36.624 31.1124 31.0734 35.6925 
29.2616 29.2616 27.4659 26.9506 19.9396 19.4781 20.453 17.0009 14.1763 
15.5805 18.5867 22.4007 24.5318 23.161 25.0556 24.5091 30.3803 39.3572 
40.6032 42.0249 35.3456 38.6012 50.3269 31.6383 30.418 29.1615 25.8918 
25.7821 24.7136 26.0786 20.9238 20.6258 21.08 34.1965 28.5515 29.1983 
26.3703 24.107 24.7752 23.1572 24.4936 18.6987 23.986 26.2127 26.921 
28.5706 30.7308 36.056 36.056 52.6998 23.2275 22.1256 21.6137 25.4542 
29.7977 27.5611 24.4835 25.0245 25.7444 27.7645 29.4743 25.1646 28.2187 
23.2911 23.7752 24.5241 22.3241 25.4214 26.9384 28.2032 29.4852 24.8124 
23.6675 24.0507 24.2981 24.1833 25.8109 24.4356 26.3796 25.037 28.2745 
39.3808 34.7911 45.5855 41.5237 27.8359 30.5145 21.837 24.2992 20.4831 
22.3316 19.8947 24.7044 28.1808 29.6542 33.2023 30.7885 33.4325 32.1952 
27.5715 26.0055 29.5119 27.9903 31.0013 30.8682 35.2473 38.5229 37.9158 
30.7316 24.0385 28.8905 31.8269 34.824 27.634 29.1817 23.6091 25.5778 
25.5006 28.6465 29.3158 35.8845 34.8201 29.3789 34.235 39.3215 39.3215 
38.1514 29.7688 33.2645 27.4286 27.9799 24.6163 25.9955 20.7039 19.6823 
21.8736 17.0477 32.3563 26.7812 28.1875 26.4108 27.5953 24.8607 27.1628 
31.3764 37.4498 37.9744 38.9549 38.5527 38.5527 36.8952 33.1374 27.9996 
25.0446 37.9444 36.49 35.2128 32.5305 35.6013 33.5932 33.5932 30.2363 
30.6962 28.8004 30.127 34.5904 31.38 33.2633 29.2413 29.0002 24.5377 
25.5214 26.481 25.5851 34.5389 31.3623 31.3623 34.313 33.4159 33.4656 
36.5437 30.0145 27.2329 29.1705 23.6412 22.3989 29.6391 37.5516 38.8915 
37.3186 34.5516 28.0797 24.2659 21.3487 40.8696 47.0949 47.0949 61.3842 
35.309 33.3475 34.6905 39.0275 33.8932 34.1893 35.661 30.2678 25.1808 
32.2686 34.8584 35.8853 29.5737 30.5993 36.0483 45.1926 52.5331 66.6558 
69.9269 64.429 57.0647 28.6589 31.1768 29.1066 37.9267 39.6325 25.5323 
20.9907 36.8408 38.9619 33.9267 36.0514 29.101 25.8675 29.755 37.6767 
37.6686 37.6686 29.4007 28.4014 26.4025 24.8417 27.2746 28.2838 27.9132 
22.878 48.4166 56.0658 26.7843 26.7843 24.6518 22.18 20.4404 19.8653 

FIELD FieldData 7
DY_minmax 1 441 double
0.769374 0.411074 0.312926 0.504261 0.281594 0.346311 0.509299 0.4439 0.41905 
0.535428 0.843539 0.413654 0.542572 0.49648 0.333131 0.442071 0.337772 0.306408 
0.365915 0.381052 0.480895 0.31768 0.31483 0.366155 0.368759 0.342658 0.347105 
0.815294 0.295389 0.376651 1 0.313641 0 0.336454 0.430377 0.837117 
0.712937 0.671772 0.387117 0.377958 0.370581 0.504129 0.312258 0.259835 0.577143 
0.015391 0.369853 0.417558 0.390706 0.306315 0.304439 0.425627 0.304424 0.330765 
0.405838 0.431282 0.43337 0.428976 0.295464 0.347993 0.358915 0.367439 0.349464 
0.341212 0.334291 0.359925 0.360504 0.305363 0.333373 0.318697 0.318697 0.34323 
0.373838 0.467753 0.381639 0.379864 0.422714 0.410363 0.36977 0.432154 0.443865 
0.395422 0.446596 0.445584 0.385764 0.396073 0.57096 0.57096 0.555412 0.548018 
0.548018 0.54696 0.514381 0.514381 0.46417 0.46417 0.544503 0.506106 0.655504 
0.565375 0.553286 0.553286 0.577247 0.601276 0.71642 0.579801 0.55095 0.627263 
0.472998 0.53043 0.496884 0.488143 0.410185 0.378365 0.42274 0.445053 0.541713 
0.601106 0.556573 0.474274 0.469972 0.503467 0.435591 0.474245 0.453977 0.429438 
0.425447 0.393384 0.517545 0.496491 0.516186 0.496627 0.400031 0.355718 0.387117 
0.349181 0.349181 0.357016 0.358856 0.390898 0.395576 0.370549 0.399587 0.392087 
0.383415 0.383415 0.371108 0.379618 0.389323 0.344951 0.341324 0.328584 0.698762 
0.656714 0.63548 0.637178 0.52337 0.400176 0.400176 0.349078 0.356623 0.453175 
0.45593 0.516633 0.582699 0.502896 0.443456 0.443456 0.342967 0.362263 0.36857 
0.363689 0.35184 0.397415 0.397415 0.393791 0.37497 0.408354 0.350824 0.445328 
0.445328 0.459953 0.352252 0.367744 0.458675 0.503286 0.427545 0.427009 0.490484 
0.402112 0.402112 0.377435 0.370355 0.274009 0.267667 0.281065 0.233626 0.19481 
0.214106 0.255418 0.307829 0.337115 0.318278 0.344314 0.336804 0.417484 0.540846 
0.557968 0.577505 0.485717 0.530457 0.691591 0.434772 0.418003 0.400736 0.355804 
0.354297 0.339614 0.358371 0.287534 0.283439 0.28968 0.469926 0.392353 0.401243 
0.362379 0.331278 0.340461 0.318226 0.33659 0.256957 0.329615 0.360214 0.369947 
0.392616 0.422302 0.495481 0.495481 0.724199 0.319192 0.304049 0.297015 0.34979 
0.409479 0.378743 0.336452 0.343886 0.353778 0.381538 0.405035 0.34581 0.38778 
0.320066 0.326718 0.33701 0.306777 0.349341 0.370186 0.387567 0.405184 0.340972 
0.325237 0.330504 0.333903 0.332326 0.354692 0.335793 0.362507 0.344057 0.388547 
0.541169 0.478098 0.626434 0.570617 0.38252 0.419329 0.300083 0.333919 0.281479 
0.306879 0.273392 0.339487 0.38726 0.407506 0.456264 0.423095 0.459429 0.442425 
0.378887 0.357366 0.405551 0.384642 0.426019 0.42419 0.484367 0.529381 0.521037 
0.422313 0.330336 0.397013 0.437365 0.47855 0.379746 0.401014 0.324435 0.351489 
0.350429 0.393659 0.402856 0.493123 0.478496 0.403723 0.470456 0.540355 0.540355 
0.524276 0.409082 0.457119 0.376923 0.384498 0.338276 0.357229 0.284513 0.270473 
0.300587 0.234268 0.444639 0.368026 0.387352 0.362936 0.379214 0.341635 0.37327 
0.431174 0.514634 0.521843 0.535317 0.529789 0.529789 0.507013 0.455373 0.38477 
0.344162 0.521431 0.501444 0.483893 0.447033 0.489231 0.461636 0.461636 0.415507 
0.421826 0.395773 0.414004 0.475339 0.431223 0.457103 0.401833 0.39852 0.337197 
0.350714 0.363901 0.351589 0.474632 0.430979 0.430979 0.471528 0.4592 0.459884 
0.502182 0.412458 0.374233 0.40086 0.324876 0.307804 0.407299 0.516033 0.534446 
0.512831 0.474807 0.38587 0.333461 0.293374 0.561629 0.647176 0.647176 0.843539 
0.485215 0.45826 0.476715 0.536315 0.465759 0.469828 0.490052 0.415938 0.346033 
0.443435 0.479022 0.493135 0.406401 0.420495 0.495375 0.621035 0.721908 0.915982 
0.960932 0.885381 0.784182 0.393829 0.428431 0.399982 0.521188 0.544629 0.350864 
0.288453 0.506265 0.535413 0.466219 0.495417 0.399905 0.35547 0.408892 0.517752 
0.51764 0.51764 0.404024 0.390291 0.362822 0.341373 0.374807 0.388675 0.383582 
0.314388 0.665339 0.770454 0.368069 0.368069 0.338764 0.304797 0.280891 0.272989 

WidthEq 1 441 double
3.63726 6.50101 6.00705 3.9673 11.657 10.9996 13.1063 7.45545 8.22746 
6.27364 5.37517 22.3105 1.73544 7.02626 18.5386 20.35 16.5072 4.4714 
26.8778 16.3089 3.26536 17.11 3.82233 19.333 28.4614 25.057 12.0893 
7.93443 17.3656 23.2513 4.00784 23.3486 1.8196 16.7769 12.4814 6.1062 
8.88314 6.28069 17.7062 18.8228 15.9009 14.2449 18.8549 19.6847 5.10946 
1 3.67428 6.44417 6.47237 12.1029 17.2276 8.94527 16.8068 17.3849 
15.0006 13.8748 14.5547 15.3038 19.3978 17.8926 17.2761 16.5724 16.1511 
14.6662 15.6686 14.5485 13.9854 16.1899 16.1454 16.5336 16.5336 17.4726 
18.0032 17.0752 21.4909 16.3574 16.6244 18.2931 15.2527 14.382 14.9257 
16.8804 12.7802 7.30607 7.75685 5.40557 5.65145 5.65145 7.96219 8.76373 
8.76373 9.01533 9.37314 9.37314 9.87459 9.87459 10.6629 11.9875 10.3386 
12.2801 13.1614 13.1614 11.301 11.2036 9.18234 11.8487 7.46823 11.5288 
16.9782 15.7612 16.6447 17.3078 18.6897 18.9699 17.4559 16.564 14.0219 
12.2739 12.0496 11.7716 11.2697 10.9714 13.2883 12.3457 14.4807 18.3046 
20.0486 22.5665 14.348 15.1535 15.4408 16.9787 20.6611 23.342 17.7062 
19.4767 19.4767 19.8772 18.6923 17.4224 19.1951 19.7494 20.1064 18.6972 
17.8732 17.8732 17.7309 17.3334 16.705 18.4451 19.3167 21.1802 7.99921 
6.95223 9.49079 10.9484 12.4982 13.6641 13.6641 14.1511 12.2263 12.4167 
12.017 12.3805 11.0308 12.9895 14.237 14.237 14.8195 15.1006 15.4761 
15.6713 15.4593 12.8058 12.8058 10.9401 10.8559 10.1421 11.5314 14.203 
14.203 14.3352 16.4446 12.1981 11.7914 11.2869 12.6053 13.6712 13.1636 
13.9435 13.9435 14.3877 14.7314 16.542 18.1984 19.6137 21.4688 21.3759 
21.4878 18.5826 17.4008 17.7146 17.4004 15.6272 17.1426 14.6503 10.796 
10.8277 8.56896 8.53856 7.37878 6.19609 8.21821 10.2597 17.377 19.8561 
24.794 26.5574 14.8838 15.1927 15.8321 15.4113 10.833 15.9123 15.1231 
15.0196 14.7032 16.5314 17.607 16.3402 6.73896 25.105 24.3344 23.2521 
22.2197 19.4238 16.4658 16.4658 8.68485 24.9204 23.6342 25.7656 23.4465 
22.6678 23.2883 26.4067 28.4385 30.6378 28.1957 25.0896 28.413 12.2316 
13.2733 11.8258 10.7184 13.446 13.4324 13.3839 14.1502 13.0988 14.4238 
15.302 13.699 16.6861 16.8645 19.3 21.0701 23.5042 21.2278 18.8364 
14.1709 15.3364 12.871 14.0202 18.016 16.8029 21.8822 20.1006 20.2293 
18.1107 20.4743 19.3626 19.085 18.3323 19.018 19.5992 19.7481 20.7475 
20.5034 19.4674 18.6386 19.5996 19.3379 26.6676 21.5358 19.2013 18.6769 
21.9699 29.4357 18.4597 18.2226 15.05 14.7076 14.6856 16.7808 18.3182 
20.703 5.43906 9.3987 13.2001 13.0781 14.4829 12.4449 10.4703 10.4703 
9.92571 11.6336 10.7541 12.7141 12.737 13.8148 16.6671 17.1272 9.45774 
6.0022 7.99172 16.7544 17.8353 17.9349 18.6628 16.6028 26.601 23.5042 
20.2439 16.2062 16.0635 15.1526 15.9418 15.9418 17.6017 20.154 15.3659 
18.6954 18.2261 17.8622 18.4575 18.1503 16.0031 17.4303 17.4303 20.2478 
23.8267 24.4657 25.1469 23.1614 24.3974 23.5328 23.5831 23.5284 19.9248 
19.2 16.7376 16.6843 12.5815 11.8923 11.8923 10.3998 10.2478 10.3518 
9.97682 11.5164 12.5 11.5535 12.4008 10.7546 9.8107 10.243 9.71111 
9.99929 10.1526 9.97947 10.0491 11.0864 9.43879 8.57821 8.57821 5.37517 
9.17925 8.27858 7.32766 6.89539 6.97515 6.83723 6.4499 4.91645 21.5724 
16.0837 7.16815 7.78285 8.6117 8.1054 7.94545 7.05094 6.41729 5.42848 
5.01824 5.25928 5.54966 7.67093 6.26395 5.43553 3.54605 3.83599 6.00573 
8.90253 12.7864 11.3596 10.9863 10.072 10.8625 9.82392 9.87195 6.91037 
7.0223 7.0223 7.48145 7.00071 11.85 11.4151 10.6986 9.88341 9.9376 
11.5561 8.94219 6.09694 7.8322 7.8322 9.02855 8.70424 7.93135 7.13554 

rRFP 1 441 double
2368.02 2433.01 2421.8 2375.51 2550.02 2535.1 2582.91 2454.67 2472.19 
2427.85 2407.46 2791.79 2324.86 2444.93 2706.19 2747.3 2660.09 2386.95 
2895.44 2655.59 2359.58 2673.77 2372.22 2724.22 2931.38 2854.12 2559.83 
2465.54 2679.57 2813.14 2376.43 2815.35 2326.77 2666.21 2568.73 2424.05 
2487.07 2428.01 2687.3 2712.64 2646.33 2608.75 2713.37 2732.2 2401.43 
2308.17 2368.86 2431.72 2432.36 2560.14 2676.44 2488.48 2666.89 2680.01 
2625.9 2600.35 2615.78 2632.78 2725.69 2691.53 2677.54 2661.57 2652.01 
2618.31 2641.06 2615.64 2602.86 2652.89 2651.88 2660.69 2660.69 2682 
2694.04 2672.98 2773.19 2656.69 2662.75 2700.62 2631.62 2611.86 2624.2 
2668.56 2575.51 2451.28 2461.51 2408.15 2413.73 2413.73 2466.17 2484.36 
2484.36 2490.07 2498.19 2498.19 2509.57 2509.57 2527.46 2557.52 2520.1 
2564.16 2584.16 2584.16 2541.94 2539.73 2493.86 2554.37 2454.96 2547.11 
2670.78 2643.16 2663.21 2678.26 2709.62 2715.98 2681.62 2661.38 2603.69 
2564.02 2558.93 2552.62 2541.23 2534.46 2587.04 2565.65 2614.1 2700.88 
2740.46 2797.6 2611.09 2629.37 2635.89 2670.79 2754.36 2815.2 2687.3 
2727.48 2727.48 2736.57 2709.68 2680.86 2721.09 2733.67 2741.77 2709.79 
2691.09 2691.09 2687.86 2678.84 2664.58 2704.07 2723.85 2766.14 2467.01 
2443.25 2500.86 2533.94 2569.11 2595.57 2595.57 2606.62 2562.94 2567.26 
2558.19 2566.44 2535.81 2580.26 2608.57 2608.57 2621.79 2628.17 2636.69 
2641.12 2636.31 2576.09 2576.09 2533.75 2531.84 2515.64 2547.17 2607.8 
2607.8 2610.8 2658.67 2562.3 2553.07 2541.62 2571.54 2595.73 2584.21 
2601.91 2601.91 2611.99 2619.79 2660.88 2698.47 2730.59 2772.69 2770.58 
2773.12 2707.19 2680.37 2687.49 2680.36 2640.12 2674.51 2617.95 2530.48 
2531.2 2479.94 2479.25 2452.93 2426.09 2471.98 2518.31 2679.83 2736.09 
2848.15 2888.17 2623.25 2630.26 2644.77 2635.22 2531.32 2646.59 2628.68 
2626.33 2619.15 2660.64 2685.05 2656.3 2438.41 2855.21 2837.72 2813.16 
2789.73 2726.28 2659.15 2659.15 2482.57 2851.02 2821.83 2870.2 2817.57 
2799.9 2813.98 2884.75 2930.86 2980.77 2925.35 2854.86 2930.28 2563.06 
2586.7 2553.85 2528.72 2590.62 2590.31 2589.21 2606.6 2582.74 2612.81 
2632.74 2596.36 2664.15 2668.2 2723.47 2763.64 2818.88 2767.22 2712.95 
2607.07 2633.52 2577.57 2603.65 2694.33 2666.8 2782.07 2741.64 2744.56 
2696.48 2750.12 2724.89 2718.59 2701.51 2717.07 2730.26 2733.64 2756.32 
2750.78 2727.27 2708.46 2730.27 2724.33 2890.67 2774.21 2721.23 2709.33 
2784.06 2953.49 2704.4 2699.02 2627.02 2619.25 2618.75 2666.3 2701.19 
2755.31 2408.91 2498.77 2585.04 2582.27 2614.15 2567.9 2523.09 2523.09 
2510.73 2549.49 2529.53 2574.01 2574.53 2598.99 2663.72 2674.16 2500.11 
2421.69 2466.84 2665.7 2690.23 2692.49 2709.01 2662.26 2889.16 2818.88 
2744.89 2653.26 2650.02 2629.35 2647.26 2647.26 2684.93 2742.85 2634.19 
2709.75 2699.1 2690.84 2704.35 2697.38 2648.65 2681.04 2681.04 2744.98 
2826.2 2840.7 2856.16 2811.1 2839.15 2819.53 2820.67 2819.43 2737.65 
2721.2 2665.32 2664.11 2571 2555.36 2555.36 2521.49 2518.04 2520.4 
2511.89 2546.83 2569.15 2547.67 2566.9 2529.54 2508.12 2517.93 2505.86 
2512.4 2515.88 2511.95 2513.53 2537.07 2499.68 2480.15 2480.15 2407.46 
2493.79 2473.35 2451.77 2441.96 2443.77 2440.64 2431.85 2397.05 2775.04 
2650.48 2448.15 2462.1 2480.91 2469.42 2465.79 2445.49 2431.11 2408.67 
2399.36 2404.83 2411.42 2459.56 2427.63 2408.83 2365.95 2372.53 2421.77 
2487.51 2575.65 2543.27 2534.8 2514.05 2531.99 2508.42 2509.51 2442.3 
2444.84 2444.84 2455.26 2444.35 2554.4 2544.53 2528.27 2509.77 2511 
2547.73 2488.41 2423.84 2463.22 2463.22 2490.37 2483.01 2465.47 2447.41 

rGFP 1 441 double
2625.21 2616.04 2558.36 2567.15 2660.44 2698.77 2907.31 2662.4 2672.46 
2666.01 2751.52 3093.15 2490.09 2675.42 2870.98 3076.22 2827.31 2521.27 
3137.26 2873.8 2535.84 2817.11 2509.14 2936.7 3185.32 3046.37 2726.93 
2892.31 2794.85 3058.86 2713.22 2954.47 2421.57 2832.33 2812.47 2793.54 
2882.43 2728.6 2920.36 2939.27 2850.37 2944.15 2850.01 2793.77 2636.16 
2422.69 2520.46 2617.38 2605.59 2691.35 2803.23 2698.63 2793.89 2840.02 
2864.58 2857.02 2880.57 2899.3 2838.64 2874.67 2872.79 2864.69 2832.3 
2785.73 2802.73 2802.62 2788.46 2781.33 2813.25 2805.01 2805.01 2857.98 
2911.33 3002.78 3018.41 2873.73 2932.95 2967.84 2831.99 2873.85 2903.67 
2907.3 2836.91 2658.47 2639.32 2577.37 2656.38 2656.38 2743.38 2771.06 
2771.06 2780.4 2772.42 2772.42 2755.11 2755.11 2844.07 2863.06 2914.73 
2926.8 2951.48 2951.48 2896.28 2911.78 2900.28 2921.49 2720.99 2947.81 
3005.96 3029.94 3023.41 3036.38 2979.44 2943.88 2958.56 2958.02 2974.32 
2958.46 2909.6 2827.84 2806.99 2823.53 2842.78 2847.63 2899.95 2993.59 
3042.27 3067.57 2961.94 2969.06 3001.57 3035.17 3023.02 3025.79 2920.36 
2916.47 2916.47 2937.98 2909.7 2917.16 2974.12 2954.11 3006.22 2955.04 
2920.25 2920.25 2900.4 2900.4 2894.84 2884.58 2901.36 2928.01 2828.32 
2753.81 2860.46 2929.22 2897.57 2819.48 2819.48 2781.04 2738.86 2831.04 
2820.27 2887.02 2889.31 2896.93 2881 2881 2791.43 2819.65 2836.65 
2836.32 2817.38 2791.91 2791.91 2735.07 2717.79 2722.95 2715.96 2881.84 
2881.84 2901.38 2843.1 2748 2815.14 2834.94 2813.75 2846.38 2891.41 
2829.58 2829.58 2816.74 2818.59 2751.41 2776.04 2822.73 2786.56 2724.6 