# vtk DataFile Version 3.0
vtk output
ASCII
DATASET POLYDATA
POINTS 948 float
1.04323 1.91341 0.898435 0.0285784 -0.229429 0.473744 1.2705 1.9808 0.521893 
-0.4906 0.447786 0.16016 1.57311 2.92349 -0.770465 -0.0090817 -1.3402 -0.884201 
0.294482 -1.45984 -0.834854 3.91355 0.601749 -0.445168 6.12915 0.142363 -0.108569 
6.01502 0.364355 -0.339477 5.90367 0.8928 -0.506536 1.85519 3.00881 -1.07292 
7.25085 -0.733921 -0.306051 7.85176 -0.774036 -0.421845 7.80087 -0.458394 -0.44695 
1.34413 3.03219 -1.55041 7.75875 1.21349 -0.548058 7.41447 -1.07497 -0.668253 
3.22364 2.23199 -1.44377 3.55732 2.33695 -1.40299 8.14091 0.766949 -0.671358 
-0.742936 1.13466 -2.13933 4.57961 0.593482 -1.49759 8.27369 -0.843042 -1.10047 
4.52461 0.772695 -1.58293 8.34838 -0.478259 -1.04336 8.13667 -0.296174 -1.01596 
4.2704 -0.546275 -1.74571 -0.0764476 1.91548 -2.62981 4.79454 0.409685 -1.79414 
5.17752 0.475333 -1.84536 2.28947 2.87479 -2.35293 8.62467 0.437218 -1.25905 
7.51565 -1.58915 -1.43389 5.56692 0.853748 -1.91348 8.79892 -0.262272 -1.32965 
3.65874 -1.07442 -2.20589 8.4326 -0.729117 -1.55667 4.40355 0.858572 -2.34645 
0.176751 -1.2395 -2.88664 1.32264 -1.67152 -2.76891 8.80223 -0.520658 -1.85387 
1.22487 2.60387 -2.95865 1.31582 2.68626 -2.9506 8.84351 0.42888 -1.76731 
8.41829 0.832937 -1.8499 0.37642 -1.25941 -3.05981 4.5219 0.358238 -2.57108 
5.57174 0.693074 -2.5779 3.04326 2.24158 -2.88551 8.97872 -0.0780996 -1.9892 
3.07706 2.47696 -2.89418 3.2058 -1.1334 -2.87282 4.15179 1.03548 -3.06605 
4.05031 1.37106 -3.09938 8.67366 0.494796 -2.40168 0.881239 1.85117 -3.77303 
7.97435 -0.766983 -2.63009 5.92227 0.451057 -3.00758 8.83939 -0.181849 -2.60963 
4.01536 0.674742 -3.46918 7.99964 -1.0141 -3.01702 7.86694 -0.686032 -3.12173 
6.97365 -0.255797 -3.65346 7.62172 0.0212631 -3.33121 7.10121 -0.16528 -3.6191 
7.18705 -0.122999 -3.5945 7.25011 -0.113549 -3.57954 7.31574 -0.0949565 -3.56974 
7.38143 -0.0766252 -3.56158 7.4412 -0.0702681 -3.54607 7.50349 -0.0484639 -3.50862 
7.56432 -0.0152815 -3.43457 6.89118 -0.164025 -3.58118 6.8363 -0.0832721 -3.51854 
6.79598 -0.0103697 -3.47674 6.75703 0.0491357 -3.46145 6.7095 0.0828964 -3.45504 
6.65662 0.106088 -3.4413 6.60062 0.130428 -3.40559 6.54725 0.164478 -3.36255 
6.50118 0.214001 -3.32688 6.45594 0.259591 -3.30585 6.41626 0.319275 -3.28484 
6.37385 0.378091 -3.24919 6.32116 0.413844 -3.20616 6.26413 0.438601 -3.16312 
6.20738 0.461043 -3.1274 6.14905 0.481837 -3.08619 6.08568 0.490523 -3.04687 
6.00857 0.47102 -3.01723 6.89489 -0.367664 -3.63649 6.87407 -0.448325 -3.61233 
6.86836 -0.509536 -3.58052 6.87017 -0.569515 -3.53023 6.86671 -0.627182 -3.47498 
6.8798 -0.691382 -3.42455 6.90359 -0.759837 -3.39484 6.92089 -0.825745 -3.37368 
6.92331 -0.885781 -3.34745 6.9365 -0.950022 -3.297 6.95496 -1.01631 -3.2307 
6.96142 -1.07786 -3.15886 6.93285 -1.12559 -3.08523 6.87836 -1.1631 -3.00832 
6.83397 -1.20455 -2.91479 6.79774 -1.24921 -2.81244 6.76282 -1.29437 -2.6949 
6.73729 -1.34322 -2.57583 6.7285 -1.39868 -2.46153 6.71986 -1.45413 -2.36968 
6.72867 -1.51439 -2.28261 6.75114 -1.56722 -2.19403 6.78317 -1.59468 -2.09059 
6.81968 -1.6111 -1.98715 6.85586 -1.6253 -1.87639 6.89316 -1.63971 -1.77295 
6.93116 -1.65234 -1.66952 6.97658 -1.65521 -1.58807 7.03429 -1.63596 -1.52864 
7.09615 -1.61828 -1.49851 7.15155 -1.62301 -1.48298 7.20798 -1.62816 -1.47478 
7.27292 -1.61172 -1.46662 7.33786 -1.59529 -1.45846 7.39429 -1.60044 -1.45026 
7.45072 -1.60559 -1.44206 7.86219 -0.611302 -3.259 7.88143 -0.554979 -3.36439 
7.90816 -0.505775 -3.42837 7.9302 -0.455348 -3.45563 7.94156 -0.400733 -3.47213 
7.94067 -0.341291 -3.49062 7.96505 -0.291831 -3.51999 8.01321 -0.251732 -3.538 
8.05738 -0.210048 -3.54917 8.10294 -0.16885 -3.52266 8.13899 -0.123866 -3.47521 
8.1757 -0.0790878 -3.39771 8.19958 -0.0292704 -3.32977 8.22608 0.0195063 -3.2689 
8.27606 0.0589974 -3.2192 8.32503 0.0989059 -3.16217 8.35162 0.147643 -3.10129 
8.37729 0.196757 -3.03306 8.42604 0.236658 -2.96108 8.48602 0.270163 -2.89465 
8.54503 0.293298 -2.83525 8.59784 0.302573 -2.78344 8.64318 0.331107 -2.71878 
8.66421 0.380002 -2.63621 8.67083 0.436581 -2.52613 7.92251 -0.695989 -2.94605 
7.95666 -0.719116 -2.78263 7.83613 -0.761064 -3.18669 7.82736 -0.826614 -3.22914 
7.84729 -0.892887 -3.24255 7.88055 -0.95018 -3.23213 7.92182 -0.981399 -3.1946 
7.96243 -0.999483 -3.12046 8.01984 -1.08093 -2.93548 8.03854 -1.1452 -2.83929 
8.05504 -1.1978 -2.71412 8.06206 -1.23022 -2.56146 8.03526 -1.26334 -2.38352 
7.99798 -1.28817 -2.20005 7.97537 -1.27884 -2.02394 7.98097 -1.23886 -1.86811 
8.01758 -1.19624 -1.71558 8.06581 -1.15599 -1.56128 8.11409 -1.11565 -1.40698 
8.1556 -1.07269 -1.28374 8.17811 -1.02224 -1.20605 8.19644 -0.968816 -1.16656 
8.2245 -0.910776 -1.13597 8.04346 -0.972128 -2.93836 8.05122 -0.915918 -2.85057 
8.02013 -0.844358 -2.74663 8.79006 -0.123879 -2.70725 8.73198 -0.125462 -2.78272 
8.66837 -0.154451 -2.82494 8.6132 -0.191591 -2.85053 8.58326 -0.238946 -2.87451 
8.56634 -0.291456 -2.91134 8.55119 -0.344666 -2.9479 8.53316 -0.396705 -2.96245 
8.51261 -0.447695 -2.94744 8.49546 -0.499979 -2.90192 8.48193 -0.553677 -2.8483 
8.43979 -0.59611 -2.80685 8.39454 -0.637235 -2.78837 8.33461 -0.670648 -2.78737 
8.26896 -0.691067 -2.78791 8.20515 -0.695888 -2.77411 8.13259 -0.713522 -2.73832 
8.05432 -0.739614 -2.68787 3.9597 0.654657 -3.54326 3.91223 0.658367 -3.61006 
3.86704 0.673907 -3.66222 3.82052 0.692076 -3.69974 3.77403 0.710348 -3.73726 
3.72959 0.727786 -3.78943 3.68614 0.744703 -3.84893 3.64099 0.760346 -3.90109 
3.5891 0.767937 -3.93126 3.52957 0.762184 -3.94677 3.47495 0.768915 -3.9623 
3.42302 0.776413 -3.99248 3.37228 0.777859 -4.04462 3.33005 0.797875 -4.10412 
3.27931 0.799321 -4.15626 3.22738 0.806819 -4.18644 3.17273 0.813458 -4.20197 
3.11145 0.806309 -4.21014 3.05211 0.804071 -4.21833 2.99083 0.796922 -4.22651 
2.93508 0.803773 -4.23471 2.87869 0.809024 -4.24291 2.81375 0.79259 -4.25108 
2.74881 0.776157 -4.25924 2.69242 0.781408 -4.26744 2.63667 0.788259 -4.27564 
2.57535 0.781017 -4.28382 2.5153 0.776974 -4.292 2.44965 0.758736 -4.30016 
2.38502 0.740081 -4.31565 2.32699 0.735112 -4.33848 2.26804 0.724814 -4.36862 
2.20996 0.719742 -4.39146 2.14566 0.698874 -4.41426 2.07769 0.668713 -4.43706 
2.00975 0.638655 -4.45984 1.94304 0.62074 -4.46068 1.88247 0.627455 -4.43959 
1.82087 0.634587 -4.41116 1.7521 0.617507 -4.39735 1.68105 0.588597 -4.39817 
1.61032 0.557475 -4.40631 1.53958 0.526353 -4.41444 1.46849 0.49734 -4.41526 
1.39902 0.478456 -4.40145 1.33202 0.474925 -4.36569 1.25844 0.457709 -4.32257 
1.18222 0.430782 -4.28677 1.10851 0.400871 -4.27292 1.03858 0.369324 -4.27343 
0.979534 0.333492 -4.27216 0.94165 0.289343 -4.25249 0.902372 0.245782 -4.21056 
0.848129 0.208131 -4.16357 0.798079 0.168815 -4.1234 0.737171 0.13374 -4.10746 
0.679897 0.0972085 -4.10591 0.644065 0.0522253 -4.10088 0.60608 0.00811643 -4.08121 
0.540915 -0.0251116 -4.03601 0.462544 -0.0509042 -3.9706 0.385429 -0.0622802 -3.89087 
0.324572 -0.0381691 -3.82585 0.281103 0.0209707 -3.78287 0.246922 0.091286 -3.76919 
0.217317 0.161966 -3.76987 0.199743 0.228009 -3.77609 0.20708 0.284235 -3.77826 
0.225383 0.336139 -3.77865 0.246588 0.386886 -3.78607 0.271621 0.4361 -3.80783 
0.30893 0.480437 -3.85008 0.361094 0.518907 -3.89741 0.395492 0.564405 -3.93263 
0.404604 0.619931 -3.93452 0.383127 0.687563 -3.91141 0.351235 0.759313 -3.88251 
0.328805 0.827308 -3.86704 0.321341 0.889392 -3.85665 0.301724 0.956266 -3.84822 
0.282856 1.02286 -3.83218 0.288234 1.07988 -3.81969 0.304483 1.13262 -3.80543 
0.321482 1.18507 -3.78356 0.335605 1.2387 -3.73969 0.350375 1.29209 -3.68821 
0.375362 1.34143 -3.64258 0.417364 1.38403 -3.61665 0.447592 1.43125 -3.60761 
0.471321 1.48102 -3.60711 0.502668 1.52778 -3.60539 0.549532 1.56843 -3.60113 
0.591742 1.61091 -3.59764 0.641511 1.6504 -3.60041 0.687548 1.69135 -3.61127 
0.749483 1.726 -3.63453 0.81076 1.76091 -3.66539 0.850873 1.80413 -3.71467 
4.04167 0.605306 -3.43157 4.06593 0.536703 -3.37932 4.0892 0.468622 -3.31973 
4.11318 0.402334 -3.26016 4.14256 0.346719 -3.20793 4.18085 0.316711 -3.14841 
4.22351 0.297794 -3.08891 4.26692 0.280773 -3.02942 4.31108 0.26565 -2.96993 
4.35654 0.262868 -2.88849 4.40885 0.286528 -2.78511 4.4645 0.321694 -2.67444 
4.01707 0.733414 -3.33743 4.0198 0.791669 -3.21301 4.02561 0.848672 -3.11056 
4.03768 0.903134 -3.05203 4.05769 0.954393 -3.03716 4.09267 0.999698 -3.04983 
8.90002 -0.133877 -2.41158 8.94564 -0.0973641 -2.20499 8.84467 -0.270811 -2.49644 
8.83345 -0.335278 -2.37947 8.82327 -0.392342 -2.2378 8.80552 -0.44922 -2.06225 
5.84777 0.479951 -3.0028 5.79031 0.523387 -2.97525 5.73948 0.586102 -2.8973 
5.67221 0.650027 -2.75865 8.63228 0.553195 -2.37335 8.57726 0.592097 -2.30836 
8.51622 0.633563 -2.1994 8.4631 0.698959 -2.06823 8.42724 0.770232 -1.94995 
8.7283 0.515298 -2.32028 8.77163 0.513154 -2.22419 8.8058 0.499887 -2.09878 
8.83082 0.475498 -1.94405 4.08062 1.29999 -3.09109 4.10926 1.22959 -3.08307 
4.12871 1.16281 -3.07654 4.13413 1.10156 -3.07229 4.19627 1.00306 -3.05048 
4.23279 0.959504 -3.01292 4.26978 0.932228 -2.93876 4.30498 0.916419 -2.82554 
4.33709 0.903144 -2.68294 4.36868 0.885994 -2.52022 5.49454 0.636432 -2.58799 
5.44977 0.585076 -2.56137 5.41362 0.538923 -2.48265 5.36014 0.501799 -2.3357 
5.27473 0.481682 -2.11802 3.23893 -1.08952 -2.86318 3.2895 -1.06311 -2.83513 
3.34128 -1.05341 -2.77599 3.39728 -1.02917 -2.6946 3.45424 -0.996736 -2.59857 
3.50785 -0.975807 -2.50984 3.54893 -0.989679 -2.42838 3.58111 -1.02915 -2.35419 
3.61813 -1.05633 -2.28004 3.0717 2.414 -2.89134 3.07191 2.34956 -2.88764 
3.06162 2.29351 -2.88589 3.04284 2.52641 -2.90179 2.99273 2.55581 -2.91048 
2.9418 2.57709 -2.91883 2.89118 2.5971 -2.92706 2.84059 2.61704 -2.93529 
2.78999 2.63698 -2.94351 2.73837 2.65733 -2.94441 2.6847 2.67853 -2.93066 
2.62795 2.70097 -2.89495 2.56914 2.72424 -2.84458 2.50793 2.74857 -2.77712 
2.4425 2.776 -2.68047 2.3695 2.81497 -2.5356 8.98927 0.00486214 -1.95998 
8.97191 0.0807892 -1.94426 8.9426 0.152936 -1.94248 8.91272 0.223922 -1.94072 
[...]
POINT_DATA 948
SCALARS DY_raw double
LOOKUP_TABLE default
1401.06 769.651 756.881 758.776 767.573 928.117 791.265 766.927 963.306 
1119.07 699.77 854.785 673.577 1298.29 1071.75 714.229 545.482 630.696 
946.334 777.064 601.387 738.175 888.621 900.881 771.673 828.144 750.053 
728.197 609.984 903.57 788.021 670.209 794.84 791.542 663.658 850.736 
691.513 764.279 797.608 924.212 635.807 608.785 818.075 617.544 785.431 
703.691 703.495 712.93 508.233 1059.58 662.85 569.96 975.044 695.034 
1058.97 777.336 582.837 994.067 483.262 693.251 752.683 681.822 844.325 
684.979 776.361 679.506 743.718 808.471 833.565 833.565 749.022 710.103 
729.304 629.108 679.381 686.016 714.391 714.391 748.121 697.54 727.553 
727.574 636.569 622.259 614.573 635.768 593.121 578.125 550.499 497.12 
486.418 753.422 751.792 736.643 804.222 773.616 694.321 850.941 773.986 
665.542 604.107 614.132 591.127 654.083 687.973 770.838 805.484 833.876 
790.318 792.615 733.297 655.186 681.864 763.764 654.72 669.081 750.821 
767.104 760.059 835.484 849.938 775.109 775.109 794.494 747.9 764.476 
724.384 869.971 808.756 772.425 818.234 818.234 779.572 695.77 695.77 
635.436 616.893 637.674 684.124 658.182 748.774 748.774 737.316 655.368 
722.475 769.432 767.493 781.007 774.418 731.119 702.394 749.62 856.573 
881.149 784.478 740.709 691.374 658.321 642.467 699.937 663.497 754.522 
759.24 690.519 676.618 666.255 598.695 640.534 723.687 820.959 898.407 
926.068 973.304 906.547 908.07 721.035 808.43 840.423 588.932 615.793 
622.96 667.35 643.199 646.951 592.385 571.205 571.978 612.313 643.958 
675.61 706.3 697.214 675.391 664.681 686.264 788.513 686.643 733.911 
737.739 737.739 813.341 799.586 817.527 822.034 822.034 833.389 810.106 
800.858 787.936 711.39 662.442 722.045 760.018 760.018 886.564 886.564 
958.679 850.847 932.158 880.537 751.421 801.346 684.121 697.071 697.071 
677.529 691.08 691.08 635.944 680.205 671.843 614.066 717.105 686.24 
741.656 777.121 776.705 807.311 812.401 808.381 820.787 739.685 785.715 
684.721 679.848 620.246 627.588 691.175 748.696 804.141 859.931 807.941 
845.897 711.697 671.258 631.967 599.797 637.309 613.033 649.194 736.63 
848.913 924.335 1014.23 1014.23 1001.35 855.48 855.48 775.653 676.56 
676.56 674.714 716.215 848.556 784.912 740.693 773.445 756.801 756.801 
703.364 709.946 753.838 807.071 819.937 867.719 873.096 877.49 877.49 
840.051 784.903 764.202 723.536 672.055 622.603 709.653 909.79 980.533 
959.427 1068.17 1149.52 940.297 1016.47 978.54 831.48 837.572 671.4 
842.832 960.658 1189.08 963.826 866.148 866.148 789.06 819.516 752.806 
703.326 736.745 665.565 511.144 486.089 567.896 534.669 750.639 791.231 
664.824 568.409 636.828 820.799 779.067 844.835 679.946 938.155 831.506 
772.33 754.241 677.701 677.701 668.428 692.386 772.946 771.657 524.12 
544.913 604.412 704.873 764.884 725.171 615.773 575.898 591.05 639.532 
605.619 651.483 632.866 681.549 643.781 751.494 888.466 569.96 562.738 
583.806 623.987 646.092 646.092 636.417 636.417 633.394 573.026 518.194 
538.42 576.082 781.621 969.628 970.319 1000.12 903.29 780.885 738.554 
785.095 816.979 645.201 705.216 717.047 750.832 632.319 732.987 919.167 
871.656 858.915 782.65 824.846 818.27 801.517 906.666 903.669 980.33 
662.293 802.901 808.21 823.599 955.386 955.386 1003.68 1018.43 1018.43 
1006.8 913.81 913.81 859.12 790.684 780.514 809.519 742.52 693.378 
726.483 823.779 871.871 960.687 1041.85 1102.31 1151.77 1151.77 1227.53 
1242.17 1242.17 1210.84 1192.18 1192.18 1077.57 1011.27 933.997 777.245 
739.954 832.284 877.932 723.502 677.778 723.471 765.666 642.342 710.076 
799.342 851.883 931.654 887.908 853.594 853.594 765.567 834.283 846.722 
870.403 930.242 890.156 833.733 833.733 696.943 676.268 739.655 747.834 
731.615 717.148 694.928 692.631 749.518 790.777 779.565 765.566 748.032 
755.059 788.763 800.456 846.152 884.092 953.157 953.157 1052.08 1047.61 
1047.61 904.618 813.133 728.154 773.974 780.424 877.692 1029.61 938.471 
691.911 707.028 726.525 706.113 735.018 698.872 673.48 766.176 713.2 
799.147 732.431 732.431 693.708 712.848 716.053 689.131 655.929 630.658 
631.313 684.461 777.064 833.95 815.347 863.288 932.477 883.062 893.692 
864.887 864.887 783.556 792.171 715.667 756.894 728.197 648.811 702.041 
794.672 872.582 812.633 858.749 765.473 652.693 672.57 637.027 605.864 
584.586 627.009 669.322 835.003 739.263 759.935 784.787 818.555 817.691 
654.722 641.729 674.124 704.256 720.661 586.314 591.148 635.68 731.018 
807.676 785.577 790.2 798.63 810.819 768.367 799.631 822.319 580.112 
590.912 586.013 611.572 667.6 667.6 674.104 681.807 681.807 726.935 
738.468 861.14 733.468 783.967 787.559 785.97 853.772 832.636 767.433 
819.893 801.399 778.806 820.49 839.264 780.864 813.431 758.89 753.075 
767.423 624.574 632.888 651.944 639.606 657.328 658.77 652.556 710.275 
684.307 652.731 653.633 668.854 668.854 653.552 662.375 686.825 765.394 
798.815 811.171 713.094 678.491 603.41 644.252 744.059 759.921 796.778 
849.848 851.625 847.563 902.012 919.301 944.745 905.183 854.259 796.562 
764.618 743.198 702.603 776.837 787.175 784.928 782.285 763.818 796.194 
782.175 782.175 800.588 852.898 868 876.613 854.064 854.064 831.327 
804.186 846.388 852.494 860.073 965.256 785.784 764.521 769.76 906.938 
887.266 612.127 614.799 635.744 733.782 742.558 720.85 730.002 760.27 
790.367 744.627 718.532 702.474 743.671 727.115 767.66 774.244 934.329 
866.55 837.635 845.165 845.165 899.203 896.283 825.895 823.862 886.514 
775.971 809.796 763.753 792.15 823.688 917.536 921.195 1072.6 1075.46 
1053.44 1015.67 830.33 842.378 802.571 762.793 781.464 661.516 687.476 
718.884 793.023 649.601 623.263 617.313 631.291 603.645 626.079 647.438 
682.869 682.869 736.627 817.433 1115.45 1202.8 970.573 970.621 970.621 
917.412 784.64 798.469 729.589 648.787 658.706 695.176 700.968 718.935 
775.029 800.253 845.368 848.869 839.827 780.855 691.908 793.039 872.734 
951.119 923.461 842.687 949.997 890.244 1003.33 1047.13 1090.59 1152.52 
1029.79 1012.68 825.244 744.071 683.926 734.02 728.279 783.755 837.039 
885.6 925.296 1089.53 743.106 825.672 908.124 1011.22 1039.03 1146.18 
1157.9 1223.97 1192.65 958.61 958.61 894.043 809.668 798.224 834.413 
848.045 908.208 854.601 903.939 941.034 977.511 1023.85 1117.22 1019.99 
747.685 739.883 750.187 753.564 765.197 795.638 838.655 936.753 1004.92 
1041.82 875.122 806.332 717.962 692.874 705.756 732.54 782.092 814.572 
779.087 804.974 777.737 754.886 786.024 767.659 755.701 745.524 738.223 
736.518 748.052 757.702 754.185 835.864 804.413 836.406 786.31 831.474 
823.086 826.188 854.481 836.828 856.404 846.508 803.468 803.468 783.067 
709.456 709.456 743.817 778.6 787.535 820.245 813.934 813.934 795.807 
795.807 791.372 828.115 828.115 840.421 814.933 814.933 789.746 784.91 
715.229 715.229 695.395 696.214 656.81 685.458 706.581 835.15 881.181 
851.205 759.873 794.043 745.541 577.715 605.773 607.812 660.297 680.842 
751.661 777.974 777.974 776.952 796.43 822.905 820.562 866.075 826.084 
962.212 1010.48 1091.25 1119.96 1119.96 1127.02 1053.67 1037.25 1036.5 
953.089 946.83 933.659 969.532 853.637 825.8 825.8 747.403 754.411 
754.411 786.696 786.696 813.856 828.705 828.705 910.208 963.4 930.977 
891.206 824.951 745.222 764.981 764.981 776.403 928.117 777.476 846.446 
809.596 729.591 741.397 756.32 794.576 794.576 759.067 710.869 721.518 
721.343 683.957 710.923 723.108 737.654 745.726 825.508 792.159 858.362 
980.681 885.216 1015.49 1004.3 957.639 979.891 878.29 938.483 854.571 
756.117 728.742 680.188 644.314 683.969 751.626 709.569 733.393 733.393 
856.941 945.852 1071.27 1044.48 883.69 776.539 776.539 759.412 756.749 
764.365 725.713 1108.14 
FIELD FieldData 7
DY_minmax 1 948 double
1 0.31204 0.298125 0.30019 0.309775 0.484699 0.335589 0.309071 0.52304 
0.692755 0.235899 0.404799 0.20736 0.88803 0.641197 0.251653 0.0677922 0.160639 
0.504547 0.320116 0.128705 0.277744 0.441665 0.455023 0.314243 0.375771 0.290687 
0.266872 0.138071 0.457953 0.332055 0.203691 0.339485 0.335891 0.196553 0.400387 
0.226903 0.306186 0.3425 0.480444 0.166208 0.136765 0.364801 0.146309 0.329233 
0.240171 0.239958 0.250239 0.0272078 0.627935 0.195673 0.0944629 0.535828 0.23074 
0.627272 0.320412 0.108493 0.556556 0 0.228797 0.293552 0.216344 0.393402 
0.219783 0.319351 0.213821 0.283784 0.354337 0.381678 0.381678 0.289563 0.247158 
0.268079 0.158909 0.213684 0.220913 0.25183 0.25183 0.288582 0.23347 0.266171 
0.266194 0.167038 0.151446 0.143072 0.166165 0.119698 0.10336 0.0732589 0.0150994 
0.00343821 0.294357 0.292581 0.276075 0.349707 0.31636 0.229962 0.40061 0.316763 
0.198606 0.131669 0.142592 0.117525 0.18612 0.223046 0.313332 0.351082 0.382017 
0.334558 0.33706 0.272429 0.187322 0.21639 0.305626 0.186815 0.202462 0.291523 
0.309264 0.301589 0.383769 0.399517 0.317986 0.317986 0.339107 0.288341 0.306401 
0.262718 0.421344 0.354647 0.315062 0.364973 0.364973 0.322849 0.231541 0.231541 
0.165804 0.145599 0.168242 0.218852 0.190586 0.289293 0.289293 0.276809 0.18752 
0.260638 0.311801 0.309688 0.324412 0.317234 0.270057 0.238758 0.290214 0.406747 
0.433524 0.328194 0.280505 0.226751 0.190738 0.173464 0.236082 0.196378 0.295556 
0.300696 0.22582 0.210674 0.199383 0.125772 0.171358 0.261959 0.367943 0.452328 
0.482466 0.533932 0.461196 0.462856 0.259069 0.354291 0.389151 0.115134 0.144401 
0.15221 0.200576 0.174262 0.17835 0.118896 0.0958191 0.0966622 0.140609 0.175089 
0.209575 0.243014 0.233115 0.209337 0.197668 0.221184 0.332591 0.221597 0.273098 
0.27727 0.27727 0.359643 0.344655 0.364204 0.369114 0.369114 0.381486 0.356118 
0.346041 0.331962 0.24856 0.195228 0.26017 0.301543 0.301543 0.439424 0.439424 
0.517998 0.400508 0.489102 0.432857 0.292177 0.346573 0.218849 0.232959 0.232959 
0.211667 0.226431 0.226431 0.166356 0.214582 0.205471 0.14252 0.254787 0.221158 
0.281537 0.320178 0.319725 0.353072 0.358618 0.354239 0.367756 0.27939 0.329542 
0.219502 0.214194 0.149252 0.157252 0.226534 0.289208 0.349618 0.410406 0.353759 
0.395114 0.248895 0.204833 0.162024 0.126972 0.167844 0.141394 0.180794 0.276061 
0.3984 0.480578 0.578527 0.578527 0.564488 0.405555 0.405555 0.318579 0.210611 
0.210611 0.208599 0.253817 0.398012 0.328668 0.280488 0.316173 0.298038 0.298038 
0.239815 0.246987 0.29481 0.352811 0.366829 0.418891 0.42475 0.429537 0.429537 
0.388745 0.328658 0.306102 0.261794 0.205702 0.151821 0.246667 0.464731 0.541809 
0.518812 0.637292 0.725927 0.49797 0.580967 0.539638 0.379406 0.386044 0.204988 
0.391775 0.520154 0.769038 0.523606 0.417179 0.417179 0.333186 0.366371 0.293685 
0.239774 0.276186 0.198631 0.0303786 0.00307947 0.0922145 0.0560115 0.291325 0.335552 
0.197824 0.0927731 0.16732 0.367769 0.322299 0.393958 0.2143 0.495636 0.379435 
0.314958 0.295249 0.211854 0.211854 0.20175 0.227854 0.31563 0.314225 0.0445175 
0.0671728 0.132001 0.24146 0.306846 0.263576 0.144379 0.100932 0.117442 0.170266 
0.133316 0.183288 0.163003 0.216046 0.174896 0.292256 0.441497 0.0944629 0.0865945 
0.109549 0.153329 0.177414 0.177414 0.166872 0.166872 0.163579 0.0978037 0.0380599 
0.0600979 0.101133 0.325081 0.529927 0.53068 0.563151 0.457647 0.32428 0.278157 
0.328867 0.363606 0.176443 0.241833 0.254724 0.291535 0.162407 0.272091 0.474947 
0.423181 0.409299 0.326202 0.372178 0.365013 0.346759 0.461326 0.458061 0.541588 
0.195066 0.348267 0.354052 0.370819 0.51441 0.51441 0.567026 0.583099 0.583099 
0.570424 0.46911 0.46911 0.409521 0.334956 0.323876 0.355478 0.282478 0.228935 
0.265005 0.371015 0.423415 0.520186 0.608622 0.674498 0.728383 0.728383 0.810924 
0.826882 0.826882 0.792739 0.772409 0.772409 0.647532 0.575304 0.491106 0.320314 
0.279683 0.380282 0.430019 0.261757 0.211938 0.261723 0.307697 0.173328 0.247128 
0.34439 0.401636 0.488553 0.440888 0.4035 0.4035 0.307589 0.382461 0.396013 
0.421815 0.487014 0.443338 0.38186 0.38186 0.23282 0.210292 0.279356 0.288268 
0.270597 0.254834 0.230624 0.228121 0.290104 0.335057 0.322841 0.307589 0.288484 
0.296141 0.332864 0.345603 0.395392 0.43673 0.511981 0.511981 0.619759 0.614892 
0.614892 0.459095 0.359416 0.266826 0.31675 0.323777 0.429757 0.595285 0.49598 
0.227336 0.243807 0.26505 0.242811 0.274305 0.234921 0.207255 0.308253 0.250532 
0.344177 0.271486 0.271486 0.229295 0.250149 0.253641 0.224308 0.188132 0.160598 
0.161311 0.219219 0.320116 0.382098 0.361828 0.414063 0.489449 0.435608 0.44719 
0.415805 0.415805 0.32719 0.336576 0.253221 0.29814 0.266872 0.180377 0.238374 
0.339302 0.42419 0.358871 0.409117 0.307487 0.184606 0.206263 0.167537 0.133582 
0.110399 0.156622 0.202724 0.383245 0.27893 0.301453 0.328531 0.365324 0.364383 
0.186817 0.17266 0.207957 0.240787 0.258661 0.112282 0.117548 0.166069 0.269946 
0.35347 0.329392 0.334429 0.343614 0.356895 0.31064 0.344704 0.369425 0.105524 
0.117291 0.111954 0.139802 0.200848 0.200848 0.207935 0.216328 0.216328 0.265498 
0.278064 0.411723 0.272616 0.327638 0.331552 0.32982 0.403694 0.380666 0.309623 
0.366781 0.346631 0.322015 0.367432 0.387888 0.324257 0.359741 0.300315 0.293979 
0.309612 0.153969 0.163027 0.18379 0.170347 0.189657 0.191227 0.184456 0.247346 
0.219051 0.184647 0.185631 0.202214 0.202214 0.185542 0.195155 0.221795 0.307401 
0.343816 0.357279 0.250417 0.212714 0.130909 0.175409 0.284155 0.301438 0.341596 
0.39942 0.401355 0.39693 0.456255 0.475093 0.502816 0.459711 0.404226 0.34136 
0.306556 0.283217 0.238987 0.319869 0.331133 0.328685 0.325805 0.305684 0.34096 
0.325685 0.325685 0.345748 0.402742 0.419197 0.428582 0.404013 0.404013 0.37924 
0.349668 0.395649 0.402302 0.41056 0.525164 0.329618 0.30645 0.312158 0.461623 
0.440188 0.140406 0.143318 0.166138 0.272958 0.28252 0.258867 0.26884 0.301818 
0.334611 0.284774 0.256342 0.238846 0.283732 0.265694 0.309871 0.317044 0.491467 
0.417618 0.386113 0.394317 0.394317 0.453195 0.450014 0.373321 0.371106 0.439369 
0.318925 0.35578 0.305613 0.336554 0.370917 0.47317 0.477157 0.642126 0.645244 
0.62125 0.580093 0.378153 0.391281 0.347908 0.304567 0.324911 0.194219 0.222504 
0.256726 0.337505 0.181237 0.15254 0.146057 0.161287 0.131165 0.155608 0.17888 
0.217484 0.217484 0.276058 0.364101 0.68881 0.78398 0.530957 0.531009 0.531009 
0.473034 0.32837 0.343439 0.268389 0.18035 0.191158 0.230895 0.237205 0.256781 
0.317899 0.345382 0.394538 0.398353 0.388501 0.324247 0.227333 0.337522 0.424356 
0.509761 0.479626 0.391616 0.508538 0.443433 0.566651 0.614368 0.661728 0.729199 
0.595478 0.576831 0.372612 0.284168 0.218636 0.273218 0.266962 0.327407 0.385464 
0.438374 0.481625 0.660569 0.283117 0.373078 0.462915 0.575247 0.605542 0.722295 
0.735061 0.807047 0.77292 0.517923 0.517923 0.447573 0.355641 0.343172 0.382602 
0.397455 0.463006 0.404598 0.458355 0.498773 0.538516 0.589007 0.690736 0.584796 
0.288106 0.279605 0.290832 0.294512 0.307186 0.340354 0.387224 0.494108 0.568376 
0.608581 0.426957 0.352006 0.255721 0.228386 0.242421 0.271605 0.325595 0.360984 
0.322321 0.350526 0.32085 0.295952 0.329879 0.309869 0.29684 0.285751 0.277796 
0.275939 0.288505 0.29902 0.295188 0.384182 0.349915 0.384774 0.33019 0.3794 
0.37026 0.37364 0.404467 0.385233 0.406562 0.39578 0.348885 0.348885 0.326657 
0.246453 0.246453 0.283891 0.32179 0.331525 0.367165 0.360289 0.360289 0.340538 
0.340538 0.335706 0.375739 0.375739 0.389148 0.361377 0.361377 0.333934 0.328666 
0.252743 0.252743 0.231133 0.232025 0.189092 0.220306 0.243321 0.383405 0.433559 
0.400898 0.301385 0.338617 0.28577 0.102912 0.133484 0.135706 0.192891 0.215276 
0.292438 0.321108 0.321108 0.319994 0.341216 0.370064 0.367511 0.417099 0.373527 
0.521848 0.574435 0.662446 0.693722 0.693722 0.701419 0.621502 0.603604 0.602792 
0.511908 0.505088 0.490737 0.529823 0.403548 0.373217 0.373217 0.287799 0.295434 
0.295434 0.330611 0.330611 0.360203 0.376383 0.376383 0.465186 0.523141 0.487815 
0.444481 0.372293 0.285422 0.306951 0.306951 0.319397 0.484699 0.320565 0.395713 
0.355562 0.268392 0.281254 0.297514 0.339197 0.339197 0.300507 0.247993 0.259595 
0.259405 0.21867 0.248052 0.261328 0.277177 0.285972 0.372899 0.336563 0.408696 
0.54197 0.437956 0.579897 0.567708 0.516864 0.54111 0.430409 0.495993 0.404566 
0.297293 0.267466 0.214564 0.175477 0.218683 0.2924 0.246576 0.272534 0.272534 
0.407147 0.504022 0.640675 0.611483 0.436293 0.319544 0.319544 0.300883 0.297982 
0.30628 0.264166 0.680842 
WidthEq 1 948 double
1 2.5655 1.84098 2.60584 3.04495 3.25384 3.68792 2.64496 1.12117 
1.12819 2.53729 2.27303 2.74837 2.13218 3.07514 2.6655 1.9572 4.34846 
1.61633 2.01768 3.47864 3.99258 2.3511 3.51584 1.85875 4.29068 4.74527 
2.0562 4.73201 2.58008 3.23902 4.57019 3.88202 1.9219 5.06357 3.65074 
3.62806 4.06469 3.22462 3.27404 4.77404 4.8083 3.55412 3.4136 4.67847 
2.64971 5.00306 2.69621 5.70279 2.08086 3.61085 4.67112 2.59835 3.95513 
2.30031 3.97175 3.56558 3.84432 5.13601 3.82809 3.89456 4.50285 4.04787 
3.12034 2.39464 2.71228 2.43954 2.35381 2.7055 2.7055 2.94824 3.2522 
2.92646 3.39007 3.30092 3.28002 3.23092 3.23092 3.15188 3.17913 3.13798 
3.17165 3.43557 3.57904 3.50959 3.74575 4.29251 4.54609 4.7422 4.98106 
5.20585 3.28333 3.30471 3.38811 3.23197 3.39337 3.66642 3.33357 3.71642 
4.12958 4.26638 4.32397 4.32748 4.08982 4.02279 3.52305 3.30725 3.27361 
3.71177 3.74684 4.09141 4.55782 4.48956 4.17232 4.15591 3.91738 3.6959 
3.67911 3.60323 3.41742 3.21825 3.12077 3.12077 2.79789 2.79018 2.34342 
2.3561 3.58389 3.57197 3.5134 3.15499 3.15499 3.33381 3.48895 3.48895 
3.68405 3.69941 3.81712 3.83689 4.15625 4.02968 4.02968 4.44144 4.84117 
4.53832 4.4861 4.27566 4.0305 3.72039 3.72189 3.63004 3.63583 4.2798 
4.26293 4.2179 4.18747 4.26928 4.21297 4.44944 4.3124 4.66633 4.40036 
4.30437 4.77781 4.983 5.36368 5.83794 5.1712 4.61015 4.1533 3.86343 
3.77037 3.56015 3.65574 3.56093 4.82162 4.6568 4.8868 3.86926 4.0733 
4.30922 4.35949 4.43121 4.6028 4.69847 5.17483 5.21434 5.15987 5.00893 
4.50773 4.46246 4.449 4.77547 5.22374 5.38253 5.06565 4.02184 3.97432 
3.98516 3.98516 3.60341 3.5056 3.4626 3.19901 3.19901 3.07639 2.94319 
3.10895 3.14699 3.34288 3.44821 3.29161 3.19852 3.19852 3.05235 3.05235 
2.973 3.16153 3.05058 3.1606 3.27731 3.31693 3.59448 3.77359 3.77359 
3.915 3.88279 3.88279 4.21009 3.9708 4.11029 4.25646 3.92141 3.9386 
3.38078 3.25844 2.9732 2.60502 2.55759 2.67937 2.69928 2.9485 2.94453 
3.34066 3.38756 3.698 3.718 3.32665 3.09058 2.94581 2.77339 2.89746 
2.94598 3.46135 3.77061 4.16442 4.41401 4.34778 4.39299 4.12254 3.72223 
3.16036 2.73857 2.37029 2.37029 2.31481 2.63947 2.63947 3.02983 3.56226 
3.56226 3.41908 3.19781 2.8968 2.84177 2.88114 2.76798 2.89034 2.89034 
3.03464 2.99513 2.81129 2.7943 2.88417 2.67875 2.99144 3.14635 3.14635 
3.61174 3.81737 3.97731 4.13233 4.30046 4.36951 3.67653 2.94087 2.81072 
2.37942 2.12472 2.06607 2.46852 2.39594 2.5517 2.83099 2.86965 2.92995 
3.18216 2.75788 2.3675 3.03633 3.41488 3.41488 3.44646 3.29589 3.51377 
3.53045 3.74207 4.17167 4.94698 4.73119 4.21408 4.94374 3.75887 3.87676 
3.62891 3.31879 2.73254 3.95953 4.09016 4.20743 5.0167 3.01855 3.5069 
3.89014 3.96901 3.6533 3.6533 3.0119 2.81427 2.98096 3.23443 5.48849 
5.67006 4.99381 4.45633 3.7297 3.82835 4.74642 5.06071 4.73279 4.54544 
4.38873 4.30283 4.00693 3.92181 4.15358 3.56442 2.82472 4.67112 4.73396 
4.64327 4.29531 4.16555 4.16555 4.12538 4.12538 4.17733 4.29619 4.77213 
4.91711 4.88543 3.51462 3.19138 3.14492 3.31137 3.87237 4.81695 3.74758 
3.77722 3.75199 4.88197 4.59662 4.31801 4.19866 5.30917 2.97091 2.90021 
2.85516 2.96859 3.17089 3.23762 2.95445 2.79304 2.59375 2.53355 2.29674 
4.34091 3.98233 4.10622 3.96818 3.85235 3.85235 3.70762 3.5044 3.5044 
3.47626 3.5905 3.5905 3.66423 3.77778 3.75797 4.10269 4.51817 4.85061 
4.97212 4.2218 3.78584 3.36602 3.05693 2.93591 2.87181 2.87181 2.72847 
2.67894 2.67894 2.72191 2.7639 2.7639 3.18474 3.49081 3.77438 4.37217 
4.75947 3.7006 4.08098 3.95328 4.5114 4.20933 4.04991 4.71372 4.40537 
4.01012 3.38076 3.16273 2.91514 2.82359 2.82359 2.77146 2.67669 2.73889 
2.92411 2.84797 3.05936 3.10577 3.10577 3.1738 3.16559 3.06702 3.08524 
3.1628 3.33521 3.3968 3.43785 3.32329 3.1808 3.13973 3.25384 3.01828 