# vtk DataFile Version 3.0
vtk output
ASCII
DATASET POLYDATA
POINTS 1038 float
7.58172 -0.447044 1.01717 7.77444 0.0310472 0.962415 7.65995 -0.335492 0.934734 
7.64255 0.429785 0.817798 7.87094 -0.149757 0.662506 7.6937 1.23168 0.697479 
7.97721 0.859641 0.62635 7.93126 0.529719 0.595287 7.85806 -1.16713 0.417961 
8.43286 -0.423805 0.43721 8.50452 -0.560023 0.414627 6.40674 1.40597 0.65272 
7.98163 0.415079 0.375014 8.35627 -0.213647 0.266056 7.9035 -1.20783 0.00395248 
8.53793 3.41522e-005 3.5701e-005 8.69405 0.0433749 0.0554076 8.08238 0.185798 -0.0655313 
8.17039 0.101943 -0.0841594 8.2572 -0.0478396 -0.244741 3.36371 0.708003 0.297142 
6.01742 1.15883 -0.0742375 7.22893 1.49445 -0.28607 7.4638 -1.34033 -0.502732 
5.44929 -0.0207404 -0.209268 8.09474 -0.807615 -0.731716 8.48032 -0.280903 -0.631435 
1.13832 0.46494 -0.0293621 1.86779 -1.15952 -0.150314 7.68129 -1.19475 -0.780043 
8.24767 -0.21021 -0.724192 0.643142 -0.602943 -0.160056 6.48778 1.47245 -0.562769 
7.52524 1.50319 -0.671107 1.38046 1.48165 -0.214246 0.778412 -0.628604 -0.379757 
5.10504 0.243194 -0.750409 5.81538 -0.773315 -0.937834 7.70414 -0.942148 -1.15961 
4.97939 0.296264 -0.933425 3.69089 -1.36251 -1.17809 3.82797 -1.28928 -1.18486 
1.01054 -1.62725 -1.12076 4.12523 1.21459 -1.14591 4.27022 1.14121 -1.42967 
7.69983 0.16518 -1.78018 7.909 0.531251 -1.62785 7.79762 -0.00812128 -1.67473 
1.63495 -1.91509 -1.42174 2.29119 -1.91707 -1.56005 4.60243 0.455473 -1.48248 
5.40155 0.271643 -1.58857 4.52819 -0.423736 -1.77278 7.09301 0.292097 -1.97078 
7.34069 -0.0118314 -2.03062 7.29163 -0.168919 -2.04248 -0.253995 -0.19848 -1.69583 
0.168584 0.333912 -1.42307 0.459471 -1.53909 -1.7937 1.39819 -1.85549 -1.99675 
4.0576 -1.0817 -2.33349 -0.482105 -0.50395 -1.91659 1.69001 -1.92839 -2.23846 
4.39034 0.866581 -2.22412 4.21866 -0.871895 -2.46283 0.313472 1.4757 -2.22456 
1.82528 -1.95405 -2.45816 4.017 1.22358 -2.34729 -0.714532 -0.551243 -2.36884 
-0.491352 -0.323103 -2.23308 -0.459679 0.599261 -2.33815 -0.192522 0.174862 -2.41323 
-0.22289 -1.01923 -2.5403 2.38631 2.03243 -2.48812 -0.875849 0.453503 -2.51159 
-0.314286 0.971631 -2.5155 -0.22939 1.06061 -2.51492 2.22794 1.98077 -2.67905 
1.94618 1.9905 -2.91744 3.02838 1.52521 -3.01728 -0.347502 0.496283 -2.96848 
2.54625 1.83864 -3.13351 -0.231705 0.591093 -3.17293 2.08543 1.61085 -3.31109 
-0.106558 0.167401 -3.43499 2.81578 -0.714388 -3.84585 -0.000882233 -0.13582 -3.6818 
2.09817 1.46543 -3.73301 2.18541 0.465041 -3.85159 2.73115 -0.257456 -4.19154 
1.01425 0.734141 -4.10081 0.638067 -0.4702 -4.19176 1.64281 -0.544182 -4.308 
1.57842 -0.567508 -4.30362 1.51857 -0.576305 -4.29813 1.45773 -0.588273 -4.29289 
1.40197 -0.58398 -4.28642 1.34921 -0.570071 -4.27922 1.29699 -0.55443 -4.27189 
1.24556 -0.539587 -4.25724 1.19517 -0.528076 -4.22808 1.14417 -0.528473 -4.17767 
1.08945 -0.544103 -4.12102 1.03763 -0.543805 -4.07794 0.984298 -0.531734 -4.07088 
0.924625 -0.52335 -4.10101 0.859416 -0.526039 -4.14675 0.801925 -0.507345 -4.18348 
0.751307 -0.476615 -4.19715 0.693767 -0.474693 -4.19824 1.66121 -0.492435 -4.30433 
1.69078 -0.444173 -4.30225 1.7455 -0.405398 -4.30391 1.80853 -0.37965 -4.30788 
1.8683 -0.370716 -4.31335 1.92918 -0.358653 -4.31858 1.98555 -0.360995 -4.32491 
2.04246 -0.361604 -4.3311 2.10685 -0.338287 -4.33549 2.17417 -0.305555 -4.33916 
2.23935 -0.283038 -4.33623 2.29866 -0.285939 -4.32045 2.36033 -0.291238 -4.28271 
2.43024 -0.273517 -4.23583 2.50233 -0.245474 -4.19557 2.56959 -0.222918 -4.17787 
2.62965 -0.216757 -4.17617 2.68641 -0.21788 -4.1824 1.68953 -0.620633 -4.22395 
1.7366 -0.682643 -4.16835 1.78779 -0.714877 -4.1474 1.84015 -0.733364 -4.14756 
1.89231 -0.749216 -4.1549 1.94531 -0.765656 -4.15491 2.00044 -0.781963 -4.14014 
2.06089 -0.791155 -4.1027 2.12665 -0.786715 -4.05683 2.18714 -0.795802 -4.01937 
2.24284 -0.810271 -4.00447 2.29942 -0.815258 -4.00361 2.36102 -0.804185 -4.00153 
2.42269 -0.799527 -3.98519 2.48881 -0.790611 -3.94637 2.55367 -0.789046 -3.90072 
2.61981 -0.780026 -3.86189 2.68209 -0.773426 -3.8454 2.74784 -0.749062 -3.84232 
1.05484 0.681274 -4.11095 1.10287 0.652228 -4.11929 1.15384 0.632597 -4.12692 
1.20106 0.604255 -4.14259 1.2387 0.551939 -4.17483 1.27098 0.492404 -4.22977 
1.3049 0.441448 -4.29145 1.34466 0.405848 -4.34457 1.38579 0.36468 -4.37597 
1.43304 0.336443 -4.39164 1.4811 0.307501 -4.39997 1.52599 0.265079 -4.40194 
1.57703 0.235692 -4.38816 1.63394 0.215151 -4.35157 1.69519 0.205158 -4.30679 
1.76065 0.212363 -4.26809 1.82097 0.219452 -4.25133 1.87347 0.247813 -4.24639 
1.9025 0.294341 -4.24444 1.92086 0.345983 -4.24078 1.94005 0.396931 -4.22979 
1.97277 0.441995 -4.19841 2.03534 0.472675 -4.12687 2.11122 0.483094 -4.0065 
2.72514 -0.320239 -4.10032 2.72176 -0.384374 -4.00205 2.7288 -0.451094 -3.91266 
2.75664 -0.521842 -3.85594 2.78237 -0.589149 -3.83608 2.7931 -0.650247 -3.83641 
2.8099 -0.231333 -4.09974 2.88575 -0.204546 -4.03005 2.95623 -0.184976 -3.98305 
3.02163 -0.181668 -3.93727 3.088 -0.175295 -3.89125 3.14849 -0.184383 -3.8538 
3.20361 -0.200689 -3.83903 3.25744 -0.217824 -3.83171 3.31256 -0.23413 -3.81694 
3.37302 -0.243323 -3.77949 3.43877 -0.238892 -3.73362 3.50002 -0.248874 -3.68885 
3.5583 -0.268377 -3.6448 3.6184 -0.292009 -3.57891 3.68083 -0.318145 -3.49106 
3.74402 -0.345184 -3.3959 3.80509 -0.372358 -3.31552 3.86237 -0.408348 -3.24318 
3.91456 -0.4606 -3.17206 3.9693 -0.511383 -3.08608 4.02032 -0.579818 -2.98913 
4.07332 -0.662833 -2.85652 4.13706 -0.75867 -2.67899 2.03417 1.42676 -3.69287 
1.97079 1.4 -3.67398 1.91009 1.3918 -3.67584 1.8463 1.38038 -3.6927 
1.78542 1.37492 -3.70172 1.72379 1.36376 -3.7038 1.66745 1.3662 -3.69747 
1.61111 1.36866 -3.69114 1.55027 1.35668 -3.68589 1.49096 1.34962 -3.68028 
1.42958 1.33591 -3.67516 1.37024 1.32875 -3.66956 1.30882 1.31494 -3.66445 
1.24891 1.30594 -3.65898 1.18398 1.28088 -3.65473 1.11658 1.24794 -3.65107 
1.05162 1.22278 -3.64682 0.991164 1.21204 -3.64149 0.926745 1.18862 -3.63711 
0.862326 1.1652 -3.63273 0.801868 1.15446 -3.62739 0.736872 1.12919 -3.62315 
0.668907 1.09441 -3.61963 0.600398 1.0579 -3.61624 0.531858 1.02128 -3.61286 
0.46335 0.984771 -3.60947 0.395384 0.949992 -3.60595 0.330388 0.924724 -3.60171 
0.270687 0.91308 -3.58905 0.208058 0.885424 -3.56285 0.14482 0.845851 -3.5154 
0.0818312 0.803744 -3.46075 0.018809 0.761533 -3.40612 -0.0450026 0.720123 -3.35881 
-0.108026 0.677913 -3.30417 -0.170259 0.634902 -3.24221 2.07857 1.51854 -3.59021 
2.07008 1.56829 -3.44897 2.15827 1.4418 -3.66712 2.21654 1.42229 -3.62306 
2.27703 1.41321 -3.58561 2.34415 1.41868 -3.53228 2.41134 1.41775 -3.46468 
2.47982 1.42427 -3.40389 2.54468 1.42583 -3.35825 2.61161 1.43405 -3.3121 
2.67701 1.43735 -3.26632 2.74613 1.45588 -3.22678 2.8137 1.47611 -3.20187 
2.8781 1.48285 -3.17059 2.95019 1.50093 -3.10894 -0.0184714 -0.0754597 -3.64334 
-0.0124721 -0.0233397 -3.59334 -0.00582077 0.0279071 -3.53599 -0.0243769 0.0853113 -3.48277 
-0.0600265 0.137243 -3.45078 2.86343 -0.774552 -3.7901 2.91801 -0.812522 -3.73268 
2.97314 -0.848761 -3.67512 3.0243 -0.897673 -3.61852 3.07946 -0.933806 -3.56096 
3.13462 -0.96994 -3.5034 3.18581 -1.01876 -3.44679 3.24076 -1.05224 -3.39641 
3.29792 -1.07533 -3.35262 3.35538 -1.09412 -3.3159 3.41744 -1.10481 -3.2638 
3.48614 -1.10093 -3.19583 3.55569 -1.10426 -3.10626 3.62736 -1.10084 -3.01618 
3.69828 -1.10313 -2.91915 3.77404 -1.09124 -2.8186 3.85441 -1.08222 -2.68887 
3.9431 -1.08821 -2.52671 2.04645 1.68216 -3.32909 2.01073 1.75024 -3.31781 
1.98117 1.81331 -3.26527 1.96463 1.87033 -3.17734 1.9634 1.92439 -3.0589 
2.15476 1.64667 -3.30715 2.22567 1.68089 -3.28857 2.29899 1.71277 -3.24802 
2.3741 1.74489 -3.20014 2.4545 1.78419 -3.15955 -0.289998 0.544088 -3.07436 
-0.249044 0.641835 -3.00815 -0.261634 0.694513 -2.88864 -0.26442 0.748722 -2.82996 
-0.274476 0.806809 -2.79256 -0.27805 0.861818 -2.74122 -0.293006 0.916893 -2.64367 
2.66 1.86046 -2.97851 2.74735 1.8701 -2.85946 2.80949 1.84846 -2.79357 
2.85607 1.80456 -2.78089 2.89901 1.76587 -2.80473 2.93368 1.71401 -2.85908 
2.96457 1.65333 -2.92149 2.9957 1.59012 -2.9767 2.51215 1.91225 -3.02437 
2.48398 1.9704 -2.90259 2.45402 2.00306 -2.7684 2.41619 2.00508 -2.62921 
-0.38611 0.5022 -2.85876 -0.409996 0.512397 -2.72768 -0.412863 0.532924 -2.58274 
-0.432669 0.556215 -2.45067 -0.300743 0.417018 -2.87725 -0.25266 0.335108 -2.75647 
-0.211852 0.252586 -2.59751 3.08232 1.52506 -3.04559 3.14416 1.53359 -3.03633 
3.2062 1.5228 -2.98424 3.26605 1.5017 -2.92553 3.323 1.48126 -2.88894 
3.37597 1.46472 -2.88895 3.42658 1.45057 -2.91092 3.47797 1.43562 -2.92558 
3.53173 1.41828 -2.91828 3.58865 1.39773 -2.88168 3.64714 1.3756 -2.83044 
3.70642 1.35266 -2.77189 3.7657 1.32972 -2.71333 3.82576 1.30598 -2.64745 
3.88741 1.28064 -2.56692 3.95142 1.25291 -2.46443 2.0362 1.99513 -2.79672 
2.11306 2.00313 -2.7142 2.17404 1.99559 -2.68162 1.86891 1.99795 -2.87583 
1.81028 2.01049 -2.83817 1.76299 2.03203 -2.79826 1.72022 2.05712 -2.74346 
1.66984 2.05205 -2.67863 1.62175 2.051 -2.60612 1.57551 2.05586 -2.53316 
1.52544 2.05182 -2.46826 1.46578 2.0237 -2.41995 1.40022 1.98663 -2.39446 
1.3325 1.94932 -2.38374 1.26396 1.9127 -2.38036 1.19542 1.87609 -2.37698 
1.12687 1.83947 -2.37359 1.05833 1.80285 -2.37021 0.989038 1.76714 -2.37414 
0.918706 1.73476 -2.39259 0.848982 1.71429 -2.43227 0.782976 1.70905 -2.47821 
0.713251 1.68857 -2.51789 0.643708 1.65539 -2.52902 0.577003 1.61688 -2.50731 
0.511563 1.57378 -2.44501 0.43109 1.52652 -2.34783 0.228412 1.40643 -2.53396 
0.172532 1.36202 -2.76885 0.126855 1.32542 -2.90282 0.064764 1.29146 -2.96354 
-0.00262785 1.25506 -2.96775 -0.067124 1.21441 -2.92778 -0.125416 1.16741 -2.82921 
-0.178979 1.11561 -2.68671 -0.260832 1.0128 -2.51676 -0.179284 1.0882 -2.32247 
-0.117083 1.11381 -2.15401 -0.0628659 1.14521 -2.02902 -0.000580501 1.17866 -1.96462 
0.053766 1.219 -1.95858 0.0810719 1.27131 -1.99703 0.109338 1.32832 -2.06129 
0.182359 1.39114 -2.14098 -0.332757 0.912049 -2.4151 -0.365442 0.857878 -2.32756 
[...]
POINT_DATA 1038
SCALARS DY_raw double
LOOKUP_TABLE default
729.264 785.1 798.138 745.196 667.074 844.243 766.538 779.063 868.199 
726.806 794.912 854.972 640.819 783.064 750.218 726.761 628.757 567.597 
677.949 668 822.439 690.075 630.808 825.004 689.568 655.756 630.408 
1026.21 947.843 713.489 690.255 985.258 833.65 662.184 1099.23 646.366 
705.041 911.898 699.8 792.112 839.731 792.639 989.154 873.989 770.695 
569.46 648.971 638.295 927.28 832.229 687.918 681.438 804.961 844.623 
461.559 502.057 1010.98 1150.55 728.279 1163.62 982.995 1070.43 958.827 
692.414 677.143 1025.46 795.954 794.069 1044 832.722 809.397 905.29 
789.157 1345.95 878.666 1119.42 1205.61 951.39 764.096 707.887 876.831 
716.871 904.29 918.466 833.846 750.256 629.45 677.629 1685.45 603.946 
1253.51 818.851 663.195 725.483 756.911 756.911 761.428 743.102 671.095 
633.779 678.437 748.176 824.62 824.62 755.201 807.331 727.026 701.286 
745.626 745.626 748.044 854.647 890.439 900.193 912.078 912.078 894.826 
894.826 919.357 767.566 827.973 788.528 794.252 946.43 741.596 764.518 
796.822 603.946 839.741 778.639 842.487 842.487 732.596 785.619 749.629 
773.436 883.115 941.356 936.704 1034.2 905.972 851.742 894.69 822.762 
903.359 870.794 750.256 1121.89 1121.89 1046.95 1052.45 1122.5 1149.85 
1253.13 1233.75 1174.93 1170.69 1132.35 1037.39 1037.39 1108.09 1035.93 
1144.39 1038.56 927.139 932.207 837.35 869.394 984.786 1036.33 1350.95 
665.17 834.713 958.233 1007.34 921.105 806.989 722.272 704.239 857.201 
900.697 786.039 872.982 658.632 610.579 678.566 632.671 639.634 639.634 
536.006 719.297 789.591 607.141 741.625 602.752 597.165 712.487 587.706 
526.262 591.276 719.858 768.395 788.676 874.843 830.027 895.643 826.987 
826.687 804.031 798.867 817.148 834.283 834.283 832.459 938.208 1015.12 
915.078 866.308 956.53 874.654 886.523 1053.15 978.343 997.807 1100.64 
973.227 900.813 912.424 855.305 876.052 1018.39 1114 964.702 919.769 
983.485 853.32 792.689 889.426 699.078 750.831 750.055 754.554 796.423 
736.333 747.585 803.566 759.985 811.475 833.635 701.679 727.437 629.45 
642.407 737.681 819.964 811.217 751.171 762.834 837.622 809.013 865.762 
1001.49 934.436 884.451 948.123 756.967 803.507 727.846 586.22 638.18 
538.442 604.858 657.744 769.157 873.746 831.691 755.21 730.774 694.091 
918.466 901.488 838.593 778.514 739.263 929.03 1050.3 1080.97 1075.61 
992.353 922.498 1050.58 750.627 842.228 885.346 907.046 862.148 814.048 
803.063 803.063 801.759 929.53 1022.34 1190.54 1032.96 1170.52 1066.58 
823.095 934.442 1009.96 946.27 721.272 721.272 754.951 790.516 948.45 
903.973 903.973 874.645 761.281 829.504 844.781 766.136 848.711 802.223 
746.347 858.345 832.441 878.978 906.802 822.756 837.193 897.947 845.448 
958.707 974.34 966.863 977.081 923.181 812.118 797.173 638.203 616.79 
782.686 697.998 794.869 1001.4 849.804 831.308 869.463 798.566 838.066 
846.734 909.005 879.496 837.187 784.13 777.182 864.205 820.229 937.569 
1148.34 1205.61 1239.24 1439.31 1266.37 1513.47 1281.45 1276.51 1383.11 
1202.8 1119.9 1112.67 948.777 912.502 912.502 839.825 881.701 1012.93 
805.105 788.606 783.023 862.973 881.227 769.898 813.743 751.54 730.697 
726.296 714.969 796.218 807.27 845.351 959.807 923.912 831.195 794.011 
847.24 853.189 882.086 948.457 1008.84 813.02 824.485 770.69 732.742 
854.746 795.002 818.745 890.197 764.142 726.293 745.743 913.697 1032.61 
1061.53 1012.37 954.298 788.191 740.101 780.632 841.743 979.776 929.386 
852.909 775.204 745.819 772.951 773.215 898.78 898.111 1017 1006.88 
1105.3 620.341 554.163 513.678 555.086 617.975 604.673 700.299 999.343 
969.608 795.954 921.893 925.065 753.198 790.366 1116.19 1041.53 1139.75 
972.97 1026.89 1281.75 1248.59 1163 1042.14 984.364 1064.7 966.1 
973.513 1052.58 1004.62 927.455 1067.49 985.92 965.793 878.523 979.553 
896.163 886.344 1013.77 935.348 974.115 995.568 895.063 989.869 1041.28 
1062.41 1062.41 1080.89 975.99 1067 1008.92 929.115 929.115 821.827 
746.983 746.983 659.413 709.864 718.153 711.415 711.415 701.001 709.075 
709.075 819.26 818.728 776.309 787.197 787.197 747.537 815.505 842.83 
944.826 1003.2 1003.2 1039.73 1017.16 919.385 831.823 752.905 724.868 
724.868 710.563 840.766 861.231 908.217 977.042 1112.41 1007.13 1007.13 
1075.37 986.579 931.512 919.796 844.075 967.578 885.701 966.139 995.76 
876.292 946.861 871.655 888.338 888.338 773.878 807.706 884.904 830.63 
830.63 852.71 908.537 1002.65 982.627 1012.48 1115.11 1116.73 1283.56 
1252.18 1077.26 1075.45 1047.27 984.504 1067.29 929.744 938.907 956.721 
956.721 1062.54 1181.26 711.447 838.187 774.202 718.096 767.5 781.912 
764.312 786.385 771.086 763.443 786.538 784.316 749.214 705.601 696.559 
678.911 675.547 699.881 749.771 934.095 837.541 837.541 923.329 998.265 
1016.46 856.051 813.537 1125.52 1022.57 960.147 892.089 805.462 1032.83 
954.332 1023.63 921.323 907.231 845.164 739.443 638.041 702.994 796.214 
765.882 772.057 839.332 849.667 796.946 720.094 645.594 1169.78 1033.35 
981.027 729.45 787.596 878.107 821.552 918.972 909.617 890.703 1055.36 
949.392 849.522 910.009 860.094 796.92 856.64 911.848 865 930.161 
930.161 906.159 974.598 879.332 848.556 781.521 848.74 912.592 822.436 
848.355 1083.14 996.802 1018.81 1010.47 535.011 535.011 486.16 564.134 
602.289 597.224 743.401 521.594 565.587 623.029 618.932 823.387 931.419 
918.753 940.738 975.24 981.406 982.78 1012.73 1088.28 1088.28 1075.61 
1128.97 1128.97 1109.5 1063.3 999.755 870.281 765.644 787.038 778.616 
778.616 784.588 727.342 727.342 734.593 695.932 764.311 618.423 643.221 
623.563 647.249 714.511 814.396 777.433 759.606 799.84 742.645 723.317 
619.87 691.135 796.539 779.762 905.322 932.796 1009.24 1077.76 1108.91 
1133.89 1200.05 1226.58 1261.98 1105.73 1105.73 1026.13 884.757 822.45 
603.895 612.84 629.343 705.028 730.583 739.158 681.598 702.88 653.746 
703.645 719.298 726.203 713.873 713.873 686.894 694.621 715.891 684.721 
729.945 797.303 783.979 761.765 739.663 645.504 645.504 571.65 539.121 
573.142 506.779 482.693 515.202 471.032 422.012 484.921 542.848 571.806 
603.636 653.355 734.482 825.897 775.706 811.984 787.548 800.572 800.572 
791.623 744.815 695.405 843.846 816.929 817.903 774.403 858.808 805.258 
846.721 842.759 851.246 1016.6 585.201 783.409 792.639 825.901 610.702 
709.855 619.927 617.016 670.785 702.618 792.278 755.939 710.374 713.199 
792.374 626.226 594.316 640.578 642.069 647.974 772.704 642.288 608.257 
658.613 628.552 650.808 911.898 872.146 591.907 539.462 653.133 478.411 
458.666 542.956 511.787 584.041 531.147 531.147 529.911 534.997 534.997 
543.794 539.382 538.08 538.08 643.745 606.491 606.491 699.638 797.643 
862.956 862.956 812.662 757.834 774.603 778.986 721.89 773.573 753.789 
715.406 744.612 705.152 617.026 600.927 633.471 672.529 685.839 732.141 
734.906 697.941 631.608 625.543 631.499 670.354 659.306 813.502 640.761 
631.167 681.357 690.115 706.769 849.803 1099.23 956.07 956.07 922.979 
884.594 884.594 867.729 885.491 885.491 906.075 937.469 937.469 940.041 
957.359 1029.86 1002.53 1073.95 671.095 655.983 625.793 597.829 597.829 
594.424 616.528 746.334 745.835 723.514 656.311 696.953 706.683 686.783 
647.682 635.916 598.626 586.877 633.095 682.257 714.932 710.2 684.706 
600.13 577.345 624.489 604.59 684.061 640.158 640.158 658.235 640.77 
622.518 580.718 578.722 694.576 694.576 758.626 715.827 796.862 677.724 
709.341 840.899 859.475 859.475 751.159 701.986 688.468 815.865 830.665 
777.55 717.844 696.925 773.749 676.163 697.229 665.35 644.939 670.32 
646.556 772.811 810.077 783.091 711.55 690.444 921.131 818.861 771.746 
875.98 920.528 1020.43 1052.84 1052.84 979.557 904.783 844.004 766.656 
764.512 717.769 705.338 760.759 723.847 773.697 773.697 856.955 1016.26 
1072.71 1076.87 1007.57 971.637 907.823 908.429 908.429 871.125 930.244 
956.397 930.066 993.974 917.697 822.439 668.01 660.543 678.253 681.758 
681.758 645.105 660.33 641.711 603.35 607.275 646.626 630.23 560.151 
606.904 619.601 678.254 719.852 741.426 712.805 718.954 743.04 770.186 
641.213 592.073 564.005 565.005 598.125 695.941 686.094 707.725 690.297 
697.805 703.769 722.559 697.582 697.582 666.78 665.986 682.537 668.841 
746.417 761.857 728.833 697.202 783.193 689.291 680.047 679.207 670.3 
656.191 763.702 689.678 750.085 677.949 695.617 792.672 722.155 726.806 
807.101 785.613 793.789 741.405 757.944 746.932 746.932 758.748 758.748 
743.337 777.54 783.47 
FIELD FieldData 7
DY_minmax 1 1038 double
0.243187 0.287382 0.297701 0.255798 0.193965 0.334192 0.27269 0.282603 0.353153 
0.241242 0.295147 0.342685 0.173184 0.28577 0.259772 0.241206 0.163638 0.11523 
0.202572 0.194698 0.316935 0.21217 0.165261 0.318965 0.211769 0.185007 0.164944 
0.478217 0.416191 0.230702 0.212312 0.445805 0.325808 0.190094 0.536014 0.177574 
0.224015 0.387741 0.219867 0.292931 0.330621 0.293349 0.448889 0.357736 0.27598 
0.116704 0.179636 0.171186 0.399916 0.324683 0.210462 0.205334 0.303101 0.334493 
0.0313017 0.0633553 0.466165 0.576631 0.242408 0.586978 0.444013 0.513218 0.424885 
0.214022 0.201934 0.477624 0.295972 0.29448 0.492299 0.325074 0.306613 0.38251 
0.290593 0.731287 0.361438 0.551995 0.620212 0.418999 0.270757 0.226268 0.359986 
0.233379 0.38172 0.392939 0.325963 0.259803 0.164186 0.202319 1 0.143999 
0.658121 0.314095 0.190894 0.240195 0.26507 0.26507 0.268645 0.25414 0.197147 
0.167612 0.202959 0.258156 0.318661 0.318661 0.263716 0.304977 0.241416 0.221043 
0.256138 0.256138 0.258052 0.342427 0.370756 0.378477 0.387884 0.387884 0.374228 
0.374228 0.393645 0.273503 0.321315 0.290094 0.294625 0.415073 0.252948 0.271091 
0.296659 0.143999 0.330629 0.282267 0.332802 0.332802 0.245825 0.287793 0.259306 
0.278149 0.36496 0.411057 0.407375 0.484541 0.383051 0.340128 0.374121 0.31719 
0.380983 0.355207 0.259803 0.55395 0.55395 0.494632 0.498989 0.554428 0.57608 
0.65782 0.642482 0.59593 0.592575 0.562227 0.487067 0.487067 0.543022 0.485911 
0.571757 0.487992 0.399804 0.403815 0.328737 0.354099 0.445431 0.486224 0.735249 
0.192457 0.32665 0.424415 0.46328 0.395028 0.304706 0.237653 0.22338 0.344449 
0.378875 0.288124 0.356939 0.187283 0.14925 0.20306 0.166735 0.172246 0.172246 
0.0902252 0.235298 0.290936 0.146528 0.252971 0.143055 0.138633 0.229909 0.131146 
0.0825134 0.133971 0.235743 0.27416 0.290212 0.358412 0.322941 0.374875 0.320535 
0.320298 0.302365 0.298278 0.312747 0.326309 0.326309 0.324866 0.408565 0.469443 
0.390258 0.351657 0.423067 0.358262 0.367657 0.49954 0.440332 0.455738 0.537129 
0.436282 0.378967 0.388157 0.342948 0.359369 0.472028 0.5477 0.429535 0.393971 
0.444402 0.341377 0.293388 0.369954 0.219295 0.260258 0.259643 0.263204 0.296344 
0.248783 0.257689 0.301997 0.267503 0.308257 0.325796 0.221355 0.241742 0.164186 
0.174441 0.24985 0.314976 0.308053 0.260527 0.269758 0.328952 0.306308 0.351225 
0.458654 0.405579 0.366017 0.416413 0.265115 0.301951 0.242066 0.12997 0.171095 
0.092154 0.144722 0.18658 0.274763 0.357544 0.324258 0.263723 0.244383 0.215349 
0.392939 0.379501 0.329721 0.282168 0.251102 0.401301 0.497284 0.521556 0.517314 
0.45142 0.396131 0.497505 0.260096 0.332598 0.366725 0.3839 0.348364 0.310293 
0.301599 0.301599 0.300567 0.401696 0.475154 0.608281 0.483557 0.592441 0.510173 
0.317454 0.405584 0.465356 0.414946 0.236862 0.236862 0.263519 0.291668 0.416672 
0.381468 0.381468 0.358256 0.268529 0.322527 0.334618 0.272372 0.337729 0.300934 
0.256708 0.345354 0.324852 0.361685 0.383708 0.317186 0.328612 0.376699 0.335146 
0.42479 0.437163 0.431245 0.439333 0.396671 0.308766 0.296937 0.171113 0.154166 
0.285471 0.218441 0.295114 0.458583 0.338594 0.323955 0.354154 0.29804 0.329304 
0.336164 0.385451 0.362095 0.328607 0.286614 0.281114 0.349992 0.315186 0.408059 
0.574885 0.620212 0.646833 0.805187 0.668302 0.863882 0.680241 0.676325 0.760699 
0.617987 0.552374 0.546651 0.41693 0.388219 0.388219 0.330696 0.363841 0.467704 
0.303215 0.290157 0.285738 0.349018 0.363465 0.275349 0.310052 0.260819 0.244322 
0.240839 0.231873 0.296181 0.304929 0.335069 0.425661 0.39725 0.323865 0.294435 
0.336564 0.341273 0.364145 0.416677 0.464466 0.30948 0.318554 0.275976 0.245941 
0.342506 0.295219 0.314011 0.370564 0.270794 0.240836 0.256231 0.389165 0.483283 
0.506172 0.467265 0.4213 0.289828 0.251765 0.283845 0.332214 0.441466 0.401583 
0.341052 0.279549 0.25629 0.277766 0.277975 0.377358 0.376828 0.470928 0.46292 
0.540815 0.156976 0.104596 0.0725531 0.105327 0.155103 0.144575 0.220262 0.456953 
0.433418 0.295972 0.395652 0.398162 0.262132 0.29155 0.549438 0.490347 0.568082 
0.436079 0.478756 0.68048 0.654232 0.586485 0.490824 0.445097 0.508679 0.430641 
0.436508 0.499089 0.461133 0.400054 0.510888 0.446329 0.430398 0.361325 0.44129 
0.375287 0.367515 0.468368 0.406301 0.436985 0.453965 0.374417 0.449454 0.49015 
0.50687 0.50687 0.521495 0.438469 0.510504 0.464532 0.401368 0.401368 0.316451 
0.257212 0.257212 0.187901 0.227833 0.234394 0.229061 0.229061 0.220817 0.227208 
0.227208 0.314419 0.313998 0.280423 0.289041 0.289041 0.25765 0.311447 0.333075 
0.413803 0.460003 0.460003 0.488921 0.471057 0.393667 0.324362 0.261899 0.239708 
0.239708 0.228386 0.331441 0.347638 0.384827 0.439302 0.546441 0.46312 0.46312 
0.517128 0.44685 0.403265 0.393992 0.33406 0.431811 0.367007 0.430672 0.454117 
0.359559 0.415414 0.355889 0.369093 0.369093 0.278499 0.305274 0.366375 0.323418 
0.323418 0.340894 0.385081 0.459574 0.443723 0.467353 0.548583 0.549865 0.681905 
0.657069 0.518621 0.517195 0.49489 0.445208 0.510736 0.401866 0.409118 0.423218 
0.423218 0.506973 0.600941 0.229085 0.3294 0.278756 0.234348 0.273451 0.284858 
0.270928 0.288398 0.27629 0.27024 0.28852 0.286761 0.258978 0.224459 0.217302 
0.203334 0.200671 0.219931 0.259419 0.40531 0.328888 0.328888 0.396789 0.4561 
0.470499 0.343538 0.309889 0.55682 0.475335 0.42593 0.372062 0.303498 0.483457 
0.421327 0.476174 0.395201 0.384047 0.334921 0.251244 0.170985 0.222395 0.296178 
0.27217 0.277058 0.330306 0.338486 0.296758 0.23593 0.176963 0.59185 0.483872 
0.442456 0.243335 0.289357 0.360996 0.316233 0.39334 0.385936 0.370965 0.501288 
0.417417 0.338371 0.386246 0.346739 0.296737 0.344005 0.387701 0.350621 0.402196 
0.402196 0.383199 0.437368 0.361965 0.337606 0.284548 0.337752 0.38829 0.316933 
0.337447 0.523275 0.454941 0.472361 0.465764 0.0894381 0.0894381 0.0507731 0.112488 
0.142688 0.138679 0.254377 0.0788186 0.113639 0.159104 0.155861 0.317686 0.403191 
0.393167 0.410567 0.437876 0.442756 0.443843 0.467546 0.527342 0.527342 0.517317 
0.55955 0.55955 0.544138 0.507575 0.457279 0.354801 0.271982 0.288915 0.282249 
0.282249 0.286976 0.241666 0.241666 0.247405 0.216806 0.270927 0.155458 0.175085 
0.159526 0.178273 0.231511 0.310569 0.281313 0.267203 0.299048 0.253779 0.238481 
0.156603 0.213009 0.296435 0.283156 0.382536 0.404281 0.464787 0.519018 0.543673 
0.563442 0.615811 0.636807 0.664824 0.541159 0.541159 0.478154 0.366259 0.316944 
0.143959 0.151039 0.164101 0.224005 0.244232 0.251019 0.20546 0.222305 0.183415 
0.22291 0.2353 0.240765 0.231006 0.231006 0.209652 0.215768 0.232603 0.207932 
0.243727 0.29704 0.286494 0.268912 0.251418 0.176892 0.176892 0.118437 0.0926911 
0.119618 0.0670929 0.0480289 0.0737593 0.0387991 0 0.0497918 0.0956409 0.118561 
0.143754 0.183106 0.247317 0.319672 0.279946 0.308659 0.289319 0.299627 0.299627 
0.292545 0.255496 0.216389 0.333878 0.312574 0.313345 0.278915 0.345721 0.303336 
0.336154 0.333018 0.339736 0.470609 0.129163 0.286043 0.293349 0.319675 0.149347 
0.227826 0.156648 0.154345 0.196902 0.222097 0.293062 0.264301 0.228236 0.230472 
0.293138 0.161634 0.136377 0.172994 0.174174 0.178848 0.27757 0.174347 0.147412 
0.187268 0.163475 0.18109 0.387741 0.356278 0.134471 0.0929608 0.182931 0.0446394 
0.0290114 0.0957261 0.0710566 0.128245 0.0863796 0.0863796 0.0854011 0.0894269 0.0894269 
0.0963894 0.0928973 0.0918671 0.0918671 0.1755 0.146014 0.146014 0.219739 0.297309 
0.349003 0.349003 0.309196 0.2658 0.279073 0.282542 0.237351 0.278258 0.262599 
0.232219 0.255335 0.224103 0.154352 0.14161 0.167368 0.198283 0.208817 0.245465 
0.247653 0.218396 0.165894 0.161094 0.165808 0.196561 0.187817 0.309861 0.173138 
0.165544 0.20527 0.212201 0.225383 0.338593 0.536014 0.422703 0.422703 0.396511 
0.36613 0.36613 0.352781 0.36684 0.36684 0.383132 0.40798 0.40798 0.410016 
0.423723 0.481107 0.459473 0.516005 0.197147 0.185187 0.161291 0.139158 0.139158 
0.136463 0.153958 0.256698 0.256304 0.238636 0.185446 0.217614 0.225315 0.209564 
0.178616 0.169303 0.139789 0.130489 0.167071 0.205982 0.231844 0.228099 0.20792 
0.140979 0.122945 0.160259 0.144509 0.20741 0.172661 0.172661 0.186968 0.173146 
0.158699 0.125615 0.124035 0.215732 0.215732 0.266427 0.232552 0.296691 0.202394 
0.227419 0.331546 0.346249 0.346249 0.260517 0.221597 0.210898 0.311732 0.323445 
0.281406 0.234149 0.217591 0.278397 0.201158 0.217833 0.1926 0.176445 0.196534 
0.177725 0.277655 0.307151 0.285791 0.229167 0.212462 0.395048 0.314103 0.276812 
0.359312 0.394572 0.473647 0.499294 0.499294 0.441293 0.382109 0.334004 0.272783 
0.271086 0.23409 0.22425 0.268116 0.2389 0.278356 0.278356 0.344254 0.470345 
0.515024 0.518312 0.463465 0.435024 0.384516 0.384995 0.384995 0.35547 0.402262 
0.422962 0.402121 0.452703 0.39233 0.316935 0.194706 0.188796 0.202812 0.205587 
0.205587 0.176576 0.188627 0.173891 0.143528 0.146634 0.17778 0.164803 0.109336 
0.146341 0.15639 0.202814 0.235738 0.252814 0.230161 0.235028 0.254091 0.275577 
0.173496 0.134602 0.112386 0.113178 0.139392 0.216813 0.209019 0.226139 0.212346 
0.218288 0.223009 0.237881 0.218112 0.218112 0.193732 0.193104 0.206203 0.195364 
0.256764 0.268985 0.242846 0.217811 0.285872 0.211549 0.204233 0.203568 0.196518 
0.185351 0.270445 0.211856 0.259667 0.202572 0.216556 0.293374 0.237561 0.241242 
0.304795 0.287788 0.294259 0.252797 0.265888 0.257171 0.257171 0.266524 0.266524 
0.254326 0.281398 0.286091 
WidthEq 1 1038 double
2.09581 2.20057 2.05169 1.92615 2.39554 2.33734 2.12893 2.32694 1.777 
2.19457 1.96048 1.17915 2.08017 2.47478 2.68123 2.38803 2.17723 1.81741 
2.07156 3.03684 2.36723 2.32566 3.24577 2.45484 1.68475 3.22838 2.78523 
3.22332 2.81771 3.18481 3.13859 2.64301 2.23675 2.62998 2.64021 3.30118 
2.83788 1.16056 3.19677 2.41764 2.60065 3.37906 3.18362 2.68681 3.42191 
2.65799 2.17731 2.55999 3.47479 3.31381 3.3083 1.82843 3.60943 1.55073 
3.05785 2.12249 6.0285 1.60956 5.67465 2.63968 3.76428 4.61874 3.16597 
4.06512 3.68483 3.99544 2.90925 4.01823 4.42335 4.88436 4.59193 6.15001 
5.25051 1.85656 2.37889 4.13303 3.81758 2.47943 4.16471 3.84712 5.70016 
5.47108 4.9735 4.00443 3.33534 3.909 6.14024 4.78462 1 3.25463 
2.11274 2.92979 3.30447 3.25471 3.25464 3.25464 3.02957 2.87764 3.05346 
3.08871 3.11426 2.97205 3.15681 3.15681 3.64161 4.00395 4.28241 4.30137 
3.57238 3.57238 3.16523 2.90733 2.90015 2.89428 2.8519 2.8519 2.81061 
2.81061 2.50478 2.57541 2.22052 2.04264 2.21464 1.98568 2.62103 2.80294 
2.6157 3.25463 3.16881 3.13676 3.06767 3.06767 3.21907 3.2845 3.36342 
3.3809 3.23119 2.99361 2.88761 2.78822 2.72773 2.7874 2.78402 3.11035 
2.97191 3.25008 3.909 2.76983 2.76983 3.18269 2.98192 2.9698 2.4399 
2.25111 2.36565 2.42474 2.58559 2.66982 2.81119 2.81119 2.82007 3.04924 
2.92062 3.00645 2.98944 2.86875 2.82783 2.74928 2.63592 2.35836 1.72294 
3.30842 2.78493 2.59211 2.47395 2.99942 3.22426 3.24241 3.17629 2.83301 
2.57964 2.99509 2.813 3.34432 3.31442 3.19007 3.20993 3.1488 3.1488 
3.24478 3.07706 3.16137 3.74809 3.43958 3.73908 3.6435 3.61469 3.8452 
3.94913 3.89187 4.56359 4.30289 3.74971 3.41932 3.45161 3.20136 3.30762 
3.28157 3.24832 3.39789 3.36638 3.28563 3.28563 3.23927 3.015 2.81153 
3.03944 3.08629 2.88723 3.13376 3.11234 2.96774 3.03128 3.02284 2.94835 
3.21572 3.3502 3.27006 3.33792 3.23941 3.10065 2.93411 3.18284 3.67611 
3.72739 4.55057 4.61207 4.16394 4.82088 4.7103 4.22562 3.92057 4.06917 
3.73042 3.72764 3.54786 3.50025 3.3878 3.58113 3.88626 4.17927 6.14024 
5.98357 5.30885 4.55105 3.81951 3.97678 3.63406 3.65028 3.5016 3.36942 
3.10393 3.55029 3.77097 3.61186 4.32502 4.2519 4.51223 4.70149 4.70154 