# vtk DataFile Version 3.0
vtk output
ASCII
DATASET POLYDATA
POINTS 565 float
1.18752 -0.213295 1.364 1.61767 -0.0700232 1.37609 1.97118 -1.76993 0.54011 
0.293508 -0.76755 0.708055 2.96702 0.318724 0.804115 2.80266 -1.81206 0.376701 
3.9829 -0.677739 0.489016 -0.654212 -0.397529 0.0171037 0.00955941 0.755393 0.269344 
2.02167 -2.04434 -0.547421 4.21649 -0.599518 -0.241892 -0.815736 -0.206934 -0.49773 
-0.838824 0.0935059 -0.901285 -0.699603 -0.750461 -0.690717 -0.611772 0.243763 -0.585221 
4.01978 0.276034 -0.616281 4.26947 -0.801561 -0.733193 1.62912 -1.8385 -1.09243 
3.68598 -1.5683 -1.0789 -0.791475 -0.276103 -1.04167 -0.750764 0.381271 -1.10588 
0.0575808 1.00488 -1.19283 3.40249 -1.70418 -1.22539 4.3634 -0.586975 -1.11327 
0.521965 1.27393 -1.08711 1.34872 1.28359 -1.09223 2.91603 -1.8305 -1.43639 
-0.696902 -0.0675457 -1.62354 4.17038 -0.230217 -1.47602 -0.272604 -0.555551 -1.6788 
2.69373 -1.80515 -1.83431 -0.434295 0.575657 -1.82501 -0.181425 0.869658 -1.79551 
6.24432 -0.170938 -2.15562 6.95076 -0.0335338 -2.14621 -0.353718 0.489534 -2.17004 
-0.0206409 0.698367 -2.15023 0.262455 -0.57063 -2.35487 0.556293 -0.210099 -2.54206 
2.59504 0.171084 -2.22601 0.657357 0.260651 -2.40315 2.28106 0.661617 -2.37244 
7.02498 0.197806 -2.52435 0.955598 -0.023853 -2.63689 7.10494 0.214221 -2.64735 
7.16929 0.191516 -2.7322 7.21739 0.145236 -2.75737 7.2478 0.0902597 -2.73863 
7.28329 0.0342214 -2.70763 7.31149 -0.0208039 -2.69137 7.34269 -0.0740143 -2.68983 
7.34517 -0.129465 -2.68832 7.31255 -0.189236 -2.67211 7.27633 -0.251551 -2.6338 
7.25312 -0.312396 -2.58052 7.21369 -0.361486 -2.51842 7.16144 -0.373469 -2.44482 
7.10633 -0.347571 -2.35969 7.06203 -0.308595 -2.25836 7.04458 -0.265492 -2.15677 
7.03877 -0.220276 -2.06499 7.03191 -0.168969 -2.02469 7.00859 -0.107383 -2.0552 
0.898594 0.0257626 -2.62372 0.851495 0.0753599 -2.60318 0.81962 0.124564 -2.56789 
0.772685 0.171803 -2.52524 0.715901 0.216691 -2.46788 0.903669 -0.0648827 -2.67813 
0.850488 -0.0936614 -2.69157 0.793098 -0.130967 -2.67112 0.705757 -0.164552 -2.61446 
1.01043 -0.0195745 -2.63684 1.06526 -0.0152959 -2.6368 1.12009 -0.0109081 -2.63674 
1.17478 -0.00482525 -2.63649 1.22884 0.00935616 -2.63538 1.2825 0.0286531 -2.63372 
1.33851 0.0179133 -2.63529 1.39412 0.0122891 -2.6363 1.44909 0.0147634 -2.63645 
1.50393 0.0189328 -2.63641 1.55876 0.0232114 -2.63636 1.6136 0.02749 -2.63631 
1.66843 0.0317686 -2.63626 1.72326 0.0360472 -2.63622 1.7781 0.0403257 -2.63617 
1.83293 0.0446043 -2.63612 1.8877 0.0497785 -2.64342 1.94228 0.0575428 -2.6579 
1.99602 0.0760067 -2.67868 2.04869 0.108006 -2.68311 2.10251 0.125237 -2.67422 
2.15643 0.140896 -2.6506 2.20927 0.170546 -2.63293 2.26324 0.185854 -2.62424 
2.31797 0.191369 -2.61661 2.37281 0.19531 -2.59425 2.42711 0.205801 -2.54139 
2.48061 0.226242 -2.45766 2.53641 0.216802 -2.34734 6.99945 0.0827764 -2.33282 
6.95285 0.248848 -2.58293 6.89259 0.255312 -2.62649 6.83896 0.227026 -2.64897 
6.78584 0.200452 -2.66383 6.7333 0.167075 -2.6819 6.68016 0.141305 -2.70661 
6.62767 0.107142 -2.71731 6.57475 0.0783353 -2.71254 6.52238 0.0421538 -2.68622 
6.46876 0.0219086 -2.65073 6.41467 0.00685665 -2.58737 6.36103 -0.0225066 -2.48829 
6.3061 -0.0866316 -2.33829 2.33594 0.665218 -2.36501 2.3908 0.668942 -2.34268 
2.44518 0.678406 -2.29738 2.49928 0.691411 -2.23679 2.55579 0.673495 -2.17208 
2.61204 0.65887 -2.10701 2.66838 0.643227 -2.0495 2.7257 0.615057 -2.00079 
2.7818 0.602692 -1.95783 2.83731 0.59764 -1.90664 2.89346 0.584478 -1.8563 
2.95073 0.557105 -1.81496 3.0068 0.545285 -1.79429 3.06277 0.534939 -1.78836 
3.11987 0.510252 -1.79142 3.1767 0.488865 -1.79413 3.23487 0.450548 -1.79865 
3.29381 0.402218 -1.80425 3.35295 0.351298 -1.80268 3.4122 0.298696 -1.78639 
3.47152 0.243726 -1.74801 3.52907 0.187828 -1.70225 3.57661 0.13194 -1.66387 
3.60886 0.0773402 -1.6476 3.65597 0.0272965 -1.64584 3.71222 -0.0112802 -1.65038 
3.7691 -0.0345883 -1.65329 3.82712 -0.0710919 -1.65762 3.88513 -0.107496 -1.66194 
3.94202 -0.129659 -1.65728 3.99942 -0.15852 -1.63844 4.05644 -0.1827 -1.59675 
4.11397 -0.21358 -1.54088 0.608432 0.209096 -2.47534 0.571512 0.153733 -2.50333 
0.560131 0.0956913 -2.4904 0.55208 0.0323456 -2.4731 0.538788 -0.0588385 -2.49018 
0.689442 0.325125 -2.46356 0.686567 0.38608 -2.51662 0.655046 0.442427 -2.54762 
0.625139 0.494157 -2.53443 0.578424 0.539831 -2.47705 0.521813 0.582252 -2.39761 
0.463372 0.624977 -2.34046 0.40547 0.659808 -2.32141 0.349446 0.670941 -2.33471 
0.294399 0.669471 -2.34191 0.23966 0.663837 -2.32719 0.184933 0.656788 -2.28285 
0.128152 0.659389 -2.22999 0.0619729 0.681197 -2.18247 0.451917 -0.332249 -2.50631 
0.381857 -0.417707 -2.46525 0.324632 -0.490615 -2.41467 0.33665 -0.649052 -2.33152 
0.39924 -0.709819 -2.32356 0.447141 -0.760974 -2.3418 0.47897 -0.808934 -2.38937 
0.525739 -0.855394 -2.43938 0.580819 -0.903578 -2.46729 0.628083 -0.957116 -2.45101 
0.660408 -1.01419 -2.41264 0.706012 -1.07023 -2.37427 0.751451 -1.12391 -2.35799 
0.783556 -1.17784 -2.34908 0.830875 -1.23217 -2.32544 0.886613 -1.28979 -2.26496 
0.934425 -1.35119 -2.17502 0.967188 -1.41455 -2.07774 1.01318 -1.4761 -1.9878 
1.05916 -1.53764 -1.89787 1.09197 -1.60169 -1.79321 1.1399 -1.66342 -1.68096 
1.19687 -1.71255 -1.56744 1.25344 -1.73313 -1.46576 1.30921 -1.74199 -1.36283 
1.36491 -1.74996 -1.26724 1.42144 -1.76753 -1.17517 1.48031 -1.79815 -1.11432 
1.54621 -1.81727 -1.08706 0.17904 -0.543327 -2.3116 0.116044 -0.562345 -2.26102 
0.0609853 -0.582061 -2.18573 0.00607584 -0.587466 -2.07912 -0.0501179 -0.575678 -1.95824 
-0.105975 -0.56812 -1.84527 -0.16245 -0.552291 -1.76122 -0.217832 -0.550149 -1.70843 
-0.0831675 0.625778 -2.15751 -0.138147 0.564061 -2.16369 -0.190429 0.518383 -2.16818 
-0.244217 0.500223 -2.16972 -0.298893 0.493922 -2.16998 -0.0559231 0.767365 -2.05071 
-0.110659 0.819902 -1.93295 -0.401465 0.528818 -2.00408 -0.403797 0.423656 -2.10965 
-0.453941 0.358674 -2.05662 -0.504335 0.29707 -2.01812 -0.555504 0.246958 -1.99329 
-0.605962 0.211042 -1.9595 -0.644791 0.154099 -1.8908 -0.665873 0.0653484 -1.77347 
6.87606 -0.118842 -2.02563 6.81636 -0.180452 -1.94237 6.76258 -0.216156 -1.8986 
6.71012 -0.251957 -1.8772 6.65637 -0.270411 -1.85643 6.60159 -0.275476 -1.84911 
6.54579 -0.267261 -1.85527 6.48848 -0.24122 -1.88433 6.42947 -0.226431 -1.93695 
6.35446 -0.208562 -2.03133 6.20409 -0.198693 -1.86526 6.15534 -0.224023 -1.64411 
6.1023 -0.244133 -1.50928 6.04891 -0.267313 -1.42693 5.99584 -0.294814 -1.36987 
5.9411 -0.300728 -1.3254 5.88791 -0.326318 -1.30539 5.83498 -0.355125 -1.30062 
5.78332 -0.399978 -1.30502 5.73167 -0.445039 -1.30945 5.67899 -0.476895 -1.31246 
5.62749 -0.52377 -1.31708 5.57662 -0.578744 -1.32257 5.52511 -0.625619 -1.32719 
5.47238 -0.656689 -1.33757 5.42056 -0.699391 -1.36409 5.36858 -0.739625 -1.41269 
5.31536 -0.763963 -1.46705 5.26245 -0.792381 -1.51438 5.20838 -0.806226 -1.5378 
5.15364 -0.811532 -1.54541 5.09866 -0.813996 -1.54527 5.04291 -0.806459 -1.54405 
4.98592 -0.783106 -1.54858 4.93 -0.77321 -1.56945 4.87474 -0.771534 -1.60612 
4.81952 -0.770645 -1.63541 4.76377 -0.763097 -1.63419 4.70705 -0.743587 -1.60188 
4.65146 -0.738736 -1.55625 4.59573 -0.731971 -1.51042 4.53815 -0.701758 -1.44716 
4.47982 -0.662188 -1.36056 4.42156 -0.623849 -1.24429 -0.115885 0.934668 -1.60032 
-0.0429641 0.978029 -1.39957 -0.256728 0.79273 -1.77336 -0.316628 0.72592 -1.76763 
-0.372487 0.658142 -1.78687 -0.512879 0.540029 -1.69164 -0.574775 0.50576 -1.57317 
-0.628524 0.460023 -1.45349 -0.685589 0.422178 -1.29818 2.74884 -1.8048 -1.79744 
2.80422 -1.80838 -1.72374 2.85999 -1.81748 -1.59848 -0.331586 -0.505299 -1.67299 
-0.388755 -0.454906 -1.66719 -0.435964 -0.403736 -1.66137 -0.467959 -0.351378 -1.65554 
-0.513356 -0.299907 -1.64971 -0.560901 -0.245711 -1.64357 -0.608215 -0.173814 -1.63554 
-0.319717 -0.634637 -1.4932 -0.35709 -0.711384 -1.32232 -0.379522 -0.784482 -1.17351 
-0.417336 -0.855165 -1.03923 -0.466292 -0.911322 -0.918224 -0.520247 -0.926602 -0.815151 
-0.577498 -0.899288 -0.744768 -0.63417 -0.854163 -0.709729 -0.679382 -0.803738 -0.696556 
-0.794646 0.0210169 -1.45318 -0.844419 0.0678165 -1.21315 -0.743711 -0.177967 -1.32954 
2.85966 -1.81736 -1.23343 2.80518 -1.82834 -1.0405 2.75139 -1.8479 -0.878291 
2.69738 -1.86397 -0.76786 2.64303 -1.87488 -0.723926 2.58912 -1.89098 -0.725243 
2.53616 -1.91895 -0.757635 2.48209 -1.93269 -0.781045 2.42735 -1.9381 -0.788667 
2.37281 -1.94652 -0.751909 2.31863 -1.9599 -0.685883 2.26533 -1.98686 -0.602697 
2.21072 -2.03404 -0.547729 2.13712 -2.0652 -0.531883 2.97108 -1.82903 -1.42919 
3.02699 -1.83882 -1.40831 3.08415 -1.86496 -1.35938 3.13953 -1.86855 -1.28567 
3.19307 -1.84868 -1.19456 3.24732 -1.83774 -1.12675 3.30109 -1.82006 -1.10291 
3.35241 -1.77028 -1.14267 1.29366 1.28257 -1.12173 1.23862 1.28099 -1.12894 
1.18298 1.28695 -1.11299 1.12616 1.30795 -1.09543 1.07046 1.31459 -1.08685 
1.01563 1.31031 -1.0869 0.961712 1.29432 -1.08821 0.908976 1.2632 -1.09114 
0.855066 1.24711 -1.09245 0.800375 1.24101 -1.09269 0.7454 1.23855 -1.09255 
0.689643 1.24609 -1.09133 0.632713 1.26865 -1.0885 0.576956 1.27619 -1.08727 
-0.809661 0.291243 -1.09147 -0.830663 0.203419 -1.02247 4.31573 -0.656617 -1.01605 
4.27996 -0.728494 -0.889361 4.38351 -0.552413 -0.9061 4.35261 -0.527119 -0.69209 
4.29252 -0.532928 -0.468774 3.61606 -1.54418 -1.25956 3.55801 -1.56516 -1.38802 
3.50537 -1.60593 -1.41929 3.45315 -1.64496 -1.35353 3.45916 -1.72488 -1.10137 
3.51581 -1.74441 -1.00207 3.56932 -1.71499 -0.957108 3.62418 -1.65126 -0.987964 
1.69667 -1.82828 -1.2607 1.75553 -1.81484 -1.38634 1.81063 -1.80448 -1.45021 
1.86567 -1.80241 -1.44792 1.92187 -1.81635 -1.39022 1.97954 -1.85313 -1.27911 
2.03259 -1.89352 -1.10503 2.05798 -1.95995 -0.855289 -0.677695 0.316387 -0.842685 
-0.826307 -0.330512 -1.07702 -0.836085 -0.381386 -1.12707 -0.832155 -0.431188 -1.17712 
-0.814296 -0.483068 -1.19769 -0.770781 -0.540061 -1.15195 -0.726772 -0.604132 -1.03992 
-0.707433 -0.675662 -0.876363 -0.822601 -0.246592 -0.77258 3.76474 -1.53671 -1.05128 
3.82705 -1.50961 -1.0414 3.88001 -1.4638 -1.04932 3.93159 -1.41826 -1.04981 
3.98234 -1.38655 -1.0468 4.02201 -1.34128 -1.03481 4.04569 -1.28572 -1.03651 
4.08438 -1.22795 -1.03063 4.13298 -1.1701 -1.01736 4.18168 -1.11382 -0.989366 
4.22043 -1.05831 -0.961382 4.24209 -1.00493 -0.926045 4.26535 -0.953002 -0.87598 
4.26362 -0.903819 -0.81856 4.24835 -0.854901 -0.76853 1.69958 -1.86972 -0.892657 
1.76185 -1.90117 -0.728857 1.82447 -1.94975 -0.620283 1.90446 -2.00084 -0.567981 
4.26443 -0.764689 -0.562844 4.24986 -0.72411 -0.421827 4.22311 -0.672407 -0.319258 
3.96387 0.285594 -0.614844 3.90683 0.309396 -0.604425 3.85032 0.326391 -0.579843 
3.79362 0.345465 -0.525238 3.73825 0.34717 -0.45014 3.68305 0.346508 -0.35296 
3.62666 0.360972 -0.254146 3.57055 0.372037 -0.155706 3.51314 0.39978 -0.0703609 
3.45568 0.428312 0.00760644 3.39939 0.441835 0.0839626 3.34275 0.459685 0.168246 
3.28678 0.468926 0.266489 3.23041 0.483182 0.365281 3.17542 0.47971 0.469613 
3.12131 0.465099 0.565306 3.06827 0.436869 0.659526 3.01721 0.383256 0.736138 
-0.66517 0.184347 -0.587446 -0.734909 0.134725 -0.692795 -0.599128 0.286052 -0.454151 
-0.5614 0.330065 -0.337988 -0.511278 0.367454 -0.244972 -0.458169 0.391538 -0.168304 
-0.406177 0.431444 -0.0973796 -0.355007 0.48193 -0.0327719 -0.303946 0.533991 0.0170996 
-0.252284 0.578615 0.0438262 -0.199496 0.608899 0.0615706 -0.147684 0.651601 0.0880908 
-0.0957069 0.691944 0.136705 -0.042582 0.71741 0.198626 -0.702929 -0.709309 -0.559649 
-0.706421 -0.667377 -0.43596 -0.711726 -0.624007 -0.326987 -0.725079 -0.580666 -0.222936 
-0.741214 -0.534676 -0.133477 -0.712003 -0.476234 -0.0529516 -0.817938 -0.0180947 -0.74325 
-0.81082 -0.110839 -0.60794 -0.734974 -0.302231 -0.240313 4.14643 -0.57828 -0.00320237 
4.0872 -0.587853 0.197359 4.03374 -0.620266 0.355713 2.03655 -1.98791 -0.224899 
2.03998 -1.94718 0.0289918 2.03601 -1.90938 0.208131 2.02155 -1.86769 0.335608 
1.99366 -1.8215 0.44877 -0.571823 -0.413222 0.10917 -0.508508 -0.399878 0.199521 
-0.452543 -0.393521 0.279244 -0.397104 -0.396909 0.350488 -0.340853 -0.411524 0.415559 
-0.283335 -0.442295 0.471444 -0.226317 -0.466475 0.513131 -0.168914 -0.495336 0.531969 
-0.112069 -0.516821 0.529252 -0.0540259 -0.553458 0.510013 0.0046584 -0.598301 0.489884 
0.0629286 -0.638192 0.500095 0.120301 -0.666996 0.548739 0.178861 -0.711253 0.61807 
0.237169 -0.752135 0.672869 3.92606 -0.630483 0.524284 3.87918 -0.584031 0.574286 
3.84762 -0.537964 0.639038 3.80284 -0.493721 0.711146 3.75801 -0.448799 0.775875 
3.72644 -0.402287 0.818327 3.68021 -0.363719 0.830232 3.62508 -0.339375 0.825799 
3.56708 -0.301735 0.837693 3.50836 -0.256551 0.872754 3.44955 -0.210349 0.915376 
3.39062 -0.162465 0.943274 3.33158 -0.113009 0.956447 3.27249 -0.0627661 0.962251 
3.2135 -0.0125142 0.968056 3.1565 0.0371006 0.98123 3.11133 0.0868494 1.00177 
3.09122 0.138553 1.02235 3.07084 0.194188 1.00608 3.02496 0.254159 0.930882 
3.97202 -0.743721 0.578902 3.93779 -0.808361 0.639296 3.90329 -0.869069 0.662871 
3.89186 -0.925606 0.664372 3.88209 -0.981222 0.658507 3.85732 -1.03801 0.652628 
3.8377 -1.09439 0.646754 3.811 -1.15133 0.640874 3.7893 -1.20709 0.627631 
3.75066 -1.26258 0.599647 3.70361 -1.31637 0.549561 3.6647 -1.36951 0.499473 
3.64089 -1.42295 0.464145 3.60205 -1.47891 0.45846 3.55248 -1.52573 0.45383 
3.49986 -1.55681 0.443453 3.44804 -1.5994 0.416945 3.39612 -1.64086 0.398009 
3.34231 -1.65821 0.389107 3.2878 -1.66653 0.388624 3.23405 -1.68466 0.387089 
3.18223 -1.72758 0.382892 3.13043 -1.77062 0.378683 3.07687 -1.79134 0.384322 
3.02322 -1.81093 0.397525 2.97051 -1.84259 0.416884 2.91573 -1.84765 0.424204 
2.85883 -1.82534 0.412116 2.90945 0.348838 0.867358 2.853 0.364611 0.921609 
2.79619 0.385257 0.961487 2.74064 0.389867 0.992193 2.68561 0.387842 1.00728 
2.6299 0.394702 1.01588 2.57297 0.417268 1.01871 2.51723 0.424697 1.01992 
2.46245 0.419632 1.02724 2.4087 0.401178 1.04802 2.35644 0.363424 1.08907 
2.30384 0.330007 1.13805 2.25159 0.292154 1.17909 2.19801 0.271668 1.19965 
2.14431 0.252764 1.20549 2.09174 0.21952 1.20233 2.03891 0.189577 1.19953 
1.9874 0.142811 1.19492 1.93652 0.0878372 1.18943 1.88506 0.0402847 1.19218 
1.8324 0.00798208 1.21148 1.78015 -0.029871 1.25252 1.72663 -0.0515801 1.30275 
1.67228 -0.0624899 1.34669 1.91764 -1.73433 0.615082 1.85629 -1.69517 0.675598 
1.79686 -1.6515 0.732848 1.73817 -1.60756 0.77895 1.68017 -1.57149 0.80558 
1.62323 -1.54898 0.81586 1.56521 -1.51248 0.82019 1.50714 -1.47519 0.817151 
1.44999 -1.44963 0.797959 1.39165 -1.40852 0.758089 1.3334 -1.36842 0.710648 
1.27702 -1.35233 0.668092 1.22093 -1.3403 0.647447 1.16378 -1.31483 0.64314 
1.10695 -1.29354 0.645837 1.04894 -1.25714 0.650154 0.990924 -1.22075 0.654472 
0.934094 -1.19946 0.657169 0.876998 -1.17478 0.66023 0.821075 -1.16511 0.661679 
0.76501 -1.15362 0.663322 0.706936 -1.11633 0.660284 0.647836 -1.06575 0.643778 
0.588432 -1.01101 0.605371 0.529105 -0.957176 0.559405 0.470715 -0.914022 0.519754 
0.415534 -0.888901 0.507942 0.369413 -0.851906 0.534593 0.338061 -0.808539 0.606497 
0.344295 -0.711559 0.721107 0.395957 -0.666944 0.747833 0.448957 -0.639696 0.79504 
0.500902 -0.599112 0.858585 0.552268 -0.551216 0.930367 0.604268 -0.511429 1.00128 
0.657378 -0.485755 1.06322 0.709212 -0.443597 1.11203 0.76025 -0.390983 1.13961 
0.811819 -0.345004 1.15159 0.864639 -0.314961 1.15441 0.917076 -0.280012 1.15775 
0.970259 -0.254691 1.16751 1.02393 -0.235731 1.19148 1.0801 -0.249057 1.23433 
1.13507 -0.247233 1.29371 
LINES 54 684
21 42 44 45 46 47 48 49 50 51 52 53 54 55 56 57 58 59 60 61 62 34 
7 43 63 64 65 66 67 40 
6 43 68 69 70 71 38 
31 43 72 73 74 75 76 77 78 79 80 81 82 83 84 85 86 87 88 89 90 91 92 93 94 95 96 97 98 99 100 39 
3 42 101 34 
15 42 102 103 104 105 106 107 108 109 110 111 112 113 114 33 
35 41 115 116 117 118 119 120 121 122 123 124 125 126 127 128 129 130 131 132 133 134 135 136 137 138 139 140 141 142 143 144 145 146 147 28 
7 40 148 149 150 151 152 38 
16 40 153 154 155 156 157 158 159 160 161 162 163 164 165 166 36 
5 38 167 168 169 37 
28 37 170 171 172 173 174 175 176 177 178 179 180 181 182 183 184 185 186 187 188 189 190 191 192 193 194 195 17 
10 37 196 197 198 199 200 201 202 203 29 
7 36 204 205 206 207 208 35 
4 36 209 210 32 
3 35 211 31 
9 35 212 213 214 215 216 217 218 27 
12 34 219 220 221 222 223 224 225 226 227 228 33 
36 33 229 230 231 232 233 234 235 236 237 238 239 240 241 242 243 244 245 246 247 248 249 250 251 252 253 254 255 256 257 258 259 260 261 262 23 
4 32 263 264 21 
5 32 265 266 267 31 
6 31 268 269 270 271 20 
5 30 272 273 274 26 
9 29 275 276 277 278 279 280 281 27 
11 29 282 283 284 285 286 287 288 289 290 13 
4 27 291 292 12 
3 27 293 19 
16 26 294 295 296 297 298 299 300 301 302 303 304 305 306 307 9 
10 26 308 309 310 311 312 313 314 315 22 
16 25 316 317 318 319 320 321 322 323 324 325 326 327 328 329 24 
4 20 330 331 12 
4 23 332 333 16 
5 23 334 335 336 10 
6 18 337 338 339 340 22 
6 22 341 342 343 344 18 
10 17 345 346 347 348 349 350 351 352 9 
3 20 353 14 
9 19 354 355 356 357 358 359 360 13 
3 19 361 11 
17 18 362 363 364 365 366 367 368 369 370 371 372 373 374 375 376 16 
6 17 377 378 379 380 9 
5 16 381 382 383 10 
20 15 384 385 386 387 388 389 390 391 392 393 394 395 396 397 398 399 400 401 4 
4 14 402 403 12 
14 14 404 405 406 407 408 409 410 411 412 413 414 415 8 
8 13 416 417 418 419 420 421 7 
4 12 422 423 11 
3 11 424 7 
5 10 425 426 427 6 
17 7 433 434 435 436 437 438 439 440 441 442 443 444 445 446 447 3 
22 6 448 449 450 451 452 453 454 455 456 457 458 459 460 461 462 463 464 465 466 467 4 
30 6 468 469 470 471 472 473 474 475 476 477 478 479 480 481 482 483 484 485 486 487 488 489 490 491 492 493 494 495 5 
26 4 496 497 498 499 500 501 502 503 504 505 506 507 508 509 510 511 512 513 514 515 516 517 518 519 1 
18 3 549 550 551 552 553 554 555 556 557 558 559 560 561 562 563 564 0 
37 9 428 429 430 431 432 2 520 521 522 523 524 525 526 527 528 529 530 531 532 533 534 535 536 537 538 539 540 541 542 543 544 545 546 547 548 3 

POINT_DATA 565
SCALARS DY_raw double
LOOKUP_TABLE default
216.227 426.18 185.82 250.037 209.916 375.39 220.001 260.681 274.982 
212.272 215.542 259.506 295.826 209.102 178.537 189.646 199.688 194.827 
246.957 176.485 300.878 170.661 240.132 158.047 383.404 212.088 256.49 
178.051 212.905 167.61 238.127 258.232 157.398 187.987 239.042 218.406 
167.621 180.076 201.216 248.96 253.727 299.339 214.021 191.946 202.084 
221.273 243.173 282.57 277.947 244.013 244.013 198.023 229.444 217.194 
207.379 202.862 211.768 263.877 240.613 209.372 218.247 222.958 236.608 
212.815 206.515 207.009 191.134 219.223 184.054 181.143 202.14 210.861 
191.946 193.766 227.688 227.688 234.674 240.719 240.719 248.547 243.681 
220.498 237.292 239.783 239.783 253.288 253.288 276.307 303.909 303.909 
278.922 257.014 283 252.233 225.812 225.812 204.418 224.582 216.83 
192.987 224.601 221.183 246.965 273.984 328.023 337.275 337.275 301.454 
294.022 271.427 273.03 263.414 210.274 201.897 188.285 344.692 268.584 
221.06 247.835 244.644 230.575 255.279 224.079 196.915 210.724 213.053 
232.512 217.166 212.764 212.764 200.875 177.574 177.736 164.45 157.493 
183.997 187.229 209.775 212.93 219.474 200.749 205.076 196.024 174.995 
180.82 197.621 218.137 242.664 222.702 260.146 235.146 272.846 245.334 
247.22 216.029 223.747 231.116 257.391 213.171 201.285 181.554 162.808 
165.368 176.889 170.492 178.45 174.571 201.321 215.666 184.319 191.605 
188.469 194.252 188.834 188.981 188.981 182.581 208.124 219.733 211.946 
195.548 192.937 186.43 186.086 195.204 202.436 182.553 177.671 182.404 
179.907 198.76 219.078 224.804 207.296 195.602 185.917 197.065 214.917 
230.845 230.347 206.257 161.329 169.371 168.231 164.691 176.647 186.256 
197.4 205.985 162.837 153.433 231.446 224.572 237.044 238.575 227.958 
216.633 206.614 191.727 265.978 291.862 279.75 264.809 243.689 255.494 
209.317 194.421 178.43 169.521 251.775 244.692 235.331 244.799 250.29 
280.128 313.779 290.269 245.281 300.357 234.555 219.151 251.631 238.788 
181.152 183.978 221.352 186.296 198.21 234.657 213.498 213.498 203.242 
208.152 201.207 201.207 185.39 169.757 185.857 179.819 183.636 206.322 
168.456 144.553 171.672 166.271 179.813 201.973 255.104 290.049 246.238 
228.569 217.64 217.345 196.66 256.996 186.949 213.742 204.009 192.806 
177.821 165.701 163.893 192.517 171.31 196.531 196.024 204.955 223.372 
238.406 222.806 219.68 207.28 232.161 194.202 357.42 254.257 247.281 
257.405 257.405 247.461 244.74 235.214 217.42 192.013 189.141 195.615 
197.625 179.756 220.111 220.111 182.1 182.521 198.072 209.324 214.518 
254.124 195.72 203.833 203.833 214.035 232.007 232.007 248.823 255.246 
255.246 278.085 278.085 271.281 303.577 303.577 290.919 299.049 205.644 
222.808 209.2 225.178 210.526 260.108 226.778 222.759 250.889 250.815 
231.022 250.355 249.303 221.528 209.083 173.555 154.747 169.245 184.624 
202.278 193.829 315.271 184.928 179.075 189.185 211.067 221.093 245.721 
250.304 223.702 208.273 218.508 236.635 207.263 228.7 247.314 252.733 
239.042 202.446 236.881 202.737 191.186 185.518 177.393 177.543 210.138 
220.137 236.953 251.313 206.57 224.38 217.568 201.957 210.039 206.949 
215.218 201.807 225.838 207.144 190.202 170.933 144.183 158.707 161.711 
181.808 185.819 203.851 211.951 229.205 209.513 240.27 244.513 219.408 
238.462 238.148 269.658 263.56 277.879 248.464 222.807 233.903 205.723 
222.666 262.76 199.327 227.274 242.967 258.642 277.053 235.154 272.583 
245.668 234.689 230.342 218.867 220.071 224.65 216.061 215.776 189.74 
178.528 247.413 259.09 234.949 224.655 235.782 264.857 266.435 281.335 
267.051 279.743 310.315 283.568 280.661 282.587 267.348 231.433 273.126 
290.499 312.283 297.992 273.665 248.535 231.104 221.21 218.788 235.123 
236.34 226.712 226.712 209.48 216.481 212.559 200.188 213.994 206.127 
215.451 233.635 274.434 248.08 279.026 236.151 240.184 240.184 254.324 
244.431 244.431 219.294 218.95 224.652 256.105 243.009 352.339 286.74 
300.559 239.716 239.716 213.669 213.669 235.479 279.315 279.315 296.94 
338.716 215.463 237.151 248.468 252.197 257.18 268.691 280.012 283.607 
283.607 278.865 298.012 267.54 317.109 273.174 279.868 291.216 242.274 
223.868 252.864 226.823 260.316 281.569 307.562 377.08 186.224 199.18 
220.926 226.729 233.842 276.499 281.977 237.413 264.463 238.186 237.261 
201.362 206.787 204.308 195.487 195.487 189.601 198.489 199.225 222.79 
222.79 239.673 241.049 241.049 224.634 221.846 214.438 219.635 224.731 
256.642 265.655 265.214 239.783 227.474 262.236 220.366 242.44 242.44 
186.01 169.53 169.53 156.198 170.917 160.22 177.159 
FIELD FieldData 7
DY_minmax 1 565 double
0.255477 1 0.147652 0.375373 0.233099 0.819893 0.26886 0.413117 0.463832 
0.241453 0.25305 0.408953 0.537746 0.230212 0.121825 0.161218 0.19683 0.17959 
0.36445 0.114547 0.555663 0.0938943 0.340248 0.049164 0.848312 0.2408 0.398256 
0.120099 0.243699 0.0830775 0.333137 0.404434 0.0468613 0.155337 0.336383 0.263206 
0.0831135 0.127283 0.202247 0.371556 0.388458 0.550204 0.247657 0.169374 0.205325 
0.273373 0.351033 0.490739 0.474346 0.35401 0.35401 0.190925 0.302349 0.258908 
0.224101 0.208086 0.239665 0.424451 0.341954 0.231168 0.262641 0.279348 0.327753 
0.243378 0.221037 0.222791 0.166494 0.266101 0.141389 0.131065 0.205524 0.236449 
0.169374 0.175827 0.296119 0.296119 0.320894 0.342329 0.342329 0.37009 0.352832 
0.270623 0.330176 0.339012 0.339012 0.386902 0.386902 0.468531 0.566412 0.566412 
0.477802 0.400116 0.492264 0.383161 0.289467 0.289467 0.2136 0.285107 0.257616 
0.173068 0.285173 0.273052 0.364479 0.460291 0.651923 0.684732 0.684732 0.557704 
0.531349 0.451226 0.456908 0.422811 0.234368 0.204661 0.156394 0.711033 0.441142 
0.272616 0.367564 0.356248 0.306358 0.393963 0.283323 0.186995 0.235965 0.244223 
0.313225 0.258809 0.243198 0.243198 0.201037 0.118409 0.118983 0.0718695 0.0471988 
0.141187 0.152646 0.2326 0.243785 0.266994 0.200593 0.215937 0.183836 0.109263 
0.129919 0.1895 0.262252 0.349227 0.278441 0.41122 0.322567 0.456256 0.358694 
0.365382 0.254776 0.282146 0.308275 0.401451 0.244642 0.202493 0.132524 0.0660477 
0.0751245 0.115981 0.0932949 0.121515 0.10776 0.202621 0.253488 0.142326 0.168166 
0.157045 0.17755 0.158338 0.158862 0.158862 0.136164 0.226744 0.267911 0.240298 
0.182146 0.172889 0.149814 0.148596 0.180929 0.206575 0.136066 0.118754 0.135536 
0.126682 0.193538 0.265587 0.285893 0.223809 0.182341 0.147996 0.187528 0.250833 
0.307316 0.305549 0.220123 0.0608019 0.089321 0.0852782 0.0727239 0.115123 0.149198 
0.188714 0.219157 0.0661507 0.0328021 0.309448 0.28507 0.329297 0.334728 0.297079 
0.256918 0.22139 0.168598 0.431902 0.523689 0.480739 0.427758 0.352864 0.394725 
0.230975 0.178151 0.121447 0.089853 0.381537 0.35642 0.323224 0.356797 0.376269 
0.482079 0.60141 0.518042 0.358507 0.553816 0.320473 0.265847 0.381027 0.335482 
0.131098 0.14112 0.273651 0.149338 0.191588 0.320832 0.245801 0.245801 0.209433 
0.226844 0.202214 0.202214 0.146126 0.0906897 0.147781 0.12637 0.139907 0.220354 
0.0860776 0.00131305 0.0974805 0.0783274 0.126349 0.204933 0.393343 0.51726 0.361902 
0.299243 0.260489 0.259444 0.186093 0.400049 0.151654 0.246668 0.212151 0.172426 
0.119285 0.0763054 0.0698936 0.171399 0.0961973 0.185632 0.183836 0.215507 0.280817 
0.334129 0.27881 0.267724 0.223749 0.311982 0.177375 0.756168 0.390336 0.365599 
0.401502 0.401502 0.366237 0.356591 0.32281 0.259709 0.169613 0.159429 0.182385 
0.189512 0.126148 0.269251 0.269251 0.134459 0.135953 0.191098 0.230999 0.249417 
0.389865 0.182759 0.211526 0.211526 0.247707 0.311438 0.311438 0.371068 0.393844 
0.393844 0.474837 0.474837 0.450706 0.565232 0.565232 0.520348 0.549175 0.217951 
0.278814 0.230561 0.287219 0.23526 0.411086 0.292895 0.278642 0.378394 0.378134 
0.307943 0.376501 0.372771 0.274277 0.230146 0.104159 0.037462 0.0888738 0.143411 
0.206015 0.176051 0.606702 0.144489 0.123732 0.159585 0.23718 0.272735 0.360069 
0.376319 0.281987 0.227273 0.263567 0.327847 0.223689 0.299709 0.365716 0.384933 
0.336382 0.206611 0.328719 0.20764 0.166679 0.146579 0.117768 0.1183 0.233886 
0.269345 0.328977 0.379898 0.221233 0.284389 0.260235 0.204876 0.233535 0.222577 
0.2519 0.204342 0.28956 0.223268 0.163191 0.0948584 0 0.0515035 0.0621575 
0.133425 0.147648 0.211591 0.240313 0.3015 0.231668 0.340738 0.355785 0.26676 
0.334328 0.333215 0.44495 0.423327 0.474104 0.369793 0.278813 0.318158 0.218228 
0.278311 0.420492 0.195548 0.294652 0.350303 0.405887 0.471174 0.322597 0.455325 
0.359881 0.320948 0.30553 0.26484 0.269111 0.285347 0.254891 0.25388 0.16155 
0.121793 0.366068 0.407476 0.321868 0.285366 0.324825 0.427927 0.433524 0.48636 
0.435706 0.480716 0.589126 0.49428 0.483971 0.490799 0.43676 0.309402 0.457251 
0.518856 0.596105 0.545429 0.459163 0.370046 0.308234 0.273149 0.264559 0.322486 
0.326802 0.292658 0.292658 0.231551 0.256378 0.242471 0.198602 0.247558 0.219662 
0.252728 0.31721 0.461888 0.368434 0.478171 0.326133 0.340433 0.340433 0.390574 
0.355492 0.355492 0.266356 0.265136 0.285354 0.396893 0.350451 0.73815 0.505526 
0.554532 0.338774 0.338774 0.246406 0.246406 0.323747 0.479198 0.479198 0.541697 
0.689842 0.25277 0.329677 0.369808 0.383032 0.400702 0.441522 0.481668 0.494417 
0.494417 0.477601 0.545499 0.43744 0.613219 0.457421 0.481159 0.521399 0.347845 
0.282574 0.385399 0.293053 0.411823 0.487188 0.579365 0.825883 0.149084 0.195026 
0.272142 0.292719 0.317945 0.469211 0.488638 0.330608 0.426529 0.333349 0.330067 
0.202766 0.222003 0.213213 0.181931 0.181931 0.161058 0.192577 0.195186 0.278751 
0.278751 0.338621 0.343501 0.343501 0.285291 0.275403 0.249134 0.267562 0.285634 
0.398796 0.430755 0.429192 0.33901 0.295362 0.418631 0.270156 0.348434 0.348434 
0.148325 0.0898852 0.0898852 0.042607 0.0948013 0.0568689 0.116938 
WidthEq 1 565 double
2.73213 1 4.5551 3.52352 4.76362 2.12571 4.33176 4.90305 2.46474 
5.83261 5.66423 5.14222 4.43707 4.8737 4.39858 3.28196 5.11367 5.70363 
4.68414 5.95734 3.71762 4.03684 4.34249 4.8838 1.77163 3.37841 5.03595 
6.53146 1.87313 7.12199 2.61768 3.72812 5.32162 5.32695 3.26947 4.11183 
5.35948 5.48029 5.32463 2.58981 3.33544 1.43884 3.54549 4.05807 3.35054 
2.8966 2.59038 2.13576 2.52537 2.70023 2.70023 3.27219 3.24074 3.42491 
3.51512 3.57745 3.49076 2.83954 2.72225 2.88229 3.09319 3.28775 3.24642 
3.74396 3.65068 3.72114 4.03848 3.84609 4.46847 4.32211 4.07505 4.19006 
4.05807 3.95282 3.40805 3.40805 3.2471 3.15468 3.15468 3.16399 3.15048 
3.39459 3.11971 3.00321 3.00321 2.72089 2.72089 2.52378 2.33099 2.33099 
2.54297 2.78448 2.62279 3.08247 3.51886 3.51886 3.97456 3.72091 3.67458 
3.44427 3.19362 3.39204 3.32476 3.04869 2.64823 2.49449 2.49449 2.63835 
2.57437 2.85833 2.75791 2.71754 3.49587 3.83008 4.77929 1.22129 1.68216 
2.35574 2.23584 2.54309 3.44296 3.3184 3.70927 3.72176 3.74504 3.64989 
3.53277 3.69786 3.91001 3.91001 4.03042 4.02486 3.88549 3.90326 3.81935 
3.67549 3.74969 3.53936 3.52295 3.40254 3.51279 3.29882 3.39805 3.8076 
3.65392 3.45448 2.77238 2.61382 3.83184 3.22116 3.603 3.42076 3.93766 
3.21633 3.48185 3.10404 2.6241 2.58583 2.92845 3.04329 3.49031 4.33523 
4.5186 4.40965 4.80739 4.88261 5.11191 6.17545 5.98232 5.98703 5.25696 
4.81596 4.24717 3.87833 3.82588 3.82588 4.14277 4.10553 3.89605 4.52728 
4.89538 4.7601 5.38395 5.50561 5.44793 5.28892 5.61535 5.57845 5.48432 
5.84158 5.40098 5.10248 5.22954 5.95978 5.98408 6.24057 5.03214 4.37071 
3.86619 3.83087 4.43685 5.94587 6.06668 6.5775 5.35142 4.82345 4.30826 
4.30877 4.22532 5.21171 5.23232 4.09883 4.27329 4.26744 4.14754 4.30531 
4.6197 5.09805 5.74922 2.94701 2.62614 2.46173 2.48643 2.7897 2.73599 
3.75015 4.48521 5.28716 5.65316 4.07431 3.89849 3.71694 3.57098 3.24284 
2.63994 2.30647 2.61144 2.86305 2.49716 2.8618 3.02467 2.92992 3.22223 
3.80879 3.83752 2.97852 2.97903 2.47167 2.19747 2.4648 2.4648 2.87661 
3.57387 3.68651 3.68651 3.64313 3.82276 3.78006 3.57399 3.69633 3.31806 
3.99415 4.59035 5.26201 4.98752 5.01443 4.58456 3.83666 3.51455 4.18802 
4.14243 4.7069 3.63808 5.20405 4.7932 6.87958 5.79758 6.14792 5.5508 