# vtk DataFile Version 3.0
vtk output
ASCII
DATASET POLYDATA
POINTS 494 float
5.60846 0.520478 0.240027 3.89006 0.196514 0.385858 5.90778 -0.0228124 0.0279497 
5.34624 0.827567 0.0144664 4.92785 0.95461 -0.1413 5.81597 -0.344427 -0.226588 
5.93491 -0.44394 -0.238828 3.95841 -0.681302 -0.215966 4.52302 0.865186 -0.559594 
5.03187 0.890376 -0.420608 5.58602 -0.439457 -0.53521 0.692634 0.564365 -0.0648742 
2.27313 -0.505219 -0.230279 5.45278 0.726526 -0.600159 5.78042 0.149136 -0.630547 
4.98282 -0.734607 -0.866896 4.21309 -0.603005 -0.849161 4.58675 0.738493 -1.03993 
5.39023 -0.27368 -0.984705 -0.524234 0.2861 -0.730495 3.34099 0.0344569 -1.16094 
3.45488 -0.0102879 -1.17321 4.62193 0.428572 -1.30883 -0.659311 -0.278794 -0.910424 
1.3354 -1.91792 -1.31727 1.68171 0.875598 -1.38673 2.74111 -0.739192 -1.68901 
1.50854 -1.90224 -1.73938 -1.06614 0.262742 -2.34671 0.274025 0.745073 -2.63637 
-0.827009 0.735616 -2.71413 -0.0418739 0.75268 -2.80232 0.190193 0.571398 -3.0276 
0.135079 0.582475 -3.01409 0.0793813 0.620045 -2.97844 0.0221018 0.677277 -2.90557 
0.235277 0.630848 -2.92895 0.258796 0.688333 -2.79803 0.231912 0.520006 -3.03171 
0.240897 0.465601 -3.03212 0.234991 0.409825 -3.03085 0.268843 0.357709 -3.03407 
0.322466 0.307414 -3.03953 0.369935 0.256553 -3.04429 0.401685 0.204238 -3.05473 
0.444967 0.152977 -3.08138 0.486598 0.101554 -3.12276 0.515874 0.0489978 -3.15528 
0.56355 -0.00184455 -3.16007 0.623587 -0.0515344 -3.14388 0.6846 -0.10114 -3.13527 
0.741596 -0.151138 -3.16347 0.796107 -0.20127 -3.21376 0.850452 -0.249589 -3.26404 
0.906344 -0.287608 -3.29225 0.96232 -0.308458 -3.30575 1.02025 -0.332462 -3.30452 
1.07843 -0.34111 -3.28859 1.13909 -0.349515 -3.25058 1.20196 -0.372935 -3.20518 
1.26352 -0.391179 -3.16716 1.32309 -0.414922 -3.15121 1.38045 -0.42365 -3.14263 
1.43862 -0.432198 -3.1267 1.50049 -0.453867 -3.08867 1.56197 -0.462092 -3.04328 
1.62261 -0.470397 -3.00527 1.68199 -0.4921 -2.98933 1.73898 -0.496765 -2.98075 
1.79477 -0.479532 -2.96483 1.85121 -0.433198 -2.91949 1.90903 -0.374643 -2.85206 
1.96834 -0.314223 -2.76993 2.02634 -0.257699 -2.7025 2.08477 -0.225095 -2.64977 
2.14554 -0.24665 -2.60417 2.20109 -0.292623 -2.53535 2.24447 -0.343578 -2.44275 
2.3037 -0.39329 -2.34448 2.37188 -0.442183 -2.25468 2.44006 -0.491075 -2.16488 
2.50011 -0.540707 -2.05925 2.54598 -0.591639 -1.94456 2.60603 -0.64127 -1.83894 
2.67349 -0.690234 -1.75651 0.0228587 0.82263 -2.78052 0.083896 0.860103 -2.74305 
0.147191 0.839463 -2.69773 0.211273 0.794297 -2.6597 -0.123407 0.760277 -2.79326 
-0.188492 0.770893 -2.78608 -0.246818 0.7935 -2.77979 -0.301761 0.802395 -2.76628 
-0.354982 0.811427 -2.73805 -0.406952 0.833965 -2.68775 -0.456694 0.841389 -2.63007 
-0.506346 0.838783 -2.57976 -0.558306 0.834124 -2.55152 -0.612786 0.828966 -2.54536 
-0.671607 0.820799 -2.56849 -0.740903 0.795817 -2.62754 -0.873041 0.650035 -2.70803 
-0.897227 0.583296 -2.70459 -0.921643 0.52445 -2.70121 -0.929618 0.468417 -2.69225 
-0.935532 0.412707 -2.66364 -0.95537 0.356714 -2.5962 -0.985483 0.305734 -2.48791 
-0.885034 0.782565 -2.58142 -0.933351 0.796745 -2.46435 -0.978787 0.79524 -2.36979 
-1.02472 0.78915 -2.29003 -1.06853 0.77114 -2.21783 -1.10068 0.727004 -2.15411 
-1.11649 0.672393 -2.10702 -1.13778 0.615324 -2.08165 -1.14382 0.559541 -2.0729 
-1.14161 0.504345 -2.08249 -1.13776 0.446368 -2.12203 -1.12013 0.371823 -2.21264 
-1.01242 0.153634 -2.48322 -0.996443 0.0789273 -2.58855 -0.995237 0.0206917 -2.65265 
-0.992109 -0.0344264 -2.67228 -0.983502 -0.0888572 -2.65773 -0.961601 -0.142044 -2.61488 
-0.922071 -0.193604 -2.56656 -0.888484 -0.245715 -2.52503 -0.851431 -0.297517 -2.4988 
-0.831072 -0.350856 -2.47068 -0.817147 -0.404777 -2.42693 -0.792499 -0.457707 -2.37692 
-0.743096 -0.508357 -2.32972 -0.694409 -0.559078 -2.2899 -0.667962 -0.611842 -2.24011 
-0.643207 -0.664762 -2.19012 -0.604306 -0.716383 -2.14919 -0.570449 -0.768479 -2.1226 
-0.521491 -0.819185 -2.09771 -0.470785 -0.86972 -2.05812 -0.432532 -0.921397 -2.00965 
-0.381827 -0.971931 -1.97006 -0.333595 -1.02271 -1.95255 -0.300194 -1.07486 -1.94826 
-0.251802 -1.12563 -1.94567 -0.193674 -1.1755 -1.92928 -0.141158 -1.22587 -1.88989 
-0.102707 -1.27753 -1.84145 -0.0500815 -1.32788 -1.80207 0.0107797 -1.37749 -1.77853 
0.0734424 -1.42694 -1.75519 0.137864 -1.47621 -1.71715 0.203935 -1.52532 -1.66438 
0.270831 -1.57435 -1.60425 0.337718 -1.62327 -1.54412 0.403612 -1.67046 -1.49135 
0.466939 -1.70786 -1.45332 0.526401 -1.73041 -1.43738 0.585593 -1.7681 -1.43614 
0.645535 -1.81394 -1.4349 0.706368 -1.85136 -1.41895 0.768117 -1.87165 -1.38092 
0.830999 -1.89517 -1.33553 0.891654 -1.90357 -1.29751 0.95065 -1.91204 -1.27421 
1.01087 -1.93377 -1.25091 1.07051 -1.94022 -1.22025 1.12841 -1.93681 -1.19696 
1.18285 -1.93191 -1.20311 1.23397 -1.92722 -1.23871 1.28427 -1.92261 -1.28167 
0.322775 0.80263 -2.64993 0.375898 0.848851 -2.63403 0.434639 0.87026 -2.58866 
0.496031 0.88999 -2.52122 0.557036 0.922955 -2.44642 0.619441 0.940725 -2.37161 
0.680288 0.948304 -2.31888 0.737992 0.953858 -2.29559 0.7939 0.960843 -2.28702 
0.849883 0.976044 -2.2711 0.908691 0.996707 -2.22574 0.971941 0.98726 -2.16564 
1.03488 0.981118 -2.10554 1.09387 0.97276 -2.08224 1.15161 0.950788 -2.08102 
1.20713 0.943929 -2.08717 1.26504 0.947233 -2.06387 1.32461 0.950697 -2.02586 
1.3859 0.944404 -1.98048 1.44848 0.922906 -1.93508 1.51134 0.914828 -1.86004 
1.56927 0.906324 -1.73972 1.61828 0.883551 -1.57351 -1.08831 0.225238 -2.05061 
-1.08055 0.177818 -1.83478 -1.06515 0.125106 -1.71419 -1.05328 0.0710558 -1.6528 
-1.03972 0.0171099 -1.5941 -1.01452 -0.0357542 -1.52179 -0.969942 -0.0868204 -1.42933 
-0.928551 -0.138179 -1.3365 -0.869444 -0.187792 -1.23822 -0.800519 -0.234563 -1.14107 
-0.729229 -0.269236 -1.02942 1.46237 -1.90644 -1.65962 1.41784 -1.91049 -1.56513 
1.37579 -1.91429 -1.44856 1.65105 0.847552 -1.18917 1.61538 0.85581 -1.00636 
1.57764 0.850382 -0.852989 1.53873 0.821529 -0.729042 1.49531 0.805607 -0.634548 
1.45031 0.79764 -0.547423 1.40689 0.781618 -0.452929 1.3665 0.750781 -0.343708 
1.32308 0.73475 -0.249214 1.27396 0.726379 -0.198896 1.21981 0.709308 -0.200087 
1.16541 0.676988 -0.216005 1.11308 0.658256 -0.202478 1.06488 0.639928 -0.152144 
1.01955 0.608497 -0.0870944 0.969518 0.591939 -0.051488 0.915271 0.585005 -0.0453321 
0.858381 0.579642 -0.0612578 0.802308 0.574469 -0.0698202 0.747058 0.569377 -0.0710289 
1.74832 0.865826 -1.29718 1.81376 0.83252 -1.23706 1.87525 0.796997 -1.21375 
1.93305 0.774387 -1.21252 1.99132 0.73649 -1.21864 2.04871 0.68848 -1.22454 
2.09637 0.637747 -1.22933 2.12905 0.585633 -1.23242 2.17654 0.536712 -1.2372 
2.23301 0.498649 -1.24312 2.28977 0.475838 -1.24923 2.34707 0.437856 -1.24778 
2.39704 0.389178 -1.23048 2.43465 0.337548 -1.18941 2.488 0.287261 -1.14265 
2.5486 0.237637 -1.10418 2.59925 0.187087 -1.07948 2.63213 0.134907 -1.04532 
2.66233 0.0825021 -0.973592 2.66367 0.0274699 -0.853869 2.66069 -0.0279474 -0.711297 
2.63735 -0.0852477 -0.581327 2.6006 -0.143802 -0.479668 2.55959 -0.202764 -0.399876 
2.5168 -0.261787 -0.334798 2.47219 -0.319161 -0.284448 2.4242 -0.366828 -0.256186 
2.37316 -0.399561 -0.24265 2.32269 -0.447471 -0.236468 1.40768 -1.87188 -1.13207 
1.47963 -1.84929 -0.968934 1.54679 -1.82889 -0.849958 1.6068 -1.79419 -0.782526 
1.6625 -1.76692 -0.759252 1.71684 -1.74282 -0.750691 1.77402 -1.74066 -0.734764 
1.83183 -1.71816 -0.696769 1.89109 -1.70243 -0.651395 1.94929 -1.69327 -0.620755 
2.00343 -1.67609 -0.619554 2.05354 -1.64235 -0.640444 2.10495 -1.61368 -0.653978 
2.15753 -1.57959 -0.652788 2.21315 -1.56043 -0.636871 2.26794 -1.54136 -0.628317 
2.32052 -1.50727 -0.627127 2.37274 -1.47841 -0.633297 2.42421 -1.44249 -0.639459 
2.47434 -1.41177 -0.645415 2.51292 -1.36507 -0.650251 2.53367 -1.30987 -0.653182 
2.55744 -1.25255 -0.656474 2.56429 -1.19669 -0.657856 2.56115 -1.14175 -0.658107 
2.55611 -1.08698 -0.658142 2.54998 -1.03231 -0.650598 2.5355 -0.978392 -0.627206 
2.5067 -0.925783 -0.579834 2.48373 -0.872632 -0.525655 2.45301 -0.820199 -0.478067 
2.42663 -0.767381 -0.453329 2.39251 -0.715281 -0.435162 2.36433 -0.662629 -0.410221 
2.32373 -0.611106 -0.361515 2.28648 -0.559265 -0.298275 -0.597743 -0.328223 -0.879507 
-0.542829 -0.376418 -0.818052 -0.500514 -0.415611 -0.725456 -0.44396 -0.436436 -0.627211 
-0.378686 -0.461661 -0.544798 -0.313745 -0.481622 -0.477309 -0.248141 -0.516641 -0.417196 
-0.182703 -0.549838 -0.357074 -0.118747 -0.55793 -0.289616 -0.0548832 -0.555984 -0.21479 
0.0105442 -0.561983 -0.132615 0.0757043 -0.583129 -0.0651381 0.137007 -0.589532 -0.0197605 
0.19426 -0.588122 -0.00383213 0.25143 -0.594829 0.00474727 0.310635 -0.614599 0.0206892 
0.370834 -0.609023 0.0660586 0.431203 -0.578179 0.133503 0.494441 -0.560429 0.215662 
0.556929 -0.552579 0.283121 0.616941 -0.544971 0.328489 0.673571 -0.527766 0.351771 
0.72881 -0.495466 0.375043 0.787091 -0.478101 0.413041 0.847113 -0.470602 0.45842 
0.905642 -0.464968 0.489062 0.960714 -0.457953 0.49027 1.0124 -0.441234 0.46939 
1.06351 -0.409337 0.455855 1.11765 -0.392266 0.457056 1.1742 -0.383168 0.472979 
1.22917 -0.366016 0.481534 1.28193 -0.333958 0.482725 1.33525 -0.316967 0.476563 
1.38851 -0.308293 0.463042 1.43954 -0.293575 0.434801 1.48779 -0.275785 0.384477 
1.53876 -0.296482 0.326804 1.59072 -0.318911 0.276505 1.64171 -0.312828 0.240906 
1.69442 -0.325257 0.205318 1.74564 -0.330706 0.162363 1.79693 -0.32783 0.126765 
1.85055 -0.323119 0.113257 1.90599 -0.320058 0.114457 1.96086 -0.328928 0.100958 
2.01556 -0.363065 0.0653841 2.06862 -0.397474 0.0150838 2.11956 -0.40878 -0.035222 
2.16968 -0.420276 -0.0928906 2.22128 -0.456877 -0.157907 -0.601227 -0.218151 -0.82069 
-0.55633 -0.158741 -0.759292 -0.532458 -0.101291 -0.73278 -0.507158 -0.0437191 -0.721334 
-0.499736 0.0122117 -0.700419 -0.509719 0.0665536 -0.655175 -0.536394 0.119358 -0.608034 
-0.549569 0.173388 -0.592246 -0.54777 0.228757 -0.637776 4.56541 0.478606 -1.29558 
4.52265 0.529987 -1.26651 4.51239 0.585676 -1.21131 4.53184 0.652031 -1.13222 
4.57266 0.368803 -1.30265 4.5252 0.3092 -1.29668 4.48772 0.250516 -1.29183 
4.46705 0.19338 -1.28889 4.44137 0.135783 -1.28538 4.42261 0.0788228 -1.28265 
4.39705 0.0212359 -1.27915 4.37828 -0.0357247 -1.27643 4.35272 -0.0933116 -1.27293 
4.33395 -0.150272 -1.2702 4.30921 -0.207778 -1.25934 4.29292 -0.264496 -1.23453 
4.2723 -0.321599 -1.18687 4.25943 -0.377984 -1.13263 4.24143 -0.43484 -1.07781 
4.23833 -0.490325 -1.02467 4.23601 -0.545724 -0.949267 4.67946 0.436048 -1.28554 
4.73674 0.455265 -1.2549 4.79088 0.499425 -1.23163 4.84255 0.543342 -1.23046 
4.89489 0.561965 -1.24397 4.95096 0.567247 -1.23541 5.01224 0.561064 -1.19004 
5.07822 0.539998 -1.1152 5.14281 0.534137 -1.04037 5.20548 0.539956 -0.972924 
5.26624 0.557565 -0.912835 5.3253 0.59228 -0.852754 5.38358 0.623694 -0.785083 
5.43025 0.6712 -0.701382 3.39687 0.0236358 -1.16708 4.66598 0.798021 -1.01468 
4.7328 0.822761 -0.977712 4.79604 0.831431 -0.915329 4.86373 0.839243 -0.808693 
4.94168 0.855814 -0.638717 5.33141 -0.240047 -0.985939 5.27343 -0.23354 -1.00187 
5.21515 -0.250906 -1.03987 5.15871 -0.29724 -1.08522 5.1043 -0.355462 -1.12321 
5.05517 -0.415118 -1.13196 5.01924 -0.47365 -1.11238 5.00206 -0.530504 -1.06262 
4.97485 -0.589569 -0.996806 4.95852 -0.655542 -0.927159 5.43142 -0.325731 -0.812332 
5.49949 -0.379234 -0.662842 5.43017 -0.214813 -1.05692 5.46611 -0.156391 -1.07649 
5.49382 -0.100517 -1.03549 5.54157 -0.0528052 -0.959368 5.60059 -0.0192789 -0.884347 
5.66003 0.0295089 -0.809548 5.71949 0.0883354 -0.727405 4.89902 -0.74159 -0.889731 
4.8311 -0.727252 -0.904636 4.77447 -0.735094 -0.908145 4.72309 -0.776973 -0.904413 
4.67206 -0.818779 -0.898235 4.61698 -0.825693 -0.899442 4.55761 -0.804101 -0.915385 
4.49604 -0.785847 -0.953406 4.43299 -0.760505 -0.998806 4.37206 -0.74004 -1.02947 
4.31452 -0.702182 -1.01598 4.26182 -0.653702 -0.950976 4.54761 0.810067 -0.800285 
4.17148 -0.620688 -0.739949 4.13358 -0.651391 -0.608638 4.09592 -0.666739 -0.462619 
4.05488 -0.67238 -0.338688 4.00871 -0.676694 -0.258929 5.06348 -0.795315 -0.810674 
5.13271 -0.846736 -0.773138 5.19465 -0.88279 -0.752353 5.25313 -0.889399 -0.731503 
5.3095 -0.872209 -0.693289 5.35404 -0.826971 -0.646589 5.37984 -0.771382 -0.60537 
5.40811 -0.713642 -0.586812 5.42992 -0.656325 -0.579942 5.46904 -0.596118 -0.575045 
5.5227 -0.526651 -0.55946 5.81041 0.207178 -0.560006 5.81115 0.26253 -0.478691 
5.82193 0.318818 -0.383618 5.80879 0.372903 -0.285829 5.79157 0.426508 -0.17827 
5.75414 0.476317 -0.0628093 5.69578 0.512344 0.0793811 5.84707 0.0994533 -0.423778 
5.88643 0.0433592 -0.20395 5.67936 -0.415574 -0.414246 5.7536 -0.390107 -0.311035 
5.45107 0.779551 -0.429101 5.42392 0.818365 -0.269941 5.3859 0.828974 -0.124167 
5.5351 0.676872 -0.360984 5.59655 0.613562 -0.082055 4.49366 0.863874 -0.327694 
4.48236 0.843499 -0.127425 4.45958 0.799023 0.0321593 4.42505 0.742656 0.155916 
4.38485 0.683884 0.243062 4.34124 0.624779 0.300776 4.29416 0.567164 0.329045 
4.24451 0.519335 0.342591 4.19265 0.486522 0.348763 4.14218 0.438612 0.354945 
4.09262 0.380755 0.361134 4.04323 0.321194 0.367324 3.99366 0.263446 0.373512 
3.94301 0.217468 0.379693 5.13275 0.910687 -0.235835 5.21368 0.908845 -0.0958084 
5.2825 0.874716 -0.0186668 4.97517 0.937595 -0.275627 5.87544 -0.394183 -0.232708 
5.82378 -0.288413 -0.131169 5.8401 -0.231563 -0.0640548 5.87724 -0.17152 -0.0291157 
5.90877 -0.104085 -0.00357267 5.37037 0.774666 0.183789 5.39394 0.721699 0.330815 
5.42463 0.669361 0.434166 5.4751 0.618795 0.458881 5.53562 0.569093 0.387424 
5.83596 0.0389464 0.167008 5.77858 0.0935918 0.277196 5.72677 0.144777 0.347048 
5.68215 0.195959 0.378818 5.65231 0.248449 0.389044 5.61791 0.30062 0.386732 
5.59981 0.356221 0.36579 5.59629 0.425016 0.315114 
LINES 39 579
5 32 33 34 35 31 
4 32 36 37 29 
49 32 38 39 40 41 42 43 44 45 46 47 48 49 50 51 52 53 54 55 56 57 58 59 60 61 62 63 64 65 66 67 68 69 70 71 72 73 74 75 76 77 78 79 80 81 82 83 84 26 
6 31 85 86 87 88 29 
14 31 89 90 91 92 93 94 95 96 97 98 99 100 30 
9 30 101 102 103 104 105 106 107 28 
14 30 108 109 110 111 112 113 114 115 116 117 118 119 28 
53 28 120 121 122 123 124 125 126 127 128 129 130 131 132 133 134 135 136 137 138 139 140 141 142 143 144 145 146 147 148 149 150 151 152 153 154 155 156 157 158 159 160 161 162 163 164 165 166 167 168 169 170 24 
25 29 171 172 173 174 175 176 177 178 179 180 181 182 183 184 185 186 187 188 189 190 191 192 193 25 
13 28 194 195 196 197 198 199 200 201 202 203 204 23 
5 27 205 206 207 24 
22 25 208 209 210 211 212 213 214 215 216 217 218 219 220 221 222 223 224 225 226 227 11 
31 25 228 229 230 231 232 233 234 235 236 237 238 239 240 241 242 243 244 245 246 247 248 249 250 251 252 253 254 255 256 12 
38 24 257 258 259 260 261 262 263 264 265 266 267 268 269 270 271 272 273 274 275 276 277 278 279 280 281 282 283 284 285 286 287 288 289 290 291 292 12 
53 23 293 294 295 296 297 298 299 300 301 302 303 304 305 306 307 308 309 310 311 312 313 314 315 316 317 318 319 320 321 322 323 324 325 326 327 328 329 330 331 332 333 334 335 336 337 338 339 340 341 342 343 12 
11 23 344 345 346 347 348 349 350 351 352 19 
6 22 353 354 355 356 17 
19 22 357 358 359 360 361 362 363 364 365 366 367 368 369 370 371 372 373 16 
16 22 374 375 376 377 378 379 380 381 382 383 384 385 386 387 13 
3 21 388 20 
7 17 389 390 391 392 393 9 
12 18 394 395 396 397 398 399 400 401 402 403 15 
4 18 404 405 10 
9 18 406 407 408 409 410 411 412 14 
14 15 413 414 415 416 417 418 419 420 421 422 423 424 16 
7 16 426 427 428 429 430 7 
13 15 431 432 433 434 435 436 437 438 439 440 441 10 
9 14 442 443 444 445 446 447 448 0 
4 14 449 450 2 
4 10 451 452 5 
5 13 453 454 455 3 
4 13 456 457 0 
5 9 472 473 474 3 
3 9 475 4 
3 6 476 5 
6 5 477 478 479 480 2 
7 3 481 482 483 484 485 0 
10 2 486 487 488 489 490 491 492 493 0 
18 17 425 8 458 459 460 461 462 463 464 465 466 467 468 469 470 471 1 

POINT_DATA 494
SCALARS DY_raw double
LOOKUP_TABLE default
832.408 1160.57 788.401 851.578 831.546 726.681 651.606 669.474 726.594 
701.952 751.105 1300.71 883.929 516.51 788.996 700.763 889.583 689.856 
773.557 1219.85 1366.73 1159.49 637.244 1209.87 874.477 928.923 694.913 
771.418 813.817 1070.43 782.654 1101.12 747.912 803.565 815.075 976.634 
792.504 820.837 753.154 773.888 773.888 750.301 753.879 719.006 773.868 
710.962 715.996 814.383 834.911 856.713 1068.65 954.504 822.914 825.337 
739.765 808.773 808.773 921.013 915.694 1034.37 991.411 1045.37 1045.37 
876.257 907.409 955.788 925.308 925.308 861.49 810.843 1002.09 1088.97 
895.567 969.742 975.844 874.812 802.105 890.871 867.104 927.77 1006.96 
862.777 925.048 768.937 674.641 1206.43 1280.91 1212.73 1088.35 1065.86 
1108.59 1043.53 1076.51 1090.24 1082.03 1096.78 1096.78 1096.6 996.213 
924.087 875.432 787.999 778.642 767.975 745.142 769.66 787.293 845.56 
969.482 1082.93 1060.92 1069.44 1072.43 1016.95 1012.01 1012.01 980.146 
843.637 793.007 768.293 776.417 713.129 688.777 667.159 684.535 732.557 
786.304 712.695 771.463 743.737 774.248 825.467 823.037 875.715 920.105 
871.101 922.462 856.065 950.799 1016.55 1078.77 1114 1087.5 1047.27 
937.449 937.449 887.625 911.913 939.899 1003.19 1003.19 964.974 932.266 
1015.48 1070.68 1087.96 1079.08 1020.98 983.286 956.326 855.869 871.761 
892.434 840.331 840.331 834.589 873.977 873.977 862.962 871.799 847.695 
875.455 923.816 950.326 1040.85 1109.82 901.238 960.216 1087.82 943.036 
961.772 1062.61 1059.14 1091.32 1141.54 1015.28 1015.28 899.78 835.527 
905.754 927.274 990.662 1074.11 1039.04 812.239 786.096 776.13 776.819 
815.028 812.135 823.011 887.902 958.813 985.119 987.3 806.951 905.504 
894.665 1053.29 1082.15 1101.93 1015.9 1049.68 887.837 912.331 986.403 
1053.68 1014.26 1014.26 1025.14 1101.04 1015.73 1094.11 1166.25 1154.37 
1087.51 998.165 1158.91 943.753 927.007 958.069 956.407 978.915 1061.38 
1166.39 1178.05 1137.72 1093.65 1079.16 1100.54 1165.06 1150.56 1133.32 
1022.65 977.671 878.9 808.667 881.071 865.648 913.056 1010.78 820.149 
927.901 985.495 866.439 848.933 883.929 927.142 944.292 982.745 1060.23 
1096.01 1038.79 1095.67 1021.51 1020.6 1161.96 1058.54 1058.54 1184.12 
1156.51 1396.43 1302.85 1082.14 1175.41 1109.81 1138.62 1101.37 1036.89 
1082.05 1073.33 1073.33 999.91 944.533 944.533 932.755 1126.96 1236.82 
1335.19 1418.45 1317.62 962.986 1006.47 1092.28 921.205 850.311 854.142 
825.273 849.605 924.884 869.023 909.784 979.56 1023.65 1094.94 1090.94 
970.713 808.682 787.683 835.662 799.678 884 973.357 1041.3 1041.3 
1105.36 1158.4 1266.03 1387.01 1343.58 1256.67 1218.57 1150.65 1369.28 
1400.69 1459.48 1459.48 1600.41 1600.41 1443.08 1319.01 1198.58 1019.42 
986.126 872.877 981.147 979.596 979.596 1110.23 1041.92 955.899 908.699 
908.699 854.357 1183.33 1008.65 940.477 940.477 1019.94 1076.89 1119.65 
1215.5 1180.04 643.174 631.377 639.563 668.363 686.543 755.826 889.316 
1022.4 977.93 1011.9 1011.9 909.467 777.763 870.551 687.106 762.206 
777.116 821.056 936.143 839.45 756.928 622.001 656.296 645.95 690.247 
646.349 713.215 745.403 744.743 870.448 692.856 651.734 707.169 703.081 
590.635 1366.73 675.517 722.669 776.692 769.852 733.079 812.244 797.06 
916.687 789.243 701.885 707.294 702.789 717.779 667.863 696.839 750.17 
756.526 787.99 715.741 742.557 797.5 773.831 906.497 701.848 758.647 
729.804 804.732 770.636 797.138 797.138 742.478 765.466 613.853 550.495 
540.725 659.335 722.134 897.628 806.976 777.367 716.073 659.793 667.615 
641.184 629.85 582.082 616.329 679.356 754.383 754.383 849.026 825.618 
785.122 738.478 780.154 764.819 764.792 732.395 703.303 774.818 695.254 
683.03 763.247 813.249 645.689 740.041 800.224 674.651 735.467 749.446 
845.508 893.996 903.983 853.788 1087.68 1076 939.166 824.921 915.015 
842.014 1091.28 971.593 1010.89 741.165 814.181 834.614 766.723 683.395 
775.686 820.267 826.653 793.359 835.009 874.647 827.496 873.413 892.28 
889.356 937.362 933.614 911.104 865.587 871.683 865.732 839.462 
FIELD FieldData 7
DY_minmax 1 494 double
0.291446 0.594209 0.250845 0.309132 0.290651 0.193903 0.124639 0.141123 0.193822 
0.171088 0.216436 0.7235 0.338979 0 0.251394 0.169991 0.344196 0.159928 
0.23715 0.648896 0.784411 0.593215 0.111389 0.639692 0.330258 0.38049 0.164594 
0.235177 0.274294 0.511044 0.245543 0.539356 0.21349 0.264836 0.275455 0.424508 
0.254631 0.280771 0.218326 0.237456 0.237456 0.215695 0.218996 0.186822 0.237437 
0.1794 0.184044 0.274816 0.293755 0.31387 0.509403 0.404091 0.282686 0.284923 
0.205974 0.26964 0.26964 0.373192 0.368285 0.477774 0.438141 0.487921 0.487921 
0.331901 0.360641 0.405275 0.377155 0.377155 0.318277 0.27155 0.44799 0.528149 
0.349716 0.41815 0.423779 0.330567 0.263488 0.345384 0.323456 0.379427 0.452491 
0.319464 0.376915 0.232888 0.145891 0.636518 0.705229 0.642326 0.527573 0.50683 
0.546253 0.486224 0.51665 0.529317 0.521751 0.535352 0.535352 0.535187 0.442572 
0.376029 0.33114 0.250474 0.241841 0.232001 0.210935 0.233554 0.249823 0.30358 
0.41791 0.52258 0.502275 0.510131 0.512887 0.461703 0.457146 0.457146 0.427748 
0.301805 0.255095 0.232294 0.239789 0.1814 0.158933 0.138988 0.155019 0.199324 
0.24891 0.180999 0.235219 0.209639 0.237788 0.285042 0.282801 0.331401 0.372355 
0.327144 0.37453 0.313272 0.400673 0.461336 0.518736 0.551244 0.526791 0.489681 
0.388356 0.388356 0.342389 0.364797 0.390616 0.449008 0.449008 0.41375 0.383575 
0.460345 0.511277 0.527218 0.51902 0.465422 0.430645 0.405772 0.313091 0.327752 
0.346825 0.298756 0.298756 0.293458 0.329797 0.329797 0.319635 0.327788 0.30555 
0.331161 0.375779 0.400236 0.483752 0.547387 0.354948 0.409361 0.527091 0.393511 
0.410796 0.503826 0.500625 0.530316 0.576649 0.460167 0.460167 0.353603 0.294323 
0.359114 0.378969 0.43745 0.514443 0.482084 0.272838 0.248718 0.239524 0.240159 
0.275411 0.272742 0.282776 0.342644 0.408066 0.432337 0.434349 0.267959 0.358884 
0.348884 0.495229 0.521859 0.540102 0.460733 0.491896 0.342584 0.365182 0.433521 
0.495588 0.459218 0.459218 0.469264 0.539285 0.46058 0.532894 0.599448 0.588491 
0.526805 0.444373 0.59268 0.394173 0.378722 0.40738 0.405847 0.426612 0.502697 
0.599575 0.610337 0.573122 0.53247 0.519099 0.538822 0.598346 0.584968 0.569066 
0.466959 0.425465 0.334339 0.269542 0.336342 0.322113 0.365852 0.456009 0.280136 
0.379547 0.432683 0.322842 0.306692 0.338979 0.378847 0.39467 0.430146 0.501629 
0.534643 0.481851 0.53433 0.465911 0.465071 0.595491 0.500077 0.500077 0.615938 
0.590464 0.811813 0.725472 0.52185 0.607901 0.547374 0.573953 0.539591 0.480102 
0.521763 0.513719 0.513719 0.445983 0.394892 0.394892 0.384026 0.563199 0.664557 
0.755306 0.832128 0.739103 0.411916 0.452036 0.531206 0.373369 0.307963 0.311498 
0.284863 0.307312 0.376763 0.325227 0.362832 0.427207 0.467883 0.533659 0.529964 
0.419046 0.269557 0.250183 0.294448 0.261249 0.339044 0.421485 0.484166 0.484166 
0.543271 0.592208 0.691503 0.803116 0.763047 0.682868 0.647719 0.585054 0.786758 
0.815741 0.86998 0.86998 1 1 0.854851 0.740384 0.629278 0.463979 
0.433265 0.328783 0.428672 0.427241 0.427241 0.547767 0.484741 0.405378 0.361832 
0.361832 0.311696 0.615208 0.454045 0.39115 0.39115 0.464459 0.517002 0.55645 
0.644888 0.612173 0.11686 0.105976 0.113528 0.140099 0.156872 0.220791 0.343949 
0.466729 0.425704 0.457047 0.457047 0.36254 0.24103 0.326636 0.157391 0.226678 
0.240434 0.280973 0.387151 0.297942 0.221809 0.0973248 0.128965 0.11942 0.160289 
0.119789 0.181478 0.211175 0.210567 0.326542 0.162695 0.124757 0.175901 0.172129 
0.0683869 0.784411 0.146699 0.190201 0.240042 0.233732 0.199805 0.272843 0.258834 
0.369201 0.251622 0.171025 0.176017 0.17186 0.18569 0.139637 0.16637 0.215573 
0.221438 0.250466 0.18381 0.208549 0.25924 0.237403 0.3598 0.170992 0.223394 
0.196784 0.265912 0.234455 0.258906 0.258906 0.208476 0.229686 0.0898082 0.0313541 
0.0223403 0.131769 0.189708 0.351618 0.267983 0.240665 0.184115 0.132192 0.139408 
0.115024 0.104567 0.0604962 0.0920921 0.15024 0.21946 0.21946 0.306778 0.285181 
0.24782 0.204786 0.243237 0.229089 0.229064 0.199174 0.172334 0.238313 0.164908 
0.15363 0.227638 0.27377 0.11918 0.206228 0.261753 0.1459 0.202008 0.214906 
0.303532 0.348267 0.357481 0.311171 0.526962 0.516187 0.38994 0.284538 0.367659 
0.300308 0.530283 0.419857 0.456112 0.207265 0.27463 0.293481 0.230845 0.153967 
0.239114 0.280245 0.286136 0.25542 0.293846 0.330416 0.286914 0.329277 0.346684 
0.343986 0.388276 0.384818 0.364051 0.322057 0.327681 0.322191 0.297954 
WidthEq 1 494 double
2.86189 1 3.988 3.17417 3.03458 3.89014 3.54612 2.53452 3.87805 
4.0684 3.73547 2.15243 2.79046 4.04658 3.22061 2.76599 2.19325 3.58684 
2.94665 3.30684 1.03162 1.10151 2.99305 4.11165 4.21329 3.14913 4.21833 
3.36591 6.25615 3.18582 5.36749 3.07266 4.04162 3.70147 3.38625 3.21068 
4.02421 3.95164 4.39367 4.46437 4.46437 4.63229 4.50258 4.68167 4.4145 
4.68332 4.56717 4.25325 4.03006 3.86723 3.36469 3.65211 3.79646 3.81002 
4.04856 3.77417 3.77417 3.54158 3.58666 3.41342 3.59086 3.53948 3.53948 
4.26227 4.33258 4.10207 4.36007 4.36007 4.44265 3.91984 3.31837 2.76857 
3.49508 3.485 3.55392 4.19317 4.48626 4.10101 4.17442 3.92744 3.94259 
4.27435 3.9995 4.43475 4.48631 2.82789 2.39799 2.80415 3.17333 3.14865 
3.18876 3.46635 3.45059 3.63673 3.98891 4.07101 4.07101 4.09908 4.63966 
5.09809 5.33947 5.17206 4.79276 4.61268 4.43804 4.59175 4.74482 5.29366 
5.0183 4.57548 4.53157 4.42651 4.46814 4.95108 5.02131 5.02131 5.22871 
5.88152 6.32664 6.51053 5.90308 5.50146 5.14165 4.88291 4.42996 4.51431 
4.35065 4.24638 4.27129 4.21278 4.33131 4.42357 4.56752 4.5752 4.56707 
4.89206 4.75711 4.92422 4.39889 4.24488 3.84217 3.62631 3.56056 3.4419 
3.50689 3.50689 3.62991 3.48226 3.25601 3.22723 3.22723 3.08237 3.19188 
3.0385 2.71037 2.60225 2.61281 2.74032 2.82057 2.97792 3.27347 3.30948 
3.36264 3.66838 3.66838 3.98785 4.07529 4.07529 4.30025 4.27357 4.34241 
3.69453 3.74135 3.73874 3.59193 3.41859 3.82538 3.62834 3.28862 3.70104 
3.63592 3.40977 3.28214 3.27291 3.23587 3.6273 3.6273 3.67192 4.10142 
4.01554 3.92815 3.66252 3.19289 2.855 6.68488 6.63968 6.50287 6.35799 
6.146 6.0746 5.77826 5.521 4.98528 4.6726 4.8014 3.43789 3.95696 
4.14951 3.35466 3.50236 3.32298 3.31239 3.21651 3.65115 3.45061 3.31513 
3.02984 3.22383 3.22383 2.84195 2.84884 2.9127 2.74305 2.70393 2.7468 
2.97911 3.04996 2.5859 3.73869 4.0254 3.77429 3.78896 3.4384 2.95818 
2.55266 2.48435 2.51158 2.59057 2.6532 2.56748 2.35633 2.2474 2.14696 
2.49945 2.68936 3.09286 3.6306 3.33877 2.98083 2.73601 2.54237 2.66747 
2.50495 2.21844 2.48835 2.67401 2.79046 3.89868 3.80434 3.16768 3.01965 
2.59943 2.63476 2.59275 2.63549 2.63108 2.36898 2.48734 2.48734 2.23055 
2.33444 1.99191 2.21028 2.61188 2.47401 2.66851 2.60602 2.64983 2.67254 
2.64096 2.64036 2.64036 2.72978 2.82594 2.82594 2.73213 2.39693 2.15821 
1.69502 1.67497 1.53999 2.11691 2.10122 4.71213 5.32543 5.51654 5.37489 
5.31562 5.03439 4.77644 4.64906 4.40994 4.18131 4.01149 3.6103 3.4214 
3.72493 3.76854 3.73347 3.71087 3.65702 3.45535 3.24785 3.13953 3.13953 
3.02938 2.74625 2.5724 2.23076 2.07259 2.1595 1.98657 1.91052 1.62037 
1.49988 1.47619 1.47619 1.55152 1.55152 1.79822 2.08001 2.11217 2.3535 
2.48614 2.53188 2.53393 2.69663 2.69663 2.61081 2.57944 2.70679 2.8754 
2.8754 2.81246 4.19595 4.31383 4.33476 4.33476 4.29432 4.24995 4.10124 
3.73932 3.80708 3.15235 2.8923 3.02183 3.35058 2.96778 2.72243 2.42219 
2.19298 2.20314 2.16348 2.16348 2.35479 2.45832 2.43613 2.47854 2.43129 
2.33031 2.01555 1.92748 1.99655 2.27307 3.055 3.04938 3.11336 3.14075 
3.11624 3.09415 3.2027 3.35481 3.21142 3.8624 4.09022 4.01815 4.19925 
4.30007 1.03162 3.3598 3.27532 3.22875 3.18022 3.63579 2.80065 2.82966 
2.49506 2.83521 2.7708 2.51997 2.30875 2.21897 2.48665 2.60998 3.09352 
3.65193 2.48931 2.37052 2.29129 2.50454 2.77592 2.53733 3.35681 2.48627 
2.28207 1.96774 1.7255 1.6374 1.6374 1.67644 1.73265 2.0301 2.08787 
2.49841 2.46945 3.72655 2.19026 2.29727 2.42199 2.55413 2.76472 2.93289 
3.0697 3.08259 3.34695 3.32367 3.25546 2.97245 2.97245 2.90525 3.15935 
3.5373 3.40399 3.13918 2.98927 3.08678 3.41286 3.52754 3.33573 3.76408 
4.26794 3.72225 3.68338 4.3094 3.78929 3.39816 4.11044 3.6386 3.74589 
3.04867 2.43732 2.12008 2.10018 1.50234 1.36825 1.4915 1.49418 1.39668 
1.51828 1.28866 1.45625 1.40266 3.88462 3.27884 3.13659 3.51014 3.99297 
3.63506 3.53476 3.54569 3.87357 3.15628 2.88949 2.56383 2.6211 2.64545 
3.44648 2.98909 2.77546 2.60187 2.36931 2.54371 2.63853 2.7748 
rRFP 1 494 double
3365.57 2630.77 3809.99 3488.81 3433.72 3771.37 3635.6 3236.37 3766.6 
3841.72 3710.33 3085.58 3337.38 3833.11 3507.14 3327.72 3101.69 3651.67 
3399.02 3541.17 2643.25 2670.83 3417.33 3858.79 3898.9 3478.93 3900.89 
3564.48 4705.12 3493.41 4354.41 3448.75 3831.15 3696.91 3572.51 3503.22 
3824.28 3795.64 3970.09 3997.99 3997.99 4064.26 4013.07 4083.75 3978.31 
4084.4 4038.56 3914.67 3826.59 3762.33 3564 3677.43 3734.4 3739.75 
3833.89 3725.6 3725.6 3633.81 3651.6 3583.23 3653.26 3632.98 3632.98 
3918.23 3945.98 3855.01 3956.83 3956.83 3989.42 3783.09 3545.72 3328.74 
3615.46 3611.48 3638.68 3890.96 4006.63 3854.59 3883.56 3786.09 3792.07 
3923 3814.53 3986.3 4006.65 3352.15 3182.49 3342.78 3488.48 3478.74 
3494.57 3604.12 3597.9 3671.36 3810.35 3842.75 3842.75 3853.83 4067.17 
4248.09 4343.35 4277.28 4127.59 4056.52 3987.6 4048.26 4108.67 4325.27 
4216.6 4041.84 4024.51 3983.05 3999.48 4190.07 4217.79 4217.79 4299.64 
4557.27 4732.94 4805.51 4565.78 4407.28 4265.28 4163.17 3984.41 4017.7 
3953.11 3911.96 3921.79 3898.7 3945.48 3981.89 4038.7 4041.73 4038.52 
4166.78 4113.52 4179.47 3972.15 3911.37 3752.44 3667.25 3641.3 3594.47 
3620.12 3620.12 3668.67 3610.4 3521.11 3509.75 3509.75 3452.58 3495.8 
3435.27 3305.77 3263.1 3267.27 3317.59 3349.26 3411.36 3528 3542.21 
3563.19 3683.85 3683.85 3809.93 3844.44 3844.44 3933.22 3922.69 3949.86 
3694.17 3712.65 3711.62 3653.68 3585.27 3745.81 3668.05 3533.98 3696.74 
3671.04 3581.79 3531.42 3527.78 3513.16 3667.64 3667.64 3685.25 3854.75 
3820.86 3786.37 3681.54 3496.2 3362.85 4874.32 4856.48 4802.49 4745.31 
4661.65 4633.47 4516.52 4414.99 4203.57 4080.17 4131 3592.89 3797.74 
3873.73 3560.04 3618.33 3547.54 3543.36 3505.52 3677.05 3597.91 3544.44 