# vtk DataFile Version 3.0
vtk output
ASCII
DATASET POLYDATA
POINTS 722 float
0.354719 -1.5234 1.14273 0.763312 -1.54149 0.831086 0.481424 -1.40859 0.749079 
0.274376 -1.1719 0.672021 -0.482116 -0.352813 0.313119 -1 1.62958e-007 -1.11579e-007 
-0.71442 0.0540337 -0.552652 3.09848 -1.10466 -0.0618106 2.8469 -1.97071 -0.0418985 
-0.544777 1.01847 -0.945374 -0.755221 0.0922013 -1.04991 3.2753 -0.714756 -0.46668 
2.51472 -2.3348 -0.477033 1.33418 -2.45718 -0.662176 3.11439 -0.0507019 -0.810924 
3.67434 -1.15718 -1.326 6.72918 -0.181865 -0.343707 5.1447 -0.976732 -0.547629 
0.991787 -2.23339 -1.44529 4.77232 -1.32807 -1.06928 2.82692 0.244645 -1.62394 
-0.0927634 -1.28393 -1.99519 1.89239 0.991036 -2.23644 6.85499 0.0528624 -1.76183 
3.37436 -0.968729 -2.05782 6.54234 -0.555239 -2.02413 4.47894 -0.629328 -2.10366 
3.12383 -1.24112 -2.48603 6.66666 0.101309 -2.33795 6.30909 -0.563135 -2.28197 
6.92442 -0.647061 -2.31047 6.34296 -0.484471 -2.445 6.37343 -0.418451 -2.55754 
6.38642 -0.359588 -2.60973 6.40726 -0.293079 -2.61603 6.43361 -0.222712 -2.5941 
6.46165 -0.15948 -2.54882 6.49463 -0.111419 -2.49413 6.52667 -0.0589609 -2.44492 
6.56458 -0.0130201 -2.40933 6.6069 0.0440883 -2.37632 6.857 -0.649395 -2.24801 
6.77969 -0.635294 -2.17892 6.68349 -0.613362 -2.10032 6.73748 0.0717206 -2.21387 
6.79506 0.0550834 -2.02265 6.22455 -0.599627 -2.09511 6.15707 -0.640868 -1.95278 
6.09674 -0.667331 -1.87553 6.04156 -0.687227 -1.85058 5.98909 -0.705398 -1.85038 
5.93423 -0.71474 -1.85872 5.8752 -0.710659 -1.87623 5.82342 -0.722819 -1.89892 
5.77999 -0.754102 -1.92641 5.74082 -0.801664 -1.937 5.69796 -0.842247 -1.94117 
5.65389 -0.877065 -1.95347 5.60132 -0.874195 -2.01497 5.5469 -0.853508 -2.11567 
5.49117 -0.82943 -2.21682 5.42887 -0.803854 -2.274 5.36124 -0.785195 -2.27137 
5.29847 -0.789555 -2.23621 5.23994 -0.804956 -2.19959 5.18565 -0.823588 -2.18461 
5.13315 -0.841667 -2.18442 5.07828 -0.851009 -2.19277 5.01798 -0.846217 -2.20301 
4.96239 -0.853661 -2.21161 4.90611 -0.859317 -2.22045 4.83964 -0.84108 -2.22512 
4.76657 -0.810865 -2.21668 4.68926 -0.777226 -2.1866 4.61144 -0.741296 -2.14924 
4.53927 -0.695664 -2.11916 6.40772 -0.550616 -2.15818 6.69557 0.201939 -2.30521 
6.73138 0.271016 -2.29668 6.77811 0.303701 -2.29383 6.82493 0.313537 -2.25925 
6.85313 0.292085 -2.17033 6.84199 0.245807 -2.05601 6.83484 0.196987 -1.94086 
6.84077 0.137693 -1.8454 3.17862 -1.23158 -2.47771 3.23279 -1.22302 -2.4619 
3.26894 -1.1754 -2.42923 3.2949 -1.11427 -2.36157 3.32082 -1.0634 -2.26309 
3.34427 -1.00874 -2.15776 6.81319 -0.0663065 -1.79037 6.77381 -0.143946 -1.79887 
6.72924 -0.18977 -1.78789 6.68659 -0.23632 -1.77656 6.64123 -0.270064 -1.7835 
6.60132 -0.311677 -1.82474 6.57249 -0.402596 -1.9077 4.39995 -0.658182 -2.08448 
4.34715 -0.703641 -2.07489 4.30234 -0.745471 -2.07177 4.25718 -0.790649 -2.04589 
4.20366 -0.819081 -2.00751 4.14659 -0.838261 -1.97038 4.09195 -0.858573 -1.94781 
4.04031 -0.889308 -1.91649 3.99172 -0.942471 -1.84325 3.93317 -1.00405 -1.71174 
3.83722 -1.07233 -1.52967 4.50456 -0.546284 -2.10532 4.51322 -0.479144 -2.10864 
4.53436 -0.413154 -2.10984 4.56787 -0.353539 -2.10855 4.60845 -0.307338 -2.10515 
4.64373 -0.247056 -2.10362 4.67425 -0.177005 -2.09604 4.70297 -0.104856 -2.08138 
4.7299 -0.0332593 -2.05192 4.76043 0.0289826 -2.0212 4.79585 0.0759207 -1.98108 
4.83127 0.125428 -1.94867 4.87094 0.161317 -1.90706 4.91064 0.197112 -1.86546 
4.9432 0.246267 -1.81092 4.98 0.281821 -1.74719 5.01916 0.308629 -1.67493 
5.05777 0.334267 -1.59516 5.09522 0.360319 -1.50807 5.13148 0.386885 -1.41371 
5.17013 0.412421 -1.33392 5.21237 0.436411 -1.27601 5.25824 0.458753 -1.23996 
5.30476 0.479409 -1.20368 5.35248 0.491741 -1.15157 5.40385 0.489378 -1.08277 
5.45223 0.492216 -1.00731 5.50309 0.48858 -0.930973 5.55151 0.491316 -0.855503 
5.60241 0.487579 -0.779156 5.65152 0.488528 -0.703436 5.70786 0.473235 -0.632907 
5.7702 0.447556 -0.575714 5.83678 0.418646 -0.54017 5.90579 0.388603 -0.519191 
5.97479 0.358561 -0.498212 6.04141 0.329549 -0.462654 6.10433 0.302041 -0.405237 
6.16438 0.274376 -0.340742 6.21634 0.242452 -0.284813 6.25616 0.202652 -0.252891 
6.30025 0.163571 -0.227837 6.32919 0.119391 -0.197391 6.35732 0.0768791 -0.152141 
6.40811 0.0424901 -0.111274 6.46368 0.00603926 -0.0995755 6.50394 -0.0416077 -0.127226 
6.54989 -0.091635 -0.183873 6.6276 -0.136072 -0.258275 3.45883 -1.00551 -2.13165 
3.5307 -1.0383 -2.1379 3.57571 -1.06772 -2.01423 3.60374 -1.10487 -1.73124 
3.38973 -0.890747 -1.96298 3.40692 -0.815027 -1.89027 3.41682 -0.745234 -1.84091 
3.40349 -0.684793 -1.7947 3.38727 -0.624516 -1.74142 3.38371 -0.558145 -1.67897 
3.3742 -0.493176 -1.60988 3.36982 -0.425141 -1.53262 3.35614 -0.359857 -1.4492 
3.3391 -0.296916 -1.37366 3.29167 -0.245511 -1.29729 3.24327 -0.189821 -1.19129 
3.18737 -0.124633 -1.02448 3.64405 -1.248 -1.71451 3.63626 -1.33606 -1.99285 
3.62425 -1.41499 -2.13354 3.59564 -1.4767 -2.18124 3.55188 -1.51233 -2.19343 
3.50627 -1.54574 -2.19855 3.46603 -1.59309 -2.20182 3.42389 -1.63556 -2.20573 
3.38361 -1.68281 -2.209 3.33851 -1.71495 -2.22166 3.29285 -1.74045 -2.24993 
3.25489 -1.77558 -2.30635 3.22473 -1.82578 -2.37548 3.18981 -1.86364 -2.44625 
3.14888 -1.89882 -2.48058 3.10725 -1.94257 -2.48432 3.05304 -1.96141 -2.46932 
2.99108 -1.95749 -2.46472 2.93501 -1.9663 -2.46578 2.88421 -1.98363 -2.48042 
2.83286 -1.99431 -2.51067 2.77905 -1.99082 -2.56489 2.72759 -1.99084 -2.62602 
2.66885 -1.97451 -2.68196 2.60293 -1.94729 -2.71728 2.53396 -1.91735 -2.73824 
2.46375 -1.88679 -2.75193 2.39354 -1.85623 -2.76561 2.32344 -1.82563 -2.77928 
2.25501 -1.79436 -2.79272 2.19577 -1.75938 -2.80492 2.15049 -1.71879 -2.81522 
2.09125 -1.68381 -2.82742 2.02282 -1.65254 -2.84086 1.95392 -1.62246 -2.86183 
1.8861 -1.59293 -2.89009 1.81949 -1.56392 -2.92565 1.75048 -1.53387 -2.94663 
1.67907 -1.5028 -2.95302 1.60532 -1.4708 -2.94482 1.5334 -1.441 -2.94368 
1.46628 -1.42106 -2.94858 1.40645 -1.41747 -2.95866 1.34546 -1.41089 -2.96914 
1.28936 -1.41961 -2.9702 1.23446 -1.43666 -2.95544 1.17662 -1.45385 -2.91857 
1.11766 -1.47073 -2.87438 1.05935 -1.48929 -2.82996 1.00583 -1.51772 -2.7916 
0.957197 -1.56146 -2.74382 0.907517 -1.60217 -2.69641 0.866896 -1.6585 -2.65396 
0.843143 -1.72084 -2.62335 0.843269 -1.77551 -2.58937 0.841619 -1.82802 -2.53325 
0.824219 -1.88388 -2.45691 0.818573 -1.93301 -2.36407 0.826188 -1.9788 -2.28433 
0.848366 -2.02171 -2.22499 0.891062 -2.06036 -2.19268 0.930195 -2.10143 -2.16829 
0.970009 -2.13877 -2.11773 0.983575 -2.17672 -1.99243 0.982418 -2.2093 -1.76081 
6.90079 0.1079 -1.46473 6.91923 0.133304 -1.21519 6.91844 0.113029 -1.03329 
6.90668 0.0696002 -0.896705 6.88153 0.0156828 -0.784142 6.85593 -0.0372249 -0.65669 
6.80517 -0.101476 -0.509984 1.84293 0.97024 -2.25062 1.79525 0.949998 -2.27958 
1.74825 0.935776 -2.33144 1.70062 0.925817 -2.39124 1.66377 0.887796 -2.44727 
1.62393 0.854977 -2.49663 1.58302 0.827505 -2.55408 1.54507 0.792372 -2.61051 
1.51127 0.743817 -2.65777 1.46973 0.710231 -2.69231 1.42527 0.684212 -2.72787 
1.38611 0.649596 -2.777 1.35355 0.600432 -2.83155 1.31505 0.564121 -2.88045 
1.27299 0.529263 -2.90746 1.23398 0.481302 -2.918 1.19254 0.437043 -2.92168 
1.15773 0.378134 -2.93075 1.12535 0.318102 -2.9544 1.09182 0.268862 -3.00157 
1.06502 0.205012 -3.05414 1.04226 0.133101 -3.09793 1.02585 0.064792 -3.11837 
1.0228 0.00374134 -3.12208 1.0168 -0.0585023 -3.1262 1.0289 -0.115447 -3.14276 
1.05389 -0.170194 -3.17993 1.08176 -0.224783 -3.22418 1.10723 -0.278341 -3.25383 
1.12494 -0.330038 -3.24727 1.12698 -0.384053 -3.21302 1.10589 -0.44738 -3.1819 
1.08959 -0.51277 -3.17996 1.10121 -0.570908 -3.20404 1.12361 -0.624707 -3.22666 
1.14121 -0.676444 -3.22011 1.14197 -0.729981 -3.17859 1.1154 -0.792523 -3.12585 
1.08022 -0.860411 -3.08921 1.04741 -0.92939 -3.08219 1.01452 -0.990702 -3.0983 
0.973808 -1.03685 -3.10172 0.932972 -1.09307 -3.07436 0.884781 -1.14315 -3.01101 
0.82219 -1.15838 -2.94495 0.7464 -1.13927 -2.8835 0.67047 -1.11721 -2.8298 
0.601057 -1.1095 -2.78154 0.530962 -1.09741 -2.74123 0.465142 -1.09125 -2.71485 
0.393961 -1.07115 -2.69033 0.324628 -1.05325 -2.67288 0.261929 -1.05781 -2.6377 
0.201733 -1.07407 -2.58623 0.139252 -1.09997 -2.48931 0.0810106 -1.14729 -2.36008 
0.0210616 -1.19536 -2.21603 -0.0400366 -1.23266 -2.0955 -0.0807706 -1.32097 -1.86267 
-0.0540317 -1.35407 -1.74308 -0.0360533 -1.39369 -1.64703 -0.0155881 -1.43431 -1.56555 
0.0200256 -1.46982 -1.48947 0.0520786 -1.50776 -1.42133 0.0929596 -1.54414 -1.3669 
0.131099 -1.58462 -1.33521 0.178066 -1.62354 -1.31722 0.221471 -1.66489 -1.30717 
0.278728 -1.70066 -1.29524 0.333103 -1.73659 -1.27625 0.361956 -1.78081 -1.24582 
0.378015 -1.82719 -1.19476 0.400394 -1.87002 -1.13538 0.440696 -1.90763 -1.08848 
0.482325 -1.9497 -1.07868 0.536372 -1.99175 -1.10445 0.585184 -2.03691 -1.1384 
0.635162 -2.0786 -1.14982 0.664107 -2.12278 -1.11938 0.6942 -2.16592 -1.08505 
0.75778 -2.2015 -1.10219 0.858499 -2.2281 -1.23052 -0.155002 -1.24617 -1.97797 
-0.208479 -1.2019 -1.93721 -0.278995 -1.16049 -1.86894 -0.352624 -1.11635 -1.77128 
-0.405895 -1.06302 -1.66339 -0.455098 -1.01004 -1.56986 -0.510564 -0.964571 -1.51446 
-0.547694 -0.916706 -1.49384 -0.581234 -0.870386 -1.49509 -0.625735 -0.829478 -1.50529 
-0.654516 -0.782239 -1.51335 -0.664806 -0.727556 -1.51891 -0.657794 -0.665906 -1.52211 
-0.656729 -0.605652 -1.51867 -0.654991 -0.543134 -1.50023 -0.681566 -0.489024 -1.46327 
-0.730885 -0.443073 -1.42194 -0.757459 -0.388963 -1.38498 -0.755722 -0.326445 -1.36654 
-0.755854 -0.265675 -1.3558 -0.75223 -0.202398 -1.33711 -0.766833 -0.14276 -1.29356 
-0.782974 -0.0800625 -1.22789 -0.77645 -0.00170997 -1.14206 1.09435 -2.27191 -1.66276 
1.17569 -2.31373 -1.79319 1.22554 -2.35581 -1.81213 1.27869 -2.38665 -1.76736 
1.3357 -2.40379 -1.71165 1.39257 -2.40777 -1.67946 1.4561 -2.42615 -1.65268 
1.52134 -2.45159 -1.6176 1.58004 -2.46781 -1.56167 1.63153 -2.46789 -1.50053 
1.68607 -2.47328 -1.44605 1.74235 -2.47542 -1.41409 1.80704 -2.49422 -1.39461 
[...]
POINT_DATA 722
SCALARS DY_raw double
LOOKUP_TABLE default
217.611 168.957 157.988 165.291 129.573 206.963 183.622 122.448 149.419 
136.46 130.651 92.1885 113.813 170.231 117.372 143.164 207.539 264.341 
126.361 192.519 153.89 127.805 160.397 170.335 148.943 204.033 176.834 
126.552 139.328 183.873 202.237 193.98 180.669 184.188 190.782 191.013 
171.841 149.125 156.738 141.637 144.353 173.856 170.699 178.496 178.724 
131.793 170.165 168.531 181.912 179.593 180.569 180.569 165.75 154.718 
154.718 160.257 165.112 165.112 190.934 235.323 209.515 212.473 171.896 
203.014 173.033 174.424 173.53 184.042 184.042 173.417 168 164.454 
142.307 178.571 200.342 199.645 195.287 153.321 142.168 147.39 155.413 
181.505 182.232 169.16 148.308 137.719 137.087 137.882 155.221 151.099 
151.453 163.961 179.291 200.369 193.815 213.864 206.382 184.275 168.328 
173.393 217.484 211.022 205.017 249.452 213.725 192.598 182.413 184.643 
170.788 175.827 186.004 188.093 190.046 199.865 165.163 165.348 211.332 
196.289 175.866 147.171 147.171 154.617 149.447 157.584 175.436 188.539 
166.293 158.971 165.924 159.85 163.625 184.042 190.586 186.191 199.212 
182.669 198.514 170.181 133.923 139.9 139.952 151.609 151.609 163.964 
168.86 185.382 178.834 202.342 253.847 264.606 264.606 217.654 202.848 
202.848 193.491 212.371 202.935 195.825 142.592 136.704 137.336 150.166 
133.236 133.116 135.611 112.15 115.911 109.303 107.859 116.393 134.771 
123.844 135.727 128.421 109.607 148.033 161.847 153.024 161.978 147.794 
159.278 159.278 181.896 181.896 159.291 154.822 140.704 122.874 111.496 
113.698 137.197 160.019 160.019 170.706 158.119 147.622 137.347 125.35 
132.357 127.21 134.782 125.554 133.515 133.515 150.284 165.293 166.738 
165.093 157.993 157.993 172.714 180.15 173.878 186.259 194.159 190.818 
194.586 148.477 131.388 131.388 117.608 130.569 151.056 148.507 119.878 
115.785 123.865 119.229 119.798 119.798 119.739 121.334 125.942 135.46 
142.463 147.909 128.099 118.128 122.614 131.89 233.239 194.33 211.244 
230.263 231.939 190.024 186.432 149.109 140.851 141.621 135.942 132.497 
130.63 139.548 122.867 121.949 121.949 135.503 154.783 149.299 143.603 
173.085 177.394 218.019 269.601 204.234 207.886 218.765 189.585 156.003 
156.051 157.779 157.779 152.937 133.3 102.013 106.246 121.492 130.048 
140.314 140.314 125.62 144.622 154.958 166.256 152.989 131.641 123.017 
137.034 119.351 117.205 138.992 145.377 145.071 154.76 167.946 170.355 
159.425 128.417 135.245 126.86 113.793 137.692 146.447 113.502 140.596 
150.616 153.618 160.688 167.065 153.315 162.311 140.075 132.468 136.447 
134.885 132.414 138.974 124.596 138 141.633 133.082 121.2 119.724 
122.671 131.055 123.813 117.995 110.152 116.383 113.128 118.836 114.37 
138.032 132.459 133.281 142.905 150.041 159.38 159.38 177.654 177.654 
196.143 158.888 158.888 163.38 152.006 166.976 141.477 123.566 130.96 
128.251 130.897 136.523 127.558 127.5 123.281 123.405 116.711 117.896 
126.735 125.806 151.99 184.614 203.462 212.096 203.035 192.978 200.234 
176.671 159.415 145.684 148.648 149.944 161.708 173.705 173.705 196.438 
172.174 177.786 170.132 155.391 155.391 157.046 157.046 149.958 165.043 
165.043 161.383 185.054 169.873 190.014 151.662 128.644 148.346 147.514 
151.14 133.14 148.46 152.031 147.863 147.119 128.704 139.194 170.16 
163.671 154.429 152.87 171.773 161.685 136.822 151.096 126.456 136.572 
131.773 149.598 133.961 143.239 160.271 151.048 162.159 185.814 195.229 
210.627 189.94 160.168 178.263 157.373 176.289 162.452 155.633 174.253 
152.983 158.612 165.581 172.604 152.779 140.187 149.916 117.949 133.041 
152.152 158.713 169.192 166.012 160.18 149.166 137.204 146.169 171.94 
192.164 206.012 210.473 217.599 217.599 214.653 203.524 203.524 199.336 
178.88 171.186 200.412 171.958 177.61 177.61 165.717 137.958 131.829 
136.647 134.567 156.364 161.355 170.868 175.809 242.448 173.199 168.603 
184.712 161.097 203.396 203.396 199.971 205.644 205.644 187.395 205.753 
188.252 171.503 177.945 155.957 180.813 176.41 176.41 207.708 207.708 
209.155 203.375 203.375 192.779 178.033 178.033 189.459 185.959 191.346 
216.439 184.877 161.537 175.612 185.033 165.539 181.713 194.988 187.144 
223.892 253.232 237.478 221.493 141.653 142.054 152.585 140.624 114.764 
201.771 201.729 193.896 195.736 198.878 205.124 214.624 220.378 220.571 
93.5711 111.152 111.95 111.445 114.893 126.735 145.469 145.469 113.975 
146.913 143.324 120.236 136.896 154.55 154.13 152.379 163.595 163.595 
156.613 137.482 123.931 108.686 114.792 115.496 125.314 136.949 145.382 
136.55 145.115 147.232 142.752 155.788 159.661 175.212 175.212 155.947 
175.38 186.644 201.306 186.522 184.591 160.229 165.917 165.701 174.128 
169.55 175.839 164.711 157.068 150.839 154.166 159.808 155.715 166.028 
156.008 148.341 128.61 128.61 111.994 117.453 132.861 140.845 134.608 
155.993 172.403 171.816 166.795 168.956 151.714 118.178 106.95 106.95 
101.15 135.515 133.949 133.949 116.745 121.074 114.58 144.591 156.598 
158.795 152.201 140.987 129.167 126.663 150.288 154.661 156.862 139.13 
124.469 128.368 129.563 142.976 138.558 162.248 132.618 132.4 145.572 
162.423 151.22 151.468 131.132 160.423 152.733 130.26 130.26 123.436 
130.465 129.802 139.524 129.354 132.659 124.973 129.731 139.89 140.893 
119.66 176.092 114.376 131.381 127.077 136.433 151.507 133.623 133.623 
143.931 123.422 137.853 115.052 133.213 133.213 121.278 118.917 132.648 
125.724 142.755 139.826 138.835 153.096 162.79 153.366 162.663 158.774 
165.103 162.033 172.722 163.366 152.833 136.877 136.877 134.518 136.707 
136.707 133.992 125.902 140.435 166.225 166.705 167.083 181.414 129.573 
142.442 142.442 174.417 181.268 181.268 174.644 182.982 199.577 193.017 
185.803 185.803 173.377 173.377 163.745 185.035 184.454 182.919 132.977 
129.923 140.195 154.736 143.533 156.909 157.443 166.618 164.793 176.268 
168.951 182.537 
FIELD FieldData 7
DY_minmax 1 722 double
0.706952 0.432712 0.370884 0.41205 0.21072 0.646934 0.515371 0.170563 0.322584 
0.249537 0.216795 0 0.121887 0.439892 0.141947 0.287327 0.650179 0.970348 
0.192617 0.565519 0.347785 0.200756 0.38446 0.440477 0.319899 0.63042 0.47711 
0.193692 0.265705 0.516787 0.620298 0.573755 0.498726 0.518559 0.555731 0.557034 
0.448965 0.320927 0.36384 0.278721 0.294027 0.460326 0.44253 0.486477 0.487761 
0.223235 0.43952 0.430309 0.50573 0.492661 0.498161 0.498161 0.414634 0.352452 
0.352452 0.383671 0.411037 0.411037 0.556586 0.806788 0.66132 0.677994 0.449274 
0.624675 0.455684 0.463525 0.458488 0.51774 0.51774 0.45785 0.427314 0.40733 
0.282497 0.486902 0.609613 0.605684 0.581121 0.344579 0.281714 0.311147 0.356371 
0.503441 0.507539 0.433857 0.316319 0.256636 0.253074 0.257552 0.355284 0.332054 
0.334047 0.404549 0.490958 0.609768 0.572825 0.685832 0.643659 0.519051 0.429164 
0.457714 0.706237 0.669813 0.635965 0.886428 0.685051 0.565965 0.508556 0.521128 
0.443033 0.471434 0.528798 0.540571 0.55158 0.606926 0.411327 0.412369 0.67156 
0.586767 0.471654 0.309915 0.309915 0.351885 0.322744 0.368604 0.469231 0.543085 
0.417697 0.376426 0.415613 0.381378 0.402656 0.517738 0.554622 0.529854 0.603247 
0.509997 0.599308 0.439612 0.235239 0.268929 0.269221 0.334927 0.334927 0.40457 
0.432164 0.525293 0.488385 0.620886 0.911197 0.971845 0.971845 0.707192 0.623739 
0.623739 0.570997 0.677418 0.62423 0.584156 0.284102 0.250913 0.254478 0.326795 
0.231365 0.230691 0.244754 0.112517 0.133713 0.096468 0.0883304 0.136429 0.240019 
0.178429 0.245405 0.204225 0.0981831 0.314772 0.392634 0.342901 0.393376 0.313422 
0.378154 0.378154 0.505642 0.505642 0.378226 0.353037 0.273461 0.172961 0.10883 
0.121238 0.253695 0.382332 0.382332 0.442569 0.371619 0.312456 0.254538 0.186918 
0.226411 0.197401 0.240079 0.188069 0.232939 0.232939 0.327462 0.412057 0.420204 
0.410931 0.370914 0.370914 0.453889 0.495801 0.46045 0.530236 0.574764 0.555931 
0.577171 0.317273 0.220952 0.220952 0.143279 0.216332 0.331812 0.317443 0.156075 
0.133002 0.178548 0.152418 0.155625 0.155625 0.155288 0.164282 0.190253 0.243901 
0.283374 0.314074 0.202411 0.146209 0.171496 0.223783 0.795041 0.575726 0.671065 
0.778266 0.787711 0.551458 0.531211 0.320836 0.274291 0.278632 0.24662 0.227204 
0.216678 0.266943 0.172924 0.167747 0.167747 0.244142 0.352817 0.321906 0.289801 
0.455981 0.480265 0.70925 1 0.631553 0.652136 0.713455 0.548981 0.359697 
0.359966 0.369708 0.369708 0.342415 0.231731 0.0553757 0.0792339 0.16517 0.213395 
0.271263 0.271263 0.188437 0.295545 0.353802 0.417484 0.342706 0.222374 0.173767 
0.252774 0.153103 0.14101 0.263812 0.2998 0.298078 0.352688 0.42701 0.440593 
0.378981 0.204207 0.242689 0.195428 0.121778 0.256482 0.305831 0.120136 0.272851 
0.329332 0.346253 0.386103 0.422044 0.344544 0.395252 0.269917 0.227038 0.249464 
0.240662 0.226733 0.263707 0.182666 0.258217 0.2787 0.230499 0.163523 0.155203 
0.171815 0.219076 0.178251 0.145461 0.101251 0.136374 0.118026 0.150201 0.12503 
0.258399 0.226988 0.231619 0.285869 0.326087 0.378731 0.378731 0.481732 0.481732 
0.585948 0.375958 0.375958 0.401277 0.337165 0.421546 0.277816 0.176863 0.218539 
0.203269 0.218184 0.249892 0.199365 0.199034 0.175255 0.175952 0.138224 0.144905 
0.194726 0.189489 0.337076 0.520962 0.627199 0.675866 0.624795 0.568107 0.609003 
0.476194 0.378929 0.301529 0.318238 0.325543 0.391852 0.459473 0.459473 0.58761 
0.450842 0.482478 0.439333 0.356244 0.356244 0.365573 0.365573 0.325624 0.410651 
0.410651 0.390017 0.52344 0.437876 0.551402 0.335228 0.205481 0.316538 0.311849 
0.332284 0.230827 0.317176 0.337305 0.313811 0.30962 0.205825 0.264951 0.439491 
0.402914 0.350822 0.342038 0.448582 0.391723 0.25158 0.332035 0.193148 0.250172 
0.22312 0.323594 0.235453 0.287752 0.383753 0.331764 0.394395 0.527724 0.580797 
0.667588 0.550984 0.383173 0.485163 0.367416 0.474036 0.396043 0.35761 0.46256 
0.34267 0.374402 0.413683 0.453265 0.341525 0.270547 0.325387 0.145203 0.230269 
0.337988 0.374972 0.434034 0.416113 0.38324 0.321159 0.253733 0.304263 0.449524 
0.56352 0.641575 0.66672 0.706884 0.706884 0.690277 0.627548 0.627548 0.603945 
0.488645 0.445276 0.610011 0.449627 0.481484 0.481484 0.414451 0.257984 0.223438 
0.250595 0.238869 0.361729 0.389862 0.443482 0.471335 0.84695 0.456619 0.430717 
0.521512 0.388407 0.626828 0.626828 0.607522 0.639499 0.639499 0.536636 0.640111 
0.541466 0.447061 0.483374 0.359436 0.499535 0.474718 0.474718 0.651132 0.651132 
0.659291 0.626709 0.626709 0.566986 0.483867 0.483867 0.54827 0.528546 0.558907 
0.700349 0.522443 0.39089 0.47022 0.523322 0.413444 0.504609 0.579435 0.535225 
0.742355 0.907734 0.818932 0.728836 0.278809 0.281067 0.34043 0.273012 0.12725 
0.617668 0.617435 0.573283 0.583652 0.601363 0.636566 0.690114 0.722546 0.723639 
0.00779321 0.106889 0.111385 0.10854 0.127977 0.194724 0.30032 0.30032 0.122802 
0.308457 0.288226 0.158093 0.252 0.351506 0.34914 0.339268 0.40249 0.40249 
0.363131 0.255298 0.178919 0.0929905 0.127407 0.131374 0.186714 0.252297 0.299829 
0.250045 0.298323 0.310258 0.285003 0.358484 0.380311 0.467966 0.467966 0.359382 
0.468915 0.532405 0.615048 0.53172 0.52083 0.383513 0.415573 0.41436 0.461856 
0.436054 0.471501 0.408779 0.365696 0.330587 0.34934 0.381141 0.35807 0.416202 
0.359722 0.316509 0.205293 0.205293 0.111633 0.142405 0.229253 0.274254 0.239099 
0.359639 0.452135 0.448826 0.420524 0.432704 0.33552 0.146494 0.0832043 0.0832043 
0.0505114 0.244213 0.235383 0.235383 0.138413 0.162815 0.126213 0.295372 0.363051 
0.375431 0.338263 0.275055 0.208432 0.194316 0.32748 0.352128 0.364535 0.264589 
0.18195 0.20393 0.210666 0.286269 0.261363 0.394898 0.227883 0.226655 0.300902 
0.395882 0.332736 0.334132 0.219509 0.384611 0.341261 0.214593 0.214593 0.176128 
0.215747 0.212013 0.266812 0.209483 0.228115 0.18479 0.211609 0.268875 0.274526 
0.154846 0.472929 0.125062 0.220909 0.19665 0.249389 0.334353 0.233547 0.233547 
0.29165 0.176048 0.257389 0.128869 0.231235 0.231235 0.163964 0.150659 0.228051 
0.189027 0.28502 0.268513 0.262924 0.343309 0.397949 0.344831 0.397234 0.375313 
0.410986 0.393684 0.453934 0.401198 0.341828 0.251891 0.251891 0.238591 0.25093 
0.25093 0.23563 0.190028 0.271946 0.417312 0.420018 0.42215 0.502926 0.21072 
0.283258 0.283258 0.463484 0.5021 0.5021 0.464767 0.511765 0.605303 0.568329 
0.527666 0.527666 0.457624 0.457624 0.403331 0.523336 0.52006 0.511407 0.22991 
0.212692 0.270593 0.352555 0.289406 0.364801 0.367812 0.419527 0.40924 0.473922 
0.432675 0.509255 
WidthEq 1 722 double
1 2.3377 2.05307 1.92957 2.59291 1.54043 2.59245 4.61101 2.38263 
3.49797 3.89505 5.97874 3.09167 2.82593 5.55492 5.23072 4.76066 1.2656 
3.0716 4.37776 2.85172 5.0412 2.77681 4.37122 3.85995 3.78331 2.57954 
2.48499 3.96518 3.90106 2.51987 3.69559 3.56127 3.37678 3.33129 3.33694 
3.5647 3.79501 3.77962 4.02565 4.00208 3.34139 3.66804 3.83001 3.62376 
4.43309 3.84204 3.91691 3.68124 3.54124 3.19203 3.19203 3.24194 3.33162 
3.33162 3.33541 3.36851 3.36851 2.90064 2.40737 2.37773 2.81603 3.46973 
3.08497 3.53431 3.41106 3.55022 3.51045 3.51045 3.52509 3.45228 3.28785 
2.81743 2.44463 2.36446 2.45467 4.0143 3.53833 3.26867 3.23801 3.11846 
3.10559 3.46679 3.787 4.32514 3.18402 3.31184 3.43404 3.37462 3.52385 
3.69007 4.43204 4.07032 3.60036 3.66618 3.43172 3.51911 3.73046 2.4431 
2.14046 1.60017 1.49738 1.47983 1.34551 1.69269 2.04281 2.46803 3.01506 
3.72438 2.6955 2.4799 2.31041 2.12076 1.95673 1.99506 1.96441 1.90028 
2.07389 2.47581 2.83969 2.83969 2.60333 2.93375 2.84567 2.54595 2.46947 
2.69494 2.6703 2.63592 2.80939 2.72422 2.48509 2.44767 2.46741 2.37616 
2.45823 2.381 2.41061 3.00009 2.79014 2.79818 3.00715 3.00715 2.96846 
3.19579 3.05326 3.0998 3.00986 2.69151 2.59435 2.59435 3.27916 3.69154 
3.69154 4.44208 4.54803 4.76991 5.07228 3.90381 3.60474 3.72896 3.77236 
4.10882 4.22174 4.11059 4.62228 4.56731 4.74461 4.69288 4.66653 3.99486 
3.94198 3.80965 4.04437 4.73755 3.80936 2.75174 2.73004 2.47558 2.8458 
2.82953 2.82953 2.80831 2.80831 3.09209 3.00908 3.14448 3.20752 3.055 
2.93322 2.81034 2.64713 2.64713 2.43659 2.6785 2.78103 2.76563 3.07954 
2.97349 3.02202 2.97408 2.9244 2.72517 2.72517 2.57925 2.42522 2.4361 
2.42888 2.3427 2.3427 2.19282 2.1455 2.18527 2.09177 1.97251 2.07549 
2.23089 2.84564 3.1751 3.1751 3.4377 3.28939 3.01901 3.16477 3.63761 
3.81217 3.60166 3.56741 3.5347 3.5347 3.00372 3.08405 3.21475 3.21203 
3.29835 3.24612 3.09379 3.135 3.09761 3.12912 3.57826 4.48933 4.04542 
3.66056 3.57336 4.20415 4.81527 3.16615 3.32514 3.46855 3.42492 3.49578 
3.15441 2.98967 2.96532 2.97133 2.97133 2.67981 2.61994 2.63144 2.53255 
2.217 2.15363 1.88842 1.56517 1.86541 1.78449 1.72158 1.92627 2.16419 
2.51931 2.57582 2.57582 2.53281 2.62618 2.98846 2.88982 2.8039 2.69841 
2.80279 2.80279 2.82488 2.65991 2.62602 2.68376 2.79923 3.02552 3.26736 
3.25066 3.48636 3.73115 3.56539 3.45296 3.50663 3.39113 3.15115 3.13997 
3.57787 4.24406 4.15869 4.50411 4.88773 4.41306 4.66941 5.48907 4.85684 
4.13369 3.043 3.01267 2.73877 2.49696 2.49607 2.50902 2.5065 2.56526 
2.54284 2.66416 2.73808 3.14634 3.11386 3.13324 3.20615 3.39812 3.55637 
3.61758 3.57735 3.64931 3.63346 3.6852 5.53793 5.15833 4.98881 3.90897 
3.37662 2.83515 2.75622 2.64098 2.66935 2.50176 2.50176 2.32227 2.32227 
2.17357 2.41032 2.41032 2.46114 2.46754 2.41287 2.75488 2.98561 3.3844 
3.63546 3.93691 2.84672 2.95826 2.92103 3.24877 3.3656 3.33054 3.03284 
2.77563 2.75011 2.39371 2.24929 2.11151 1.98849 2.12112 2.31436 2.20923 
2.46424 2.60866 2.65089 2.5802 2.43545 2.59023 2.66556 2.66556 2.53179 
2.73939 2.50931 2.65589 2.92702 2.92702 2.86917 2.86917 2.91855 2.54304 
2.54304 2.64062 2.41541 2.58016 2.62791 3.09418 3.39404 3.56787 3.50427 
3.45819 3.34122 3.01254 2.92757 3.0782 3.30148 3.64837 3.84377 3.76576 
4.01777 4.47093 3.32766 3.41894 3.62291 3.67317 3.58343 3.47728 3.43701 
3.26024 3.2588 3.14638 3.19906 3.20095 3.14722 3.05552 2.72295 2.50209 
2.2255 2.26593 2.31064 2.3811 2.48284 2.59915 2.75393 2.79665 2.80008 
3.09062 3.08987 2.99153 2.95162 3.19468 3.09523 2.98761 3.04911 2.7923 
2.48594 2.48575 2.5097 2.57457 2.76027 2.9077 2.96326 2.68102 2.4162 
2.21259 2.09255 2.08507 1.97947 1.97947 2.00781 1.99741 1.99741 2.00441 
2.1889 2.33822 2.06984 2.45764 2.53967 2.53967 2.61222 2.93597 3.07944 
3.04617 3.37825 4.80533 4.40198 3.8806 3.59134 2.73056 3.28138 3.3207 
2.99424 3.15556 2.66559 2.66559 2.57673 2.54363 2.54363 2.69576 2.69674 
2.91839 3.22164 3.10765 3.34247 2.91839 2.83381 2.83381 2.54016 2.54016 
2.53362 2.53572 2.53572 2.5163 2.4932 2.4932 2.22249 2.33616 2.42692 
2.23606 2.82616 3.82655 3.70056 4.09183 4.32733 4.3155 4.10313 3.86606 
3.45953 3.36766 3.8474 4.30442 5.61042 4.96201 4.89655 4.70716 5.342 
3.8288 3.41309 3.14271 3.03215 2.86015 2.8578 2.46516 2.06954 2.01722 
3.93894 3.84429 4.02146 4.14484 4.14951 3.7255 3.41152 3.41152 5.45541 
4.58545 4.88099 4.98178 4.18631 3.57794 3.45662 3.55607 3.47816 3.47816 
3.82939 4.37521 4.86723 5.45792 5.92733 5.59614 5.22536 4.30043 4.06055 
4.0247 4.07705 4.07493 4.08444 3.85325 3.81109 3.58219 3.58219 3.55447 
3.33305 2.96672 2.7871 2.81211 2.66125 2.89306 2.79129 2.68635 2.67942 
2.64984 2.52362 2.33567 2.25165 2.31207 2.0166 1.86662 1.86675 1.6054 
1.84786 1.93676 2.06967 2.06967 2.22076 2.34384 2.30851 2.29005 2.35054 
2.19831 2.09892 2.15004 2.12291 2.15282 2.25972 2.28554 2.3325 2.3325 
2.32992 2.02251 2.03049 2.03049 2.1052 2.12334 2.07183 1.80309 2.02206 
2.11834 2.13278 2.20802 2.39992 2.49182 2.3843 2.39829 2.37535 2.69971 
3.17229 3.66213 3.11239 2.64919 2.6003 2.32293 2.41989 2.34887 2.38329 
2.32074 2.39195 2.35747 2.59075 2.32554 2.79076 3.3576 3.3576 3.50806 
3.38299 3.5048 3.11817 3.3257 3.07624 5.27893 4.97423 4.74115 4.91132 
5.21461 3.06408 4.48329 4.41139 4.0814 4.00035 3.55575 3.56983 3.56983 
3.20981 3.22027 3.03078 3.01918 2.80184 2.80184 2.74478 2.67775 2.56944 
2.43176 2.29387 2.26668 2.37708 2.23305 2.29309 2.47767 2.36348 2.44764 
2.57471 2.67187 2.51931 2.58494 2.60356 2.81348 2.81348 2.74128 2.66674 
2.66674 2.74576 2.76812 2.48457 2.24191 2.73177 2.60206 2.10794 2.59291 
2.32495 2.32495 2.09023 1.8662 1.8662 1.82858 1.80018 1.77606 1.75508 
1.8208 1.8208 1.96261 1.96261 2.04392 1.99833 1.96071 1.85044 2.46637 
2.02359 2.34574 1.96794 2.13367 2.17063 2.23586 2.21981 2.25253 2.18922 
2.34744 1.66756 
rRFP 1 722 double
2560.9 2970.21 2883.12 2845.33 3048.3 2726.26 3048.16 3665.8 2983.96 
3325.23 3446.73 4084.3 3200.91 3119.6 3954.62 3855.42 3711.59 2642.17 
3194.77 3594.43 3127.49 3797.43 3104.57 3592.43 3435.99 3412.54 3044.21 
3015.28 3468.19 3448.57 3025.95 3385.7 3344.6 3288.15 3274.23 3275.96 
3345.65 3416.12 3411.41 3486.69 3479.48 3277.32 3377.27 3426.83 3363.72 
3611.36 3430.51 3453.42 3381.31 3338.47 3231.62 3231.62 3246.89 3274.33 
3274.33 3275.49 3285.62 3285.62 3142.46 2991.53 2982.46 3116.57 3316.59 
3198.86 3336.35 3298.64 3341.22 3329.05 3329.05 3333.53 3311.25 3260.94 
3117 3002.93 2978.4 3006 3483.22 3337.58 3255.07 3245.69 3209.11 
3205.17 3315.69 3413.67 3578.33 3229.17 3268.28 3305.67 3287.49 3333.15 
3384.01 3611.04 3500.36 3356.56 3376.7 3304.96 3331.7 3396.37 3002.46 
2909.86 2744.54 2713.09 2707.72 2666.62 2772.85 2879.98 3010.09 3177.47 
3394.51 3079.69 3013.72 2961.86 2903.83 2853.64 2865.37 2855.99 2836.37 
2889.49 3012.47 3123.81 3123.81 3051.49 3152.59 3125.64 3033.93 3010.53 
3079.52 3071.98 3061.46 3114.54 3088.48 3015.31 3003.86 3009.9 2981.98 
3007.09 2983.46 2992.52 3172.89 3108.65 3111.11 3175.05 3175.05 3163.21 
3232.77 3189.16 3203.4 3175.88 3078.47 3048.74 3048.74 3258.28 3384.46 
3384.46 3614.11 3646.53 3714.42 3806.94 3449.41 3357.9 3395.91 3409.19 
3512.14 3546.69 3512.68 3669.25 3652.43 3706.68 3690.85 3682.79 3477.27 
3461.09 3420.6 3492.42 3704.52 3420.51 3096.9 3090.26 3012.4 3125.68 
3120.7 3120.7 3114.21 3114.21 3201.04 3175.64 3217.07 3236.36 3189.69 
3152.43 3114.83 3064.89 3064.89 3000.47 3074.49 3105.86 3101.15 3197.2 
3164.75 3179.6 3164.93 3149.73 3088.77 3088.77 3044.12 2996.99 3000.32 
2998.11 2971.74 2971.74 2925.88 2911.4 2923.57 2894.96 2858.47 2889.98 
2937.53 3125.63 3226.44 3226.44 3306.79 3261.41 3178.68 3223.28 3367.96 