# vtk DataFile Version 3.0
vtk output
ASCII
DATASET POLYDATA
POINTS 298 float
-0.498538 -0.167777 -0.181348 0.914661 0.149791 0.930517 0.700891 0.458199 0.862836 
0.807699 -0.0920328 -1.03705 0.0454044 -0.0704083 -1.42106 0.465969 0.175274 -1.09199 
0.314076 0.54703 -0.653623 1.87264 0.548543 0.784324 2.08986 0.655772 0.60337 
0.103259 1.23999 0.483596 2.84058 0.710542 -0.0251561 0.409042 0.83279 -1.0995 
0.973481 1.40429 0.438019 3.40867 0.233533 -1.65237 2.19539 0.235469 -2.35537 
-0.114284 1.43916 -0.302219 2.50194 0.67239 -2.36686 2.61986 0.686681 -2.05399 
2.96432 1.05095 -2.04506 2.74508 1.05858 -2.35512 4.20364 1.22584 -0.827113 
1.79673 1.16029 -2.41782 3.22306 1.46414 -0.726223 2.84124 1.10364 -2.36768 
2.90382 1.13619 -2.35228 2.9383 1.136 -2.3025 2.9509 1.10291 -2.20017 
3.18306 1.45719 -0.678735 3.13882 1.42967 -0.623972 3.08892 1.37474 -0.559507 
3.03201 1.28554 -0.482843 2.97091 1.16906 -0.395226 2.91316 1.02604 -0.290175 
2.8731 0.871288 -0.162709 1.76232 1.18075 -2.3801 1.72653 1.20107 -2.34357 
1.68309 1.22065 -2.31359 1.62679 1.239 -2.29462 1.57431 1.25771 -2.27237 
1.51655 1.27592 -2.25465 1.46408 1.29463 -2.2324 1.4077 1.31297 -2.2135 
1.36278 1.33241 -2.18477 1.31788 1.35186 -2.15604 1.26149 1.3702 -2.13714 
1.20911 1.38892 -2.11482 1.15272 1.40726 -2.09592 1.1064 1.41984 -2.06476 
1.05732 1.41873 -2.02869 0.995328 1.40294 -1.9964 0.9448 1.38826 -1.9543 
0.903298 1.38787 -1.91174 0.857025 1.39375 -1.87691 0.799349 1.39852 -1.85183 
0.750326 1.3907 -1.81208 0.707456 1.37675 -1.76342 0.661715 1.34237 -1.7063 
0.613307 1.2943 -1.64419 0.562031 1.2258 -1.57362 0.518322 1.15802 -1.49657 
0.484758 1.08451 -1.4072 0.44267 1.01685 -1.3289 0.403251 0.94861 -1.25067 
0.393159 0.891515 -1.16904 4.16775 1.24611 -0.790797 4.12412 1.26479 -0.763467 
4.06883 1.28392 -0.764319 4.02424 1.30581 -0.796357 3.98982 1.34372 -0.845036 
3.95679 1.38846 -0.896292 3.91618 1.43 -0.93833 3.86045 1.44977 -0.960255 
3.80844 1.43652 -0.982815 3.75593 1.39278 -1.00136 3.69806 1.34453 -1.01312 
3.63851 1.30499 -1.02392 3.60325 1.27406 -1.06405 3.57243 1.24818 -1.10993 
3.54462 1.21281 -1.15826 3.50317 1.16248 -1.18898 3.46024 1.10532 -1.2172 
3.42711 1.05003 -1.25707 3.38984 1.0203 -1.29499 3.35548 1.00423 -1.33784 
3.33199 0.989383 -1.39352 3.3052 0.976498 -1.44558 3.28164 0.961689 -1.50118 
3.24748 0.953198 -1.54513 3.20709 0.948424 -1.58221 3.1667 0.94365 -1.61928 
3.13247 0.9352 -1.66315 3.10919 0.927929 -1.71993 3.08031 0.93929 -1.77255 
3.05363 0.970742 -1.83496 3.02572 1.008 -1.92695 2.68912 0.875497 -2.18881 
2.6729 0.961225 -2.38585 2.59525 0.832824 -2.38685 2.83489 0.892272 -1.98087 
2.73581 0.781479 -1.94459 2.67443 0.727271 -1.95265 2.63726 0.705166 -1.99159 
2.56552 0.620933 -2.06791 2.52137 0.597855 -2.0986 2.49489 0.617789 -2.15576 
2.49244 0.64957 -2.24837 2.42711 0.56415 -2.39216 2.35265 0.459363 -2.39244 
2.27028 0.35316 -2.37118 -0.0799557 1.4187 -0.340006 -0.0456278 1.39824 -0.377793 
-0.0112997 1.37778 -0.41558 0.0230283 1.35731 -0.453367 0.056023 1.33 -0.488656 
0.0875649 1.28912 -0.517916 0.122426 1.2284 -0.53342 0.167354 1.16193 -0.536661 
0.202216 1.10121 -0.552165 0.233758 1.06033 -0.581424 0.263767 1.01828 -0.611647 
0.286931 0.938018 -0.631007 0.300571 0.778307 -0.638118 0.884533 1.44818 0.412086 
0.821142 1.47536 0.384026 0.761673 1.49152 0.364774 0.71162 1.49503 0.337937 
0.658683 1.49003 0.315534 0.588296 1.48005 0.31407 0.512526 1.45017 0.321133 
0.442166 1.40167 0.323972 0.36095 1.352 0.339792 0.274959 1.30619 0.363728 
0.19828 1.26878 0.394221 0.14488 1.2471 0.437502 1.06711 1.51759 0.420748 
1.14375 1.59557 0.414373 1.22136 1.62726 0.406002 1.30229 1.64126 0.394761 
1.38671 1.66597 0.378176 1.47262 1.69751 0.359087 1.55711 1.72218 0.342427 
1.63727 1.72629 0.332971 1.71313 1.71655 0.327112 1.77863 1.69909 0.316011 
1.825 1.67979 0.288538 1.87141 1.66721 0.257458 1.93062 1.66257 0.233705 
1.98876 1.67128 0.201753 2.05227 1.6805 0.174406 2.11329 1.6962 0.14128 
2.18429 1.70614 0.120342 2.2539 1.71595 0.0982165 2.30156 1.7102 0.0645715 
2.33885 1.69675 0.0256818 2.37335 1.6763 -0.0119627 2.40922 1.65599 -0.0484262 
2.45405 1.63653 -0.0772222 2.518 1.61893 -0.0896459 2.58191 1.59459 -0.0984563 
2.6316 1.55546 -0.112181 2.67954 1.48928 -0.112849 2.71793 1.40203 -0.110774 
2.75728 1.29472 -0.0969637 2.78993 1.18004 -0.085258 2.82216 1.04518 -0.0629984 
2.83728 0.888506 -0.0444748 3.31419 0.153224 -1.61779 3.22991 0.0822252 -1.59616 
3.16396 0.0080076 -1.59557 3.10537 -0.0706132 -1.60309 3.04395 -0.162929 -1.60576 
2.97375 -0.257717 -1.59789 2.88381 -0.356124 -1.56657 2.78501 -0.456963 -1.52463 
2.68501 -0.557083 -1.48137 2.58784 -0.64349 -1.44295 2.49606 -0.710013 -1.41307 
2.41334 -0.76654 -1.39489 2.34151 -0.821859 -1.38956 2.26028 -0.87157 -1.37389 
2.17395 -0.91825 -1.3526 2.09271 -0.96797 -1.33693 2.02088 -1.02328 -1.3316 
1.93958 -1.07296 -1.31585 1.85204 -1.11892 -1.29324 1.76344 -1.16424 -1.26945 
1.67591 -1.2102 -1.24684 1.5947 -1.25988 -1.23103 1.52573 -1.30819 -1.22686 
1.45771 -1.33643 -1.21066 1.39919 -1.33929 -1.18503 1.33088 -1.32887 -1.17284 
1.25634 -1.31228 -1.16948 1.18043 -1.29582 -1.1673 1.10594 -1.27251 -1.16754 
1.03574 -1.23535 -1.17138 0.978743 -1.17677 -1.17483 0.942361 -1.10947 -1.16428 
0.908832 -1.04191 -1.15127 0.871448 -0.981436 -1.13793 0.860003 -0.905024 -1.10965 
0.848875 -0.815141 -1.08838 0.84329 -0.704582 -1.07327 0.847994 -0.586302 -1.053 
0.837793 -0.456036 -1.05275 0.81611 -0.326867 -1.06235 0.814661 -0.202469 -1.05098 
0.891026 1.18154 0.582335 0.816743 0.958491 0.715495 0.758771 0.723391 0.824132 
0.436086 0.636963 -1.04894 0.448258 0.459855 -1.02203 0.45851 0.322864 -1.01858 
0.46826 0.232858 -1.04104 0.382847 0.70304 -0.967626 0.354042 0.604743 -0.825926 
2.7867 0.546858 0.091626 2.70098 0.375834 0.169076 2.60971 0.204444 0.219608 
2.51783 0.0529786 0.28087 2.44434 -0.0655254 0.355524 2.37676 -0.155801 0.422914 
2.3033 -0.219724 0.470851 2.2352 -0.26969 0.516095 2.15557 -0.314057 0.547838 
2.06838 -0.359143 0.573096 1.98127 -0.40423 0.59843 1.9031 -0.448455 0.631424 
1.84679 -0.483854 0.679486 1.80087 -0.504811 0.729177 1.75164 -0.505935 0.765112 
1.68488 -0.495317 0.778775 1.6119 -0.478579 0.78346 1.54502 -0.461253 0.793373 
1.48953 -0.442829 0.813042 1.42116 -0.432367 0.825317 1.34238 -0.436339 0.835954 
1.25797 -0.461005 0.852685 1.17206 -0.492545 0.871775 1.08757 -0.517219 0.888435 
1.00598 -0.52823 0.900171 0.925599 -0.539958 0.91058 0.848406 -0.576683 0.920075 
0.783795 -0.644012 0.91832 0.724074 -0.721947 0.912048 0.664918 -0.769424 0.901688 
0.603667 -0.769465 0.888436 0.553007 -0.729565 0.858491 0.498898 -0.655744 0.831901 
0.453141 -0.556601 0.813888 0.438662 -0.433506 0.813968 0.447501 -0.301396 0.830509 
0.455429 -0.16943 0.846141 0.476714 -0.0414957 0.873236 0.518728 0.10316 0.891799 
0.594047 0.26897 0.88404 2.03703 0.587118 0.672616 1.98841 0.545749 0.730905 
1.93792 0.537783 0.769403 0.196852 0.341673 -0.552639 0.0864686 0.18377 -0.481589 
-0.0124934 0.0878932 -0.438673 -0.10526 0.0230839 -0.407753 -0.19675 -0.0358658 -0.378891 
-0.288191 -0.101513 -0.346357 -0.367772 -0.152594 -0.310936 -0.422589 -0.181129 -0.265228 
-0.46271 -0.181376 -0.22149 0.385925 0.35595 -0.605478 0.448926 0.221686 -0.569999 
0.515965 0.15385 -0.554526 0.589416 0.124644 -0.552153 0.665325 0.108188 -0.554334 
0.739774 0.0915911 -0.557766 0.805109 0.0741159 -0.569003 0.849967 0.0613879 -0.601413 
0.880975 0.0607563 -0.652955 0.900347 0.0724914 -0.721605 0.920937 0.0851214 -0.786985 
0.918038 0.0797106 -0.849233 0.892639 0.0593098 -0.899088 0.86484 0.0162918 -0.946401 
0.832246 -0.0316266 -0.98773 0.540546 0.151969 -1.09167 0.612291 0.11496 -1.08651 
0.679789 0.0573904 -1.07407 0.744452 -0.013893 -1.05677 0.421583 0.0727951 -1.11341 
0.360274 0.0189005 -1.12053 0.31109 0.0116765 -1.14707 0.276572 0.0418856 -1.19494 
0.250777 0.0746075 -1.25329 0.230255 0.0810816 -1.31484 0.191787 0.0520669 -1.35144 
0.142828 0.00620259 -1.37389 0.092735 -0.0389755 -1.39509 0.784077 0.341631 0.883636 
0.852335 0.239829 0.907272 
LINES 23 344
6 19 23 24 25 26 18 
9 22 27 28 29 30 31 32 33 10 
32 21 34 35 36 37 38 39 40 41 42 43 44 45 46 47 48 49 50 51 52 53 54 55 56 57 58 59 60 61 62 63 11 
33 20 64 65 66 67 68 69 70 71 72 73 74 75 76 77 78 79 80 81 82 83 84 85 86 87 88 89 90 91 92 93 94 18 
3 19 95 17 
4 19 96 97 16 
6 18 98 99 100 101 17 
6 17 102 103 104 105 16 
5 16 106 107 108 14 
15 15 109 110 111 112 113 114 115 116 117 118 119 120 121 6 
14 12 122 123 124 125 126 127 128 129 130 131 132 133 9 
34 12 134 135 136 137 138 139 140 141 142 143 144 145 146 147 148 149 150 151 152 153 154 155 156 157 158 159 160 161 162 163 164 165 10 
43 13 166 167 168 169 170 171 172 173 174 175 176 177 178 179 180 181 182 183 184 185 186 187 188 189 190 191 192 193 194 195 196 197 198 199 200 201 202 203 204 205 206 3 
5 12 207 208 209 2 
6 11 210 211 212 213 5 
4 11 214 215 6 
42 10 216 217 218 219 220 221 222 223 224 225 226 227 228 229 230 231 232 233 234 235 236 237 238 239 240 241 242 243 244 245 246 247 248 249 250 251 252 253 254 255 2 
5 8 256 257 258 7 
11 6 259 260 261 262 263 264 265 266 267 0 
17 6 268 269 270 271 272 273 274 275 276 277 278 279 280 281 282 3 
6 5 283 284 285 286 3 
11 5 287 288 289 290 291 292 293 294 295 4 
4 2 296 297 1 

POINT_DATA 298
SCALARS DY_raw double
LOOKUP_TABLE default
266.051 244.529 254.031 272.999 527.611 340.596 275.342 306.475 244.61 
337.303 250.029 217.182 315.228 240.853 283.813 215.989 257.72 325.413 
303.653 221.105 429.321 316.149 315.266 240.419 250.82 274.02 279.172 
269.399 220.042 251.102 255.511 230.252 274.854 219.515 296.923 296.923 
282.102 280.203 299.206 286.143 312.698 302.545 308.324 308.324 284.739 
278.911 278.911 290.044 274.301 291.637 271.321 274.734 274.734 247.507 
247.507 239.633 213.531 236.039 227.232 231.129 257.417 224.399 229.532 
231.621 445.996 356.378 334.971 326.654 326.654 274.063 245.166 218.377 
224.118 236.264 256.481 247.385 249.778 267.565 240.167 279.267 280.453 
259.621 259.621 267.939 253.579 283.657 294.704 298.749 298.749 290.347 
290.347 261.945 296.406 301.587 298.217 285.586 225.085 271.154 282.689 
252.812 282.006 325.413 360.69 358.963 301.281 272.025 237.381 232.737 
251.262 215.239 215.239 208.898 200.908 209.947 204.705 217.489 225.179 
231.592 231.592 217.779 228.883 294.286 252.344 230.104 239.384 229.374 
267.933 234.597 258.738 258.913 259.314 270.803 276.21 291.356 243.312 
264.388 282.945 278.504 255.213 222.576 280.057 219.879 218.944 229.282 
229.282 237.186 251.366 202.131 260.525 229.797 213.698 203.081 203.081 
223.6 248.988 248.988 294.199 314.6 314.6 272.283 288.589 271.128 
224.857 201.503 190.822 215.052 243.559 232.347 242.44 237.677 239.911 
259.035 247.146 251.948 247.779 296.175 286.89 259.404 263.248 266.658 
289.863 289.41 269.243 277.462 254.058 270.143 242.261 221.09 223.503 
251.629 291.419 295.054 359.874 332.912 332.912 324.37 256.355 232.112 
239.021 216.758 209.813 227.025 246.413 261.022 336.432 324.314 297.931 
344.484 258.602 251.458 266.251 289.402 303.36 327.828 234.23 268.195 
256.209 243.551 236.311 219.414 196.84 216.981 260.406 270.266 261.339 
280.805 261.685 280.685 302.005 319.836 297.651 320.384 264.426 285.417 
273.503 244.22 305.519 269.768 285.461 304.049 313.151 318.724 332.695 
353.648 352.566 377.96 445.095 379.941 367.177 364.073 314.426 294.834 
278.854 267.382 249.526 256.547 298.857 306.585 306.475 237.414 216.442 
238.76 237.693 232.832 272.504 252.727 256.878 256.878 231.322 201.637 
209.057 309.31 309.31 332.667 343.87 294.51 318.884 281.036 276.257 
245.799 242.918 240.428 250.393 331.153 298.599 267.62 271.9 367.013 
386.758 386.758 363.879 335.787 335.787 332.567 355.36 418.947 256.83 
272.943 
FIELD FieldData 7
DY_minmax 1 298 double
0.223371 0.159467 0.18768 0.244 1 0.444712 0.250957 0.343397 0.159708 
0.434933 0.175797 0.0782669 0.369389 0.148553 0.276111 0.0747247 0.198633 0.399628 
0.335019 0.0899168 0.708155 0.372121 0.3695 0.147265 0.178148 0.247031 0.262329 
0.233313 0.086759 0.178983 0.192077 0.117077 0.249508 0.0851959 0.315037 0.315037 
0.271029 0.265391 0.321816 0.283028 0.361877 0.33173 0.34889 0.34889 0.278858 
0.261556 0.261556 0.294612 0.247867 0.299341 0.23902 0.249152 0.249152 0.16831 
0.16831 0.144929 0.0674284 0.13426 0.108108 0.119679 0.197734 0.0996972 0.114937 
0.121142 0.757666 0.491572 0.42801 0.403314 0.403314 0.24716 0.161359 0.0818152 
0.0988639 0.134928 0.194954 0.167948 0.175052 0.227867 0.146516 0.262612 0.266133 
0.20428 0.20428 0.228977 0.18634 0.275648 0.308447 0.320459 0.320459 0.29551 
0.29551 0.211178 0.313501 0.328884 0.318878 0.281374 0.101735 0.238523 0.272773 
0.184062 0.270746 0.399628 0.504373 0.499246 0.327975 0.24111 0.138242 0.124456 
0.17946 0.0724993 0.0724993 0.0536708 0.0299485 0.0567867 0.0412199 0.079181 0.102012 
0.121054 0.121054 0.0800405 0.113011 0.307207 0.182671 0.116635 0.144191 0.114468 
0.22896 0.129978 0.201656 0.202177 0.203368 0.237481 0.253534 0.298507 0.155853 
0.218432 0.273532 0.260348 0.191192 0.0942853 0.264959 0.0862774 0.0835013 0.114196 
0.114196 0.137664 0.179768 0.0335781 0.206962 0.115724 0.0679226 0.0363993 0.0363993 
0.0973242 0.172708 0.172708 0.306949 0.367523 0.367523 0.241874 0.290291 0.238446 
0.101058 0.0317152 0 0.0719429 0.156588 0.123297 0.153264 0.139123 0.145755 
0.20254 0.167239 0.181496 0.169118 0.312817 0.285245 0.203636 0.215047 0.225174 
0.294073 0.292728 0.232848 0.257252 0.187762 0.235521 0.152733 0.0898725 0.097036 
0.180549 0.298694 0.309488 0.501953 0.421896 0.421896 0.396532 0.19458 0.122599 
0.143113 0.0770082 0.0563883 0.107495 0.165062 0.208438 0.432346 0.396367 0.318029 
0.456257 0.201253 0.180041 0.223964 0.292706 0.33415 0.4068 0.128887 0.229738 
0.194149 0.156563 0.135067 0.084895 0.0178699 0.0776721 0.20661 0.235887 0.209379 
0.267179 0.210407 0.266822 0.330125 0.383069 0.317199 0.384698 0.218545 0.280874 
0.245499 0.158549 0.340561 0.234406 0.281004 0.336196 0.36322 0.379768 0.42125 
0.483466 0.480252 0.555653 0.754992 0.561536 0.523635 0.51442 0.367006 0.308833 
0.261386 0.227323 0.174305 0.195151 0.320779 0.343725 0.343397 0.13834 0.0760708 
0.142339 0.13917 0.124738 0.24253 0.18381 0.196133 0.196133 0.120253 0.0321121 
0.0541443 0.351817 0.351817 0.421167 0.454433 0.307873 0.380244 0.267865 0.253674 
0.163238 0.154683 0.147291 0.176879 0.416673 0.320014 0.228029 0.240736 0.523148 
0.581776 0.581776 0.513842 0.430432 0.430432 0.420872 0.488548 0.677353 0.195991 
0.243836 
WidthEq 1 298 double
1.8398 2.36316 4.05093 3.37485 1.41934 2.78183 2.64076 2.94981 3.60946 
2.06331 4.73298 4.22569 3.31883 3.16932 3.53212 3.151 4.75366 3.8611 
3.82651 4.02777 1 3.03861 2.39868 3.6923 3.659 3.6042 3.90659 
3.15547 4.09887 3.74542 3.79283 4.15432 3.69426 4.99237 3.37711 3.37711 
3.54681 3.49515 3.2378 3.18736 2.84796 2.85796 2.64147 2.64147 2.78705 
2.97012 2.97012 3.05423 3.28111 3.14004 3.39557 3.43944 3.43944 3.72382 
3.72382 3.90361 4.48099 4.32611 4.52345 4.5797 4.33406 4.80595 4.71778 
4.43876 1.02981 1.30606 1.40726 1.33059 1.33059 1.47492 1.88864 1.96963 
2.19969 2.33489 2.26388 2.39501 2.30337 2.30632 2.32276 2.27883 2.34781 
2.53173 2.53173 2.7925 3.1346 3.17972 3.29344 3.38826 3.38826 3.89721 
3.89721 4.13141 4.03076 4.02386 3.97798 3.88721 4.17282 4.33322 4.14137 
4.36653 4.21817 3.8611 3.58037 3.50546 3.86308 4.45617 5.11854 5.20652 
4.78023 3.63355 3.63355 3.86318 3.92523 3.84192 3.42812 3.39304 3.1857 
2.82299 2.82299 2.72088 2.72589 2.49754 3.6547 3.48839 3.21755 3.02873 
2.87288 3.23926 3.16641 3.42984 3.51713 3.29406 2.89324 2.41783 3.6863 
3.43795 3.30871 3.41191 3.58395 3.66908 3.20056 3.60607 3.58498 3.46098 
3.46098 3.33208 3.1186 3.55879 3.16216 3.55649 3.55769 3.63698 3.63698 
3.37528 2.97103 2.97103 2.60657 2.2919 2.2919 2.42594 2.39906 2.60246 
3.48235 4.10524 4.94157 5.26548 3.88251 4.71058 4.57355 4.69688 4.53673 
4.48267 4.51324 4.15594 4.09329 3.43557 3.3866 3.55927 3.30917 3.30071 
3.23919 3.28624 3.36841 3.26557 3.29909 3.22574 3.33182 3.39473 3.33831 
3.0524 2.70185 2.6264 2.35474 2.61246 2.61246 2.79259 3.43755 3.65005 
3.65453 3.97038 3.98889 3.47948 3.0412 3.00048 2.43512 2.75699 2.89722 
3.2641 4.09108 4.27105 3.72664 3.33584 3.06349 2.86513 3.72942 3.15823 
4.4112 4.37076 4.46158 4.48318 4.52854 4.15105 3.88102 3.5498 3.15151 
3.13606 3.01374 2.79314 2.60394 2.48556 2.54983 2.37965 2.47889 2.40998 
2.29255 2.41009 2.22841 2.38939 2.58063 2.52558 2.54242 2.44682 2.36731 
2.06946 2.01727 1.92007 1.72763 2.01521 2.19064 2.28224 2.5359 2.36615 
2.61065 2.90547 3.24985 3.65146 3.25778 3.33732 2.94981 2.8728 3.51748 
3.35839 3.48778 3.45506 3.08547 3.08471 2.70059 2.70059 3.01684 3.39283 
3.18105 2.28247 2.28247 2.02239 1.55408 1.68483 1.56926 1.58759 1.88003 
2.41845 2.96846 3.36824 3.33652 2.6768 2.85627 3.14816 3.06551 2.54428 
2.3515 2.3515 2.60246 2.77042 2.77042 2.69684 2.62796 2.05811 3.86735 
3.27178 
rRFP 1 298 double
3125.68 3374.28 4175.98 3854.84 2925.96 3573.15 3506.14 3652.94 3966.28 
3231.85 4499.96 4258.99 3828.23 3757.21 3929.54 3748.51 4509.78 4085.81 
4069.38 4164.98 2726.77 3695.12 3391.15 4005.63 3989.81 3963.78 4107.42 
3750.63 4198.75 4030.86 4053.38 4225.09 4006.56 4623.17 3855.91 3855.91 
3936.52 3911.98 3789.74 3765.78 3604.56 3609.31 3506.48 3506.48 3575.63 
3662.59 3662.59 3702.54 3810.31 3743.3 3864.68 3885.52 3885.52 4020.6 
4020.6 4106 4380.26 4306.69 4400.43 4427.15 4310.47 4534.62 4492.74 
4360.2 2740.93 2872.15 2920.22 2883.8 2883.8 2952.36 3148.88 3187.35 
3296.63 3360.85 3327.12 3389.41 3345.88 3347.28 3355.09 3334.22 3366.99 
3454.35 3454.35 3578.22 3740.72 3762.15 3816.17 3861.21 3861.21 4102.96 
4102.96 4214.21 4166.4 4163.12 4141.33 4098.21 4233.88 4310.07 4218.94 
4325.89 4255.42 4085.81 3952.46 3916.88 4086.75 4368.47 4683.1 4724.89 
4522.4 3977.72 3977.72 4086.8 4116.27 4076.7 3880.14 3863.48 3764.99 
3592.7 3592.7 3544.2 3546.58 3438.11 3987.77 3908.77 3780.12 3690.43 
3616.4 3790.43 3755.83 3880.96 3922.42 3816.46 3626.07 3400.25 4002.78 
3884.81 3823.42 3872.44 3954.16 3994.6 3772.05 3964.67 3954.65 3895.75 
3895.75 3834.52 3733.12 3942.21 3753.81 3941.12 3941.69 3979.35 3979.35 
3855.04 3663.02 3663.02 3489.9 3340.43 3340.43 3404.1 3391.33 3487.95 
3905.9 4201.78 4599.04 4752.9 4095.98 4489.32 4424.23 4482.81 4406.74 
4381.06 4395.58 4225.86 4196.1 3883.68 3860.42 3942.44 3823.64 3819.62 
3790.4 3812.75 3851.78 3802.93 3818.85 3784.01 3834.4 3864.28 3837.48 
3701.67 3535.16 3499.32 3370.28 3492.7 3492.7 3578.26 3884.62 3985.56 
3987.69 4137.72 4146.51 3904.54 3696.35 3677.01 3408.46 3561.35 3627.96 
3802.23 4195.05 4280.54 4021.94 3836.31 3706.94 3612.72 4023.26 3751.94 
4347.11 4327.9 4371.04 4381.3 4402.85 4223.54 4095.27 3937.94 3748.75 
3741.41 3683.31 3578.52 3488.65 3432.42 3462.95 3382.11 3429.25 3396.52 
3340.74 3396.57 3310.27 3386.74 3477.58 3451.43 3459.43 3414.02 3376.25 
3234.77 3209.98 3163.81 3072.4 3209 3292.33 3335.84 3456.33 3375.7 
3491.84 3631.88 3795.46 3986.23 3799.23 3837.01 3652.94 3616.36 3922.59 
3847.02 3908.48 3892.94 3717.38 3717.02 3534.56 3534.56 3684.78 3863.38 
3762.78 3335.95 3335.95 3212.41 2989.96 3052.07 2997.17 3005.88 3144.79 
3400.54 3661.8 3851.7 3836.63 3523.26 3608.51 3747.16 3707.9 3460.31 
3368.74 3368.74 3487.95 3567.73 3567.73 3532.78 3500.06 3229.38 4088.78 
3805.88 
rGFP 1 298 double
2803.3 2891.68 3342.88 3235.15 3062.68 3261.3 3040.93 3217.86 3196.73 
3009.78 3497.2 3231.56 3360.01 3077.16 3316.28 2994.4 3538.93 3570.27 
3475.75 3204.38 2743.14 3274.47 3070.04 3201.52 3231.57 3301.44 3404.43 
3163.9 3215.74 3254.3 3282.93 3270.36 3329.2 3409.72 3316.56 3316.56 
3314.38 3293.17 3282.59 3225.86 3204.37 3178.48 3128.25 3128.25 3107.4 
3142.22 3142.22 3199.68 3213.83 3229.57 3235.11 3258.75 3258.75 3235.49 
3235.49 3249.25 3270.65 3334.95 3341.69 3372.32 3429.48 3392.27 3396.7 
3341.93 2773.11 2779.27 2785.21 2748.46 2748.46 2718.04 2776.85 2743.94 
2806.81 2865.47 2894.46 2906.31 2889.15 2930.91 2871.67 2950.22 2972.27 
2971.11 2971.11 3062.04 3108.69 3215.77 3284.41 3326.06 3326.06 3445.36 
3445.36 3396.02 3508.56 3527.36 3500.12 3423.95 3253.06 3488.79 3484.54 
3417.73 3503.37 3570.27 3605.22 3572.15 3477.69 3526.01 3528.86 3525.57 
3514.91 3095.9 3095.9 3120.83 3102.43 3120.42 3015.57 3051.77 3031.17 
2967.6 2967.6 2906.37 2937.73 3048.81 3236.06 3116.51 3084.05 3008.53 
3083.56 3073.74 3133.09 3201.85 3225.86 3205.86 3112.96 3018.27 3210.74 
3222.77 3250 3264.05 3228.49 3130.47 3210.16 3106.72 3098.73 3107.36 
3107.36 3104.14 3097.73 3033.16 3137.64 3131.09 3074.09 3052.42 3052.42 
3068.53 3053.57 3053.57 3080.67 3034.85 3034.85 2974.36 3006.16 3019.42 
3096.85 3141.04 3256.78 3446.17 3259.44 3408.31 3422.63 3430.16 3402.23 
3474.99 3429.25 3360.9 3328.05 3331.35 3285.4 3237.11 3184.95 3193.98 
3252.74 3264.89 3220.74 3219.89 3151.98 3185.23 3120.99 3064.36 3059.94 
3081.89 3101.19 3088.75 3161.23 3183.54 3183.54 3219.65 3195.05 3161.04 
3187.33 3174.43 3150.74 3103.75 3063.21 3097.01 3133.07 3207.95 3176.99 
3438.25 3371.78 3387.81 3306.04 3279.22 3243.16 3253.09 3187.36 3160.84 
3444.01 3378.32 3368.14 3297.49 3205.22 3214.52 3324.46 3273.21 3137.43 
3194.44 3102.47 3097.81 3100.22 3108.79 3072.78 3076.22 2969.3 3001.67 
2940.84 2902.41 2994.64 2958.4 3050.49 3081.72 3109.98 3093.68 3101.41 
3045.68 3025.04 3039.53 3082.78 3079.48 3118.17 3144.72 3111.17 3011.44 
3041.81 3090.69 3124.74 3250.59 3287.43 3336.99 3217.86 2995.86 3075.15 
3115.67 3142.84 3118.27 3154.62 3093.41 3007.54 3007.54 3011.68 2997.94 
2978.84 3019.81 3019.81 2986.6 2848.22 2810.02 2814.23 2759.99 2833.19 
2908.27 3034.91 3123.64 3149.26 3200.25 3166.7 3156.33 3147.33 3247.6 
3223.28 3223.28 3260.8 3244.09 3244.09 3210.7 3247.69 3176.06 3307.07 
3206.83 
bkstRFP 1 298 double
873.916 1122.52 1924.22 1603.08 674.196 1321.39 1254.38 1401.18 1714.52 
980.086 2248.2 2007.23 1576.47 1505.45 1677.78 1496.75 2258.02 1834.05 
1817.62 1913.22 475.006 1443.36 1139.39 1753.87 1738.05 1712.02 1855.66 
1498.87 1946.99 1779.1 1801.62 1973.33 1754.8 2371.41 1604.15 1604.15 
1684.76 1660.22 1537.98 1514.02 1352.8 1357.55 1254.72 1254.72 1323.87 
1410.83 1410.83 1450.78 1558.55 1491.54 1612.92 1633.76 1633.76 1768.84 
1768.84 1854.24 2128.5 2054.93 2148.67 2175.39 2058.71 2282.86 2240.98 
2108.44 489.166 620.386 668.456 632.036 632.036 700.596 897.116 935.586 
1044.87 1109.09 1075.36 1137.65 1094.12 1095.52 1103.33 1082.46 1115.23 
1202.59 1202.59 1326.46 1488.96 1510.39 1564.41 1609.45 1609.45 1851.2 
1851.2 1962.45 1914.64 1911.36 1889.57 1846.45 1982.12 2058.31 1967.18 
2074.13 2003.66 1834.05 1700.7 1665.12 1834.99 2116.71 2431.34 2473.13 
2270.64 1725.96 1725.96 1835.04 1864.51 1824.94 1628.38 1611.72 1513.23 
1340.94 1340.94 1292.44 1294.82 1186.35 1736.01 1657.01 1528.36 1438.67 
1364.64 1538.67 1504.07 1629.2 1670.66 1564.7 1374.31 1148.49 1751.02 
1633.05 1571.66 1620.68 1702.4 1742.84 1520.29 1712.91 1702.89 1643.99 
1643.99 1582.76 1481.36 1690.45 1502.05 1689.36 1689.93 1727.59 1727.59 
1603.28 1411.26 1411.26 1238.14 1088.67 1088.67 1152.34 1139.57 1236.19 
1654.14 1950.02 2347.28 2501.14 1844.22 2237.56 2172.47 2231.05 2154.98 
2129.3 2143.82 1974.1 1944.34 1631.92 1608.66 1690.68 1571.88 1567.86 
1538.64 1560.99 1600.02 1551.17 1567.09 1532.25 1582.64 1612.52 1585.72 
1449.91 1283.4 1247.56 1118.52 1240.94 1240.94 1326.5 1632.86 1733.8 
1735.93 1885.96 1894.75 1652.78 1444.59 1425.25 1156.7 1309.59 1376.2 
1550.47 1943.29 2028.78 1770.18 1584.55 1455.18 1360.96 1771.5 1500.18 
2095.35 2076.14 2119.28 2129.54 2151.09 1971.78 1843.51 1686.18 1496.99 
1489.65 1431.55 1326.76 1236.89 1180.66 1211.19 1130.35 1177.49 1144.76 
1088.98 1144.81 1058.51 1134.98 1225.82 1199.67 1207.67 1162.26 1124.49 
983.006 958.216 912.046 820.636 957.236 1040.57 1084.08 1204.57 1123.94 
1240.08 1380.12 1543.7 1734.47 1547.47 1585.25 1401.18 1364.6 1670.83 
1595.26 1656.72 1641.18 1465.62 1465.26 1282.8 1282.8 1433.02 1611.62 
1511.02 1084.19 1084.19 960.646 738.196 800.306 745.406 754.116 893.026 
1148.78 1410.04 1599.94 1584.87 1271.5 1356.75 1495.4 1456.14 1208.55 
1116.98 1116.98 1236.19 1315.97 1315.97 1281.02 1248.3 977.616 1837.02 
1554.12 
bkstGFP 1 298 double
489.481 577.861 1029.06 921.331 748.861 947.481 727.111 904.041 882.911 
695.961 1183.38 917.741 1046.19 763.341 1002.46 680.581 1225.11 1256.45 
1161.93 890.561 429.321 960.651 756.221 887.701 917.751 987.621 1090.61 
850.081 901.921 940.481 969.111 956.541 1015.38 1095.9 1002.74 1002.74 
1000.56 979.351 968.771 912.041 890.551 864.661 814.431 814.431 793.581 
828.401 828.401 885.861 900.011 915.751 921.291 944.931 944.931 921.671 
921.671 935.431 956.831 1021.13 1027.87 1058.5 1115.66 1078.45 1082.88 
1028.11 459.291 465.451 471.391 434.641 434.641 404.221 463.031 430.121 
492.991 551.651 580.641 592.491 575.331 617.091 557.851 636.401 658.451 
657.291 657.291 748.221 794.871 901.951 970.591 1012.24 1012.24 1131.54 
1131.54 1082.2 1194.74 1213.54 1186.3 1110.13 939.241 1174.97 1170.72 
1103.91 1189.55 1256.45 1291.4 1258.33 1163.87 1212.19 1215.04 1211.75 
1201.09 782.081 782.081 807.011 788.611 806.601 701.751 737.951 717.351 
653.781 653.781 592.551 623.911 734.991 922.241 802.691 770.231 694.711 
769.741 759.921 819.271 888.031 912.041 892.041 799.141 704.451 896.921 
908.951 936.181 950.231 914.671 816.651 896.341 792.901 784.911 793.541 
793.541 790.321 783.911 719.341 823.821 817.271 760.271 738.601 738.601 
754.711 739.751 739.751 766.851 721.031 721.031 660.541 692.341 705.601 
783.031 827.221 942.961 1132.35 945.621 1094.49 1108.81 1116.34 1088.41 
1161.17 1115.43 1047.08 1014.23 1017.53 971.581 923.291 871.131 880.161 
938.921 951.071 906.921 906.071 838.161 871.411 807.171 750.541 746.121 
768.071 787.371 774.931 847.411 869.721 869.721 905.831 881.231 847.221 
873.511 860.611 836.921 789.931 749.391 783.191 819.251 894.131 863.171 
1124.43 1057.96 1073.99 992.221 965.401 929.341 939.271 873.541 847.021 
1130.19 1064.5 1054.32 983.671 891.401 900.701 1010.64 959.391 823.611 
880.621 788.651 783.991 786.401 794.971 758.961 762.401 655.481 687.851 
627.021 588.591 680.821 644.581 736.671 767.901 796.161 779.861 787.591 
731.861 711.221 725.711 768.961 765.661 804.351 830.901 797.351 697.621 
727.991 776.871 810.921 936.771 973.611 1023.17 904.041 682.041 761.331 
801.851 829.021 804.451 840.801 779.591 693.721 693.721 697.861 684.121 
665.021 705.991 705.991 672.781 534.401 496.201 500.411 446.171 519.371 
594.451 721.091 809.821 835.441 886.431 852.881 842.511 833.511 933.781 
909.461 909.461 946.981 930.271 930.271 896.881 933.871 862.241 993.251 
893.011 
tubeWidth 1 298 double
0.220643 0.129598 0.238156 0.257866 0.235427 0.116418 0.106129 0.243697 0.253832 
0.126596 0.214745 0.246319 0.175391 0.20732 0.318988 0.24724 0.273227 0.137035 
0.168337 0.201285 0.132821 0.327641 0.213899 0.219579 0.219501 0.200465 0.15437 
0.251875 0.268283 0.24025 0.253581 0.228353 0.204102 0.194226 0.331525 0.300048 
0.271246 0.246874 0.22444 0.224852 0.199507 0.185992 0.2139 0.205528 0.20016 
0.224235 0.229671 0.219588 0.236232 0.279922 0.243552 0.230599 0.231933 0.237417 
0.222701 0.234105 0.268317 0.246484 0.244663 0.264474 0.260721 0.23838 0.277002 
0.285848 0.2158 0.231302 0.170134 0.180735 0.191188 0.190636 0.218522 0.244513 
0.281629 0.314553 0.27164 0.258576 0.226406 0.236555 0.227227 0.24241 0.225199 
0.200305 0.194739 0.180588 0.199044 0.234057 0.220347 0.207143 0.201313 0.1994 
0.220438 0.239722 0.223855 0.215388 0.220235 0.0976207 0.201681 0.211976 0.19943 
0.280626 0.232729 0.251869 0.156973 0.167617 0.149867 0.14798 0.30429 0.301491 
0.299655 0.311876 0.308536 0.302622 0.297755 0.294313 0.257417 0.279211 0.248525 
0.224978 0.215281 0.213465 0.229972 0.113054 0.200197 0.211104 0.137667 0.156429 
0.179376 0.222921 0.262369 0.276485 0.325919 0.335686 0.30055 0.187648 0.218352 
0.244773 0.243559 0.252669 0.262973 0.267997 0.253519 0.238157 0.24388 0.271182 
0.247181 0.236529 0.230543 0.239491 0.270867 0.277418 0.266743 0.255464 0.260749 
0.248566 0.221113 0.21579 0.181157 0.166499 0.183218 0.168515 0.195116 0.162521 
0.200127 0.240767 0.191884 0.163719 0.3351 0.29677 0.263462 0.282339 0.275359 
0.286785 0.267898 0.248196 0.274137 0.2505 0.264556 0.23383 0.254346 0.262411 
0.223116 0.237032 0.28254 0.252912 0.260883 0.238158 0.210705 0.253464 0.26241 
0.254248 0.218901 0.21417 0.220093 0.218207 0.172097 0.169234 0.205798 0.200905 
0.235282 0.326772 0.300919 0.21886 0.185145 0.193917 0.210068 0.185178 0.278295 
0.197158 0.198377 0.270447 0.152013 0.0763454 0.143477 0.0875604 0.239402 0.212525 
0.22602 0.205804 0.201245 0.248072 0.254733 0.251072 0.273884 0.238224 0.251625 
0.266246 0.219562 0.23481 0.237138 0.239216 0.236307 0.221075 0.227062 0.236987 
0.236557 0.232835 0.246417 0.272224 0.256375 0.237623 0.230911 0.234456 0.201115 
0.168312 0.207957 0.250049 0.242196 0.227581 0.226752 0.251361 0.193954 0.227299 
0.231918 0.171694 0.207826 0.24203 0.318177 0.335682 0.345579 0.135501 0.174143 
0.233391 0.26017 0.266586 0.308366 0.306237 0.31434 0.282874 0.111685 0.197266 
0.216882 0.21187 0.186343 0.160917 0.124351 0.076043 0.0733034 0.153821 0.212627 
0.243506 0.255587 0.268657 0.258526 0.21632 0.168918 0.245611 0.262075 0.195719 
0.163907 0.188949 0.233264 0.272171 0.279029 0.263614 0.242347 0.248472 0.213805 
0.233502 
