# vtk DataFile Version 3.0
vtk output
ASCII
DATASET POLYDATA
POINTS 664 float
0.497631 1.02748 -0.0884434 0.934295 1.04872 -0.315476 2.51047 -0.558218 0.63814 
-0.789719 -0.199521 -0.364361 -0.620137 -0.757495 0.0247875 2.71683 -0.0772578 -0.574396 
2.74155 -0.810161 0.0514432 4.43969 -0.119194 -0.453785 4.5867 -0.437984 -0.180123 
4.82017 -0.593486 -0.0850654 4.23037 -0.747161 -0.224414 4.44852 -0.94767 -0.101704 
3.81365 -0.734825 -0.954862 4.43976 -1.24542 -0.153594 5.12603 0.0973935 -0.979008 
5.81637 -0.903481 -0.365809 -0.275453 0.111895 -1.21347 -0.515355 -1.09757 -0.470661 
4.05601 -0.962128 -0.561513 1.84606 -1.83661 -0.255678 2.58826 -1.45124 -0.493481 
5.56597 -0.330038 -1.5622 6.26027 -1.42525 -0.750299 1.34781 -2.14906 -0.597586 
5.389 -0.386603 -1.62105 1.46697 -2.25193 -0.704123 6.46413 -1.53878 -1.1503 
3.84761 -1.06213 -1.75137 1.97999 -1.43583 -1.75351 4.33896 -2.09973 -1.27174 
5.88047 -0.432115 -2.29797 6.41555 -0.711211 -2.12755 6.61424 -1.83031 -1.51918 
4.08435 -1.70913 -1.98042 6.56176 -1.83537 -1.90711 6.12036 -2.5627 -1.69458 
4.82825 -2.69574 -2.08008 6.32029 -1.95025 -2.77487 6.41061 -2.02146 -2.73132 
5.30951 -1.6579 -3.18729 6.18371 -2.1187 -2.90592 5.45076 -2.18807 -3.09677 
5.39794 -2.17497 -3.10472 5.34512 -2.16188 -3.11267 5.29229 -2.14878 -3.12062 
5.23944 -2.13577 -3.12852 5.18608 -2.12425 -3.1355 5.12995 -2.11703 -3.13114 
5.06959 -2.11455 -3.10649 5.01297 -2.08955 -3.0696 4.95636 -2.06066 -3.02638 
4.896 -2.04664 -2.98274 4.83936 -2.02938 -2.95847 4.78269 -2.01221 -2.93415 
4.72182 -1.99969 -2.88959 4.6624 -1.97906 -2.8413 4.60103 -1.96416 -2.78951 
4.54157 -1.9475 -2.74749 4.48017 -1.93269 -2.69564 4.42019 -1.90986 -2.64002 
4.35551 -1.89317 -2.56323 4.28804 -1.87312 -2.46244 4.22012 -1.83519 -2.32915 
4.15222 -1.77797 -2.16425 6.252 -2.03254 -2.83724 5.26826 -1.56084 -3.1338 
5.22273 -1.4879 -3.09159 5.17812 -1.42377 -3.07004 5.12926 -1.37212 -3.04082 
5.0804 -1.32047 -3.0116 5.03576 -1.25642 -2.99 4.98965 -1.20057 -2.97206 
4.94502 -1.13264 -2.94415 4.89619 -1.06936 -2.89598 4.84736 -0.998429 -2.83515 
4.8022 -0.920549 -2.78726 4.75226 -0.860528 -2.73711 4.69675 -0.820728 -2.68322 
4.63649 -0.794909 -2.62075 4.57987 -0.758366 -2.56486 4.52271 -0.723401 -2.50799 
4.45852 -0.709097 -2.43845 4.39104 -0.704459 -2.36295 4.32313 -0.701427 -2.28647 
4.25692 -0.702794 -2.21599 4.2004 -0.714319 -2.15667 4.16015 -0.741513 -2.11384 
4.11503 -0.771372 -2.07805 4.07673 -0.799051 -2.03492 4.03351 -0.813875 -1.9736 
4.00484 -0.832304 -1.91009 3.97635 -0.862412 -1.86549 3.9366 -0.91047 -1.8562 
3.91825 -0.968857 -1.8493 3.90685 -1.02304 -1.81602 6.36222 -1.99535 -2.74726 
6.28222 -1.89382 -2.80945 6.24137 -1.84556 -2.839 6.19577 -1.81507 -2.86634 
6.15158 -1.78431 -2.90252 6.10539 -1.76711 -2.94776 6.06057 -1.74587 -2.9955 
6.01047 -1.74785 -3.04635 5.95432 -1.77175 -3.09243 5.89195 -1.83138 -3.14263 
5.83759 -1.89979 -3.17877 5.80696 -1.96805 -3.19766 5.77829 -2.02138 -3.19095 
5.73881 -2.06427 -3.17325 5.72545 -2.10977 -3.1453 5.74758 -2.16406 -3.11201 
5.78118 -2.21732 -3.07068 5.80705 -2.26091 -3.0179 5.81666 -2.28883 -2.94863 
5.82937 -2.31364 -2.87257 5.82566 -2.33826 -2.80531 5.81223 -2.37211 -2.75844 
5.79702 -2.41326 -2.72446 5.78159 -2.45824 -2.69682 5.76442 -2.50279 -2.66945 
5.73754 -2.54493 -2.64353 5.69437 -2.57915 -2.61376 5.65618 -2.60686 -2.57062 
5.61296 -2.62168 -2.5093 5.5842 -2.63621 -2.43948 5.55367 -2.65418 -2.37626 
5.49898 -2.67392 -2.32928 5.4347 -2.69127 -2.28376 5.3782 -2.7027 -2.2245 
5.33671 -2.71226 -2.15771 5.28396 -2.71234 -2.10543 5.22911 -2.69959 -2.08709 
5.1753 -2.68201 -2.0804 5.11912 -2.6711 -2.06962 5.05825 -2.67012 -2.04405 
4.9988 -2.67265 -2.0337 4.93788 -2.68717 -2.03338 4.88167 -2.69554 -2.05422 
6.15982 -2.52368 -1.7186 6.16235 -2.4755 -1.74817 6.16817 -2.43202 -1.78357 
6.18171 -2.3982 -1.83042 6.19686 -2.37642 -1.89597 6.21211 -2.35854 -1.96782 
6.22738 -2.33291 -2.02703 6.2428 -2.28792 -2.05466 6.26014 -2.22403 -2.05046 
6.28885 -2.1552 -2.03191 6.34178 -2.09625 -2.01604 6.39655 -2.04552 -2.01251 
6.43865 -1.98776 -2.00457 6.49544 -1.91814 -1.96918 6.57709 -1.75159 -1.87165 
6.59055 -1.65968 -1.82379 6.59203 -1.55111 -1.75137 6.56371 -1.43571 -1.65702 
6.51364 -1.34005 -1.53312 6.45414 -1.27004 -1.40216 6.39769 -1.19457 -1.28325 
6.34118 -1.12694 -1.17692 6.28098 -1.07787 -1.07656 6.22553 -1.02636 -1.00379 
6.17626 -0.968563 -0.960953 6.13675 -0.903054 -0.957636 6.11012 -0.853335 -0.996805 
6.09849 -0.828984 -1.07257 6.07178 -0.817922 -1.17492 6.03268 -0.808875 -1.26733 
5.9871 -0.801742 -1.33247 5.94238 -0.776357 -1.37405 5.89344 -0.755712 -1.39534 
5.84448 -0.731273 -1.41026 5.79925 -0.695852 -1.43192 5.75032 -0.671322 -1.4469 
5.70193 -0.645213 -1.46284 5.66061 -0.596796 -1.48902 5.62324 -0.532157 -1.51473 
5.59038 -0.446582 -1.53591 6.59789 -1.84358 -1.78913 6.62362 -1.84493 -1.65797 
4.04686 -1.64715 -2.0097 4.00939 -1.57742 -2.02637 3.97194 -1.48956 -2.0136 
3.93412 -1.37778 -1.96337 3.89371 -1.23342 -1.86939 4.11978 -1.76672 -1.94512 
4.14388 -1.8215 -1.91154 4.14208 -1.86598 -1.87554 4.13071 -1.90034 -1.82836 
4.12896 -1.92545 -1.7608 4.15313 -1.9531 -1.68302 4.18874 -1.98747 -1.60984 
4.22617 -2.03004 -1.549 4.26373 -2.06877 -1.48183 4.30132 -2.092 -1.38941 
1.88706 -1.49433 -1.79276 1.81683 -1.52716 -1.82464 1.75433 -1.55242 -1.8409 
1.6975 -1.56497 -1.86497 1.64075 -1.58646 -1.90383 1.58029 -1.62272 -1.94232 
1.52411 -1.64255 -1.9822 1.47125 -1.64107 -2.00909 1.42171 -1.62218 -2.0293 
1.37644 -1.58305 -2.04454 1.32697 -1.54858 -2.03955 1.27475 -1.51065 -2.0106 
1.22203 -1.47033 -1.9744 1.16927 -1.43399 -1.94448 1.11651 -1.40918 -1.93355 
1.06424 -1.39062 -1.93616 1.01474 -1.36777 -1.9501 0.969487 -1.33243 -1.97171 
0.920525 -1.30799 -1.98663 0.871563 -1.28355 -2.00155 0.826313 -1.24821 -2.02317 
0.77678 -1.22545 -2.03706 0.723957 -1.21235 -2.04501 0.667814 -1.20901 -2.04697 
0.60691 -1.21965 -2.04033 0.547456 -1.22218 -2.02998 0.486554 -1.22129 -2.00435 
0.429875 -1.19646 -1.96736 0.372728 -1.16915 -1.92317 0.309047 -1.16489 -1.87353 
0.244864 -1.16979 -1.83565 0.184902 -1.16228 -1.80539 0.124004 -1.14985 -1.76078 
0.0674409 -1.12116 -1.71744 0.0121063 -1.09829 -1.67924 -0.0406874 -1.11007 -1.64585 
-0.082264 -1.14288 -1.61695 -0.138804 -1.17369 -1.58925 -0.203104 -1.19492 -1.55003 
-0.257768 -1.2069 -1.49044 -0.288275 -1.21712 -1.41458 -0.316918 -1.22393 -1.33213 
-0.358248 -1.22758 -1.25159 -0.384922 -1.23488 -1.16885 -0.402096 -1.24065 -1.07835 
-0.419239 -1.23479 -0.968933 -0.445817 -1.20721 -0.829365 -0.486999 -1.15661 -0.660444 
6.56097 -1.77131 -1.39017 6.507 -1.67215 -1.26842 6.36288 -0.643864 -2.04713 
6.31024 -0.564888 -1.94775 6.25763 -0.474288 -1.82944 6.20502 -0.383688 -1.71113 
6.1524 -0.296964 -1.59914 6.09976 -0.217993 -1.49977 6.04708 -0.150641 -1.41934 
5.99432 -0.102761 -1.37042 5.94097 -0.0797036 -1.3584 5.88427 -0.0818239 -1.3657 
5.82038 -0.118589 -1.38301 5.75363 -0.168596 -1.41651 5.67656 -0.231997 -1.48524 
5.81623 -0.437181 -2.25998 5.75582 -0.423627 -2.21605 5.69304 -0.415266 -2.15155 
5.63893 -0.408684 -2.0651 5.60993 -0.395041 -1.94653 5.5898 -0.364927 -1.77724 
2.03088 -1.4739 -1.68387 2.08301 -1.48005 -1.62803 2.13527 -1.4687 -1.57135 
2.18482 -1.46335 -1.51097 2.22963 -1.47306 -1.44425 2.27585 -1.48251 -1.38638 
2.32013 -1.4938 -1.31868 2.36632 -1.49946 -1.25444 2.41046 -1.51081 -1.1867 
2.45427 -1.51759 -1.12178 2.48384 -1.52044 -1.02447 2.49718 -1.50551 -0.885897 
2.53109 -1.47755 -0.703213 2.00178 -1.35255 -1.767 1.99793 -1.28296 -1.78364 
2.00099 -1.22853 -1.80546 2.00306 -1.17888 -1.83304 1.99228 -1.1274 -1.86462 
1.99615 -1.07956 -1.89399 2.00962 -1.03409 -1.92193 2.02494 -0.989085 -1.94958 
2.04213 -0.940662 -1.97064 2.06904 -0.886896 -1.97761 2.11229 -0.82555 -1.9632 
2.1507 -0.755246 -1.93688 2.1959 -0.682846 -1.90317 2.23575 -0.60686 -1.86297 
2.28908 -0.53939 -1.80886 2.34685 -0.485926 -1.73748 2.40447 -0.442309 -1.66874 
2.45321 -0.428965 -1.5901 2.50332 -0.415442 -1.52025 2.55516 -0.396835 -1.45355 
2.60417 -0.382692 -1.37539 2.64563 -0.373995 -1.25695 2.68234 -0.338182 -1.07909 
2.70939 -0.242343 -0.840266 3.81456 -0.898424 -1.36 1.40963 -2.19366 -0.648531 
5.46894 -0.344862 -1.59292 1.28881 -2.1446 -0.526335 1.22479 -2.13546 -0.43189 
1.15799 -2.11242 -0.324232 1.09338 -2.08222 -0.225321 1.03344 -2.05544 -0.163444 
0.972551 -2.05066 -0.131507 0.916387 -2.04353 -0.127095 0.862985 -2.03598 -0.140335 
0.809562 -2.03617 -0.166197 0.753366 -2.05221 -0.199722 0.692957 -2.07677 -0.21931 
0.636803 -2.0773 -0.227574 0.583453 -2.06191 -0.228248 0.530589 -2.05277 -0.24245 
0.477754 -2.05508 -0.275708 0.425427 -2.05591 -0.309881 0.375925 -2.03305 -0.323825 
0.330689 -1.9823 -0.320138 0.281229 -1.94394 -0.30883 0.228986 -1.92531 -0.311499 
0.17671 -1.91829 -0.333098 0.127228 -1.89922 -0.353412 0.0824872 -1.86238 -0.375948 
0.0363576 -1.82193 -0.383309 -0.00783549 -1.77965 -0.400509 -0.0539229 -1.73523 -0.40161 
-0.098064 -1.6851 -0.406235 -0.143604 -1.63523 -0.402001 -0.184434 -1.57923 -0.418933 
-0.222462 -1.51883 -0.447251 -0.260025 -1.4609 -0.482743 -0.298062 -1.40438 -0.517375 
-0.338904 -1.35224 -0.540615 -0.384455 -1.30625 -0.542695 -0.428532 -1.24441 -0.528438 
-0.474061 -1.17913 -0.498896 6.19226 -1.40679 -0.648526 6.12421 -1.40382 -0.572013 
6.05611 -1.42023 -0.52706 5.98798 -1.44826 -0.501043 5.91983 -1.48017 -0.481341 
5.85172 -1.51199 -0.461695 5.78412 -1.53844 -0.436649 5.71936 -1.54888 -0.404059 
5.65936 -1.53381 -0.361069 5.59793 -1.51908 -0.309156 5.53793 -1.504 -0.266165 
5.47316 -1.51831 -0.239882 5.40558 -1.55243 -0.227521 5.338 -1.5942 -0.227837 
5.27373 -1.61856 -0.22147 5.21703 -1.61301 -0.216087 5.16363 -1.59392 -0.210335 
5.11023 -1.58637 -0.223575 5.05403 -1.6024 -0.257091 4.99359 -1.63859 -0.295625 
4.93738 -1.6585 -0.335456 4.88399 -1.6586 -0.361374 4.83116 -1.64938 -0.37564 
4.77887 -1.6347 -0.384561 4.72938 -1.60798 -0.392189 4.68413 -1.56109 -0.394818 
4.63471 -1.51112 -0.364572 4.58256 -1.4576 -0.310414 4.53046 -1.39624 -0.243698 
[...]
POINT_DATA 664
SCALARS DY_raw double
LOOKUP_TABLE default
3896.65 4619.81 3922.41 3953.5 3183 3278.05 3806.14 4083.68 4438.25 
4514.42 3676.41 3646.38 3136.94 3745.12 4551.25 3812.23 4778.77 2814.5 
3446.15 4595.25 2683.81 3209.03 3215.27 3824.47 3478.56 2874.35 3601.65 
3457.52 3047.82 3050.6 2779.76 2534.62 3277.65 3710.88 3036.27 3117.71 
4280 2894.3 2475.31 3098.79 2472.41 3474.14 3474.14 3372.59 3363.07 
3301.26 3301.26 3254.2 3176.31 3603.76 3421.04 3952.02 3387.59 3387.59 
3661.57 3524.9 3799.1 3466.16 3717.11 3425.77 3239.2 3153.15 2859.33 
3038.21 2684.94 3164.58 3555.7 3601.23 4054.97 3799.08 3602.2 3887.68 
3795.66 3531.87 3722.3 3423.02 3571.83 3642.42 3931.95 3616.73 3864.99 
4059.04 4000.07 4252.18 4643.01 4657.12 4117.55 4117.55 4230.86 4035.9 
4866.24 4372.07 3678.53 3426.11 3357.87 2559.21 3045.83 3035.35 3252.25 
3434.29 3285.73 3285.73 2998.97 2909.96 2824.9 2643.93 2539.04 2818.34 
3134.89 3204.81 3050.81 3079.22 2889.39 2956.55 3058.32 3392.82 3373.5 
3138.46 3743.28 3773.13 3641.81 3641.81 3730.53 3741.4 4534.69 3966.87 
3696.53 4034.18 4037.86 3916.23 3511.56 3881.71 3444.23 3444.23 3834.41 
3809.21 4208.87 3864.97 2810.69 2847.51 2977.5 2977.5 3174.12 2974.09 
2728.19 2574.04 2783.97 3001.92 2992.52 3017.93 2859.38 2671.88 3092.66 
3259.4 3430.22 4018.08 4042.19 3708.64 3154.82 3296.72 3005.98 3056.54 
3547.06 3747 4073.21 3838.75 3756.22 3510.76 3304.74 3636.25 3765.35 
3793 3746.01 3744.42 3744.42 3534.38 2990.83 2998.47 3382.71 3363.18 
3432.67 3257.66 3218.28 3258.79 3090.5 3682.07 3740.42 3724.58 3696.64 
3882.89 3657.39 3547.54 3189.71 2944.03 3152.98 3061.83 3173.6 3171.1 
3236.53 3226.72 2992.63 2837.93 2895.75 2895.75 2918.31 3076.91 3395.41 
3991.05 4459.49 4674.96 4788.3 4672.42 4672.42 4251.87 4251.87 3878.8 
3394.44 3394.44 3323.84 3311.6 3221.05 3195.08 3332.96 3728.47 3691.12 
3936.96 4272.27 4272.27 4408.63 4922.73 4833.71 4354.58 3905.6 3905.6 
3675.92 2847.64 3312.32 3595.68 3259.57 3564.87 3273.34 3111.54 3465.05 
3399.47 3767.22 2659.63 3075.7 3685.98 3995.04 3914.01 3665.2 4012.06 
3961.06 3993 4056.75 3625.77 3615.71 3450.12 2648.34 2509.19 2671.15 
3083.91 3284.84 3269.43 3144.09 2967.87 3039.78 3023.93 3266.33 3261.7 
3531.86 3484.69 3443.93 3201.39 2980.51 3070 2817.9 3055.54 3375.85 
3640.08 3544.62 3368.43 2934.29 2934.29 2782.13 2583.06 2789.6 2777.33 
2597.61 2930.66 2713.36 2691.86 2746.74 2919.78 2890.62 3171.96 2946.92 
3434.72 3413.82 3888.65 3725.7 3992.1 3685.73 3449.22 4416.25 4832.34 
4561.14 4052.53 4129.75 4272.9 4714.29 4714.29 4440.72 4247.8 3954.38 
4336.71 4402.08 4402.08 4241.65 3930.36 3833.78 4278.24 4278.24 4484.58 
4199.88 4199.88 4002.38 3713.95 3487.45 3777.06 3643.51 3777.66 3767.78 
3759.93 3670.46 3700.12 3522.06 3067.04 3181.34 3025.09 3006.56 2886.82 
3051.78 2801.94 2939.45 3584.38 3669.81 3768.52 4073.65 4816.26 4285.64 
4212.03 4444.05 4234.41 3744.45 3979.41 3707.16 3707.16 3748.06 3711.17 
3572.14 3312.09 3272.78 3390.48 3472.1 3683.31 3453.28 3157.83 3480.36 
3368.87 2597.95 2564.44 2842.93 3262.56 3675.86 4309.71 3995.84 4597.88 
4612.23 4270.59 4939.74 4592.32 3013.42 3213.23 3562.92 3608.4 3794.48 
3836.59 3712.63 3226.07 3568.95 3695.25 3534.23 4053.13 3816.11 3720.8 
3699.68 3868.86 3357.42 3135.78 3540.33 3317.29 3906.01 3568 2959.63 
3086.95 3756.72 3532.82 3743.04 3676.6 4273.91 4250.43 3945.65 3945.65 
4003.83 3927.28 3852.36 3987.61 4080.44 3785.64 3785.64 4129.43 3987.71 
3807.09 4033.29 3798.94 3837.3 4164.68 4117.63 4292.62 4703.18 5140.52 
4723.26 4609.67 4702.23 4337.91 4177.36 4177.36 4388.91 4692.05 4396.62 
4337.71 4477.08 4455.11 4496.1 4068.88 3436.46 3729.29 3428.52 4145.05 
4438.85 4339.62 4153 3857.34 3679.13 3676.7 3724.24 3084.29 2750.35 
2822.19 2816.5 2884.77 2884.77 3000.83 2977.21 3074.28 3187.18 3322.83 
3411.42 3472.77 3537.08 3697.14 3536.38 3536.38 3374.06 3676.41 3956.39 
3931.41 3712.24 3744.34 3749.63 3757.15 4881.32 5498.05 5011.42 4796.73 
4445.05 4510.54 4510.54 4845.63 4438.25 4371.61 4004.85 3858.3 3846.92 
4047.26 4210.5 3948.81 3188.32 3789.14 3960.76 3953.23 3745.48 3966.35 
3735.56 3904.34 4164.7 4285.6 4732.92 5194.57 5403.92 5594.34 5173.09 
4592.38 4375.2 4168.29 3392.05 3696.18 3693.7 3937.17 4215.97 4275.03 
4782.1 4929.94 4389.33 4725 4725 4611.66 4703.49 4703.49 5184.13 
5184.13 5157.87 5220.39 5220.39 5014.95 4554.73 4554.73 4222.86 3954.95 
3954.95 3845.92 4034.8 4034.8 4060.45 3867.19 4489.46 4899.44 5040.01 
3508.74 3760.49 3888.02 4053.71 4301.04 3982.55 3799.01 3799.01 3754.64 
3997.53 3323.74 4232.28 3911.99 3787.07 4290.2 3371.64 3423.3 3789.95 
3915.48 4057.98 4883.65 4357.25 4203.48 4912.44 4913.81 4705.71 4514.21 
5500.1 4866.15 4889.98 5284.46 4419.97 3716.8 3716.8 3273.44 3438.91 
3818.01 4520.09 4839.11 5026.48 5654.52 5654.52 4994.44 4706.26 4706.26 
4024.16 4375.51 4358.08 4117.36 3846.82 4193.88 3945.99 3933.13 4258.78 
3727.29 3884.62 4168.91 4168.91 4014.86 3839.2 3839.2 3481.65 3303.42 
3364.84 4049.37 4049.37 4001.21 3990.03 3990.03 3864.25 3957.73 3842.51 
3618.32 3278.81 3424.83 3424.83 3741.4 4148.19 4148.19 4794.78 4711.46 
4711.46 4171.86 4288.49 4288.49 4312.72 4445.3 3974.8 4308.14 4003.16 
3930.61 4111.8 4555.92 4666.94 4373.8 4602.74 4267.36 4476.48 4385.62 
4219.41 4869.27 4526.04 4453.52 4293.68 4293.68 3918.73 3665.21 3377.47 
3766.46 3770.55 5734.48 5464.53 4900.72 4417.49 4206.5 
FIELD FieldData 7
DY_minmax 1 664 double
0.436606 0.658292 0.444502 0.454032 0.217833 0.246973 0.408861 0.493942 0.602637 
0.625987 0.369089 0.359883 0.203714 0.390155 0.637275 0.410727 0.707022 0.104869 
0.298504 0.650764 0.0648062 0.225814 0.227725 0.414479 0.308437 0.123216 0.346172 
0.30199 0.176393 0.177247 0.09422 0.019069 0.246849 0.379657 0.172854 0.197818 
0.554122 0.129332 0.000889735 0.192019 0 0.307083 0.307083 0.275952 0.273034 
0.254085 0.254085 0.23966 0.215784 0.346818 0.290806 0.453581 0.280552 0.280552 
0.36454 0.322645 0.406701 0.304636 0.381566 0.292254 0.235062 0.208682 0.11861 
0.173448 0.0651504 0.212187 0.332085 0.346042 0.485139 0.406696 0.346342 0.433855 
0.405648 0.32478 0.383157 0.291413 0.337031 0.35867 0.447426 0.350794 0.4269 
0.486388 0.46831 0.545594 0.665406 0.66973 0.504324 0.504324 0.539059 0.479294 
0.733837 0.582348 0.369739 0.292359 0.27144 0.0266098 0.175782 0.172572 0.239063 
0.294867 0.249326 0.249326 0.161419 0.134131 0.108056 0.0525791 0.0204242 0.106046 
0.203086 0.224519 0.177309 0.186019 0.127827 0.148414 0.179614 0.282156 0.276232 
0.204178 0.38959 0.398741 0.358482 0.358482 0.38568 0.389014 0.6322 0.458132 
0.375259 0.478766 0.479894 0.442609 0.318555 0.432027 0.297915 0.297915 0.417527 
0.409801 0.532319 0.426895 0.103701 0.114988 0.154837 0.154837 0.215112 0.153791 
0.0784087 0.031154 0.0955079 0.162321 0.159442 0.167231 0.118628 0.0611481 0.190141 
0.241255 0.293621 0.473831 0.48122 0.378969 0.209194 0.252694 0.163566 0.179065 
0.329438 0.39073 0.490732 0.418856 0.393556 0.318309 0.255154 0.35678 0.396357 
0.404833 0.390426 0.389938 0.389938 0.325549 0.158924 0.161265 0.279054 0.273067 
0.294372 0.24072 0.228648 0.241067 0.189479 0.370826 0.388712 0.383858 0.375293 
0.432389 0.363258 0.329586 0.219891 0.144577 0.208632 0.180688 0.214951 0.214186 
0.234245 0.231237 0.159476 0.11205 0.129776 0.129776 0.136693 0.185311 0.282947 
0.465545 0.609147 0.6752 0.709945 0.674422 0.674422 0.5455 0.5455 0.431134 
0.282652 0.282652 0.261007 0.257257 0.229498 0.221538 0.263805 0.385051 0.373599 
0.448963 0.551752 0.551752 0.593555 0.751153 0.723864 0.576987 0.439348 0.439348 
0.36894 0.115028 0.257478 0.344343 0.241308 0.334896 0.245529 0.195928 0.304297 
0.284194 0.396927 0.0573918 0.184941 0.372024 0.466767 0.441927 0.365655 0.471986 
0.456352 0.466141 0.485686 0.353568 0.350483 0.299721 0.0539317 0.0112758 0.0609252 
0.187458 0.249053 0.244329 0.205907 0.151886 0.173928 0.16907 0.243379 0.241959 
0.324778 0.310319 0.297823 0.223471 0.15576 0.183192 0.105911 0.17876 0.276954 
0.357953 0.328688 0.274679 0.141589 0.141589 0.0949455 0.0339194 0.0972361 0.093474 
0.0383811 0.140478 0.0738641 0.0672739 0.0840969 0.137143 0.128204 0.214448 0.145461 
0.294998 0.288591 0.434153 0.384201 0.465865 0.371947 0.299446 0.595892 0.723446 
0.640309 0.484391 0.508062 0.551947 0.687257 0.687257 0.603393 0.544252 0.454303 
0.571509 0.591548 0.591548 0.542366 0.44694 0.417332 0.553583 0.553583 0.616838 
0.529561 0.529561 0.469018 0.380597 0.311163 0.399946 0.359004 0.40013 0.397099 
0.394695 0.367267 0.37636 0.321773 0.182285 0.217323 0.169424 0.163746 0.127038 
0.177608 0.101017 0.143172 0.340877 0.367068 0.397327 0.490865 0.718517 0.555851 
0.533287 0.604414 0.540149 0.389948 0.461976 0.378518 0.378518 0.391055 0.379746 
0.337127 0.257406 0.245357 0.281436 0.306459 0.371207 0.300687 0.210118 0.30899 
0.274813 0.0384839 0.0282101 0.113584 0.242224 0.368923 0.563231 0.467014 0.65157 
0.655971 0.55124 0.756369 0.649865 0.165848 0.227101 0.334301 0.348242 0.405285 
0.418193 0.380195 0.231037 0.336149 0.374864 0.325506 0.484575 0.411916 0.382698 
0.376225 0.428087 0.271302 0.203358 0.327375 0.259 0.439476 0.335856 0.149359 
0.188389 0.39371 0.325073 0.389516 0.369149 0.552256 0.54506 0.451627 0.451627 
0.469461 0.445996 0.423028 0.46449 0.492947 0.402576 0.402576 0.507964 0.464521 
0.409149 0.478494 0.406651 0.418413 0.518772 0.504347 0.557993 0.683852 0.817919 
0.690007 0.655184 0.68356 0.571875 0.522659 0.522659 0.587511 0.680439 0.589874 
0.571815 0.61454 0.607803 0.620369 0.489402 0.295533 0.385302 0.293099 0.512753 
0.602819 0.572399 0.515191 0.424556 0.369925 0.369178 0.383754 0.187573 0.085204 
0.107225 0.105482 0.126409 0.126409 0.161989 0.154748 0.184504 0.219116 0.260699 
0.287856 0.306665 0.326377 0.375444 0.326164 0.326164 0.276404 0.369089 0.454921 
0.447261 0.380074 0.389916 0.391537 0.393842 0.73846 0.92752 0.778342 0.712527 
0.604721 0.624797 0.624797 0.727518 0.602637 0.582208 0.469776 0.424849 0.421361 
0.482776 0.532819 0.452596 0.219466 0.403648 0.456258 0.453952 0.390265 0.457973 
0.387223 0.438962 0.518778 0.55584 0.692969 0.834488 0.898666 0.95704 0.827904 
0.649884 0.583306 0.519879 0.281917 0.375151 0.37439 0.449026 0.534496 0.552601 
0.708042 0.753365 0.587639 0.690541 0.690541 0.655793 0.683945 0.683945 0.831286 
0.831286 0.823238 0.842402 0.842402 0.779425 0.638344 0.638344 0.536608 0.454479 
0.454479 0.421053 0.478955 0.478955 0.486819 0.427573 0.618333 0.744014 0.787107 
0.31769 0.394864 0.433959 0.484753 0.560572 0.462937 0.406675 0.406675 0.393073 
0.46753 0.260978 0.539496 0.441307 0.403015 0.55725 0.275662 0.291499 0.403897 
0.442377 0.486061 0.739174 0.577806 0.530665 0.748 0.748419 0.684625 0.62592 
0.928148 0.733809 0.741114 0.862045 0.597031 0.381473 0.381473 0.245557 0.296284 
0.412498 0.627722 0.725521 0.782958 0.975487 0.975487 0.773138 0.684796 0.684796 
0.475695 0.583403 0.578058 0.504264 0.42133 0.527722 0.45173 0.447789 0.547617 
0.384689 0.432917 0.520069 0.520069 0.472843 0.418994 0.418994 0.309386 0.25475 
0.273576 0.483423 0.483423 0.46866 0.465233 0.465233 0.426674 0.455329 0.420008 
0.351282 0.247204 0.291969 0.291969 0.389013 0.513716 0.513716 0.711931 0.686388 
0.686388 0.520974 0.556727 0.556727 0.564155 0.604797 0.460563 0.56275 0.469256 
0.447017 0.50256 0.638709 0.672741 0.582877 0.653062 0.550248 0.614356 0.586502 
0.535548 0.734766 0.629549 0.607316 0.558318 0.558318 0.443373 0.365656 0.277448 
0.396696 0.397949 1 0.917246 0.744407 0.59627 0.53159 
WidthEq 1 664 double
1.41019 1.30343 1.79487 1.72196 3.27635 2.32309 2.34374 1.71272 1.44707 
1.5574 2.19011 2.1356 3.0737 2.29534 1.72845 1.68896 1.0008 3.79642 
2.33919 1.2168 3.23559 2.64763 1.54287 2.61286 1.94249 3.08463 1.96889 
2.49627 2.58681 2.24577 1.30664 2.33889 2.81772 2.26222 2.7711 1.85071 
1.13287 2.24003 2.02169 1.58485 2.10354 1.90495 1.90495 2.0382 2.07682 
2.09862 2.09862 2.10304 2.12746 1.96104 2.07809 1.84746 2.07118 2.07118 
2.0059 2.11858 2.03465 2.16332 2.06497 2.15566 2.18227 2.20083 2.45942 
2.7038 2.28592 1.86785 2.06991 2.14333 1.8442 2.09864 2.19602 2.034 
2.16524 2.29771 2.22054 2.31495 2.25865 2.21134 1.99556 2.18145 2.07031 
1.87606 1.8655 1.7016 1.64781 1.64946 1.80275 1.80275 1.82474 1.84944 
1.67485 1.92017 2.1771 2.37509 2.53128 1.9622 2.26103 2.08341 1.82392 
1.83258 1.75753 1.75753 1.93723 2.07227 2.30038 2.36233 2.23478 2.16456 
1.94657 1.87509 1.87386 1.89204 1.9274 1.9303 1.96176 1.85017 1.8336 
1.69941 1.69761 1.67504 1.66914 1.66914 1.67427 1.69637 1.56383 1.68842 
1.76248 1.70755 1.70612 1.79835 2.00263 1.99856 2.18525 2.18525 2.04913 
1.77179 1.45214 1.47278 1.91099 1.96773 1.87919 1.87919 1.75666 1.72451 
1.72153 1.90216 2.01048 2.01857 2.24278 2.23953 2.48328 2.76748 2.77819 
2.68998 2.53931 1.96701 1.61562 1.55757 1.74514 1.77624 1.87527 1.93703 
1.89012 1.83042 1.6861 1.72472 1.78318 1.86706 1.91707 1.77014 1.71914 
1.67933 1.60876 1.65302 1.65302 1.83388 2.4045 2.55618 2.57995 2.58158 
2.64311 2.67512 2.51188 2.4267 2.71128 2.12047 2.04232 1.78452 1.67806 
1.63288 1.75514 1.77479 2.00968 2.52932 2.48676 2.54009 2.44228 2.44408 
2.43548 2.49821 2.51278 2.51641 2.59293 2.59293 2.57211 2.45978 2.36756 
2.13002 1.91565 1.85829 1.84538 1.90749 1.90749 2.10291 2.10291 2.28623 
2.56953 2.56953 2.61307 2.54171 2.64023 2.68131 2.64453 2.49298 2.38971 
2.37628 2.22393 2.22393 2.0971 1.9304 1.89973 2.00587 2.11118 2.11118 
2.22358 2.50943 2.44524 2.43078 2.63314 2.55457 2.85293 3.12932 2.99595 
2.71931 2.21857 2.5173 2.23633 1.83516 1.68983 1.67667 1.78182 1.70735 
1.86966 1.87945 1.83607 1.99564 2.00157 2.27662 1.97138 2.51377 2.68126 
2.49414 2.38238 2.46499 2.5214 2.54108 2.44546 2.29135 2.21297 2.14569 
2.062 2.02497 2.01835 2.00172 1.99717 2.19669 2.83073 2.53612 2.3177 
2.13554 2.1704 2.24939 2.57651 2.57651 2.70315 2.80946 2.76664 2.62734 
2.68409 2.70148 2.78585 2.83016 2.66297 2.57137 2.48734 2.40297 2.22723 
2.12457 2.13002 2.13874 2.27072 2.28404 2.84625 2.33288 2.10493 1.61038 
1.47162 1.64564 1.67047 1.7513 1.69271 1.69271 1.73907 1.79063 1.84727 
1.73224 1.70931 1.70931 1.72247 1.77313 1.76575 1.5854 1.5854 1.48387 
1.5978 1.5978 1.68191 1.85137 2.00754 1.90018 2.07562 2.1741 2.10231 
2.1285 2.42662 2.44922 2.68091 3.30929 3.23553 3.44642 1.63765 2.00876 
1.9844 1.88256 1.73505 1.50767 1.41221 1.40462 1.32747 1.25338 1.36989 
1.38826 1.38324 1.46125 1.5272 1.54403 1.64656 1.64656 1.70959 1.87324 
1.99738 2.04879 2.14249 2.09526 1.97426 1.96415 1.9091 2.0318 1.97789 
2.18221 3.2207 3.13395 2.70967 2.25756 1.95461 1.65235 1.79852 1.52119 
1.49846 1.59584 1.28232 1.3789 3.1529 2.98706 2.6922 2.52223 2.32196 
2.26942 2.32814 2.55525 2.20704 2.0796 2.07313 1.83487 1.93659 1.93132 
1.90307 1.85191 1.9349 2.0543 2.04808 2.30107 2.26556 2.25449 3.68114 
3.57917 1.436 1.54665 1.45594 1.55661 1.42513 1.45195 1.58402 1.58402 
1.61956 1.70641 1.78333 1.77459 1.77503 1.80666 1.80666 1.72084 1.62047 
1.56715 1.58323 1.57464 1.45202 1.44436 1.44895 1.52934 1.52844 1.45849 
1.54442 1.59116 1.53808 1.62412 1.89584 1.89584 1.73946 1.45288 1.53276 
1.46599 1.38795 1.4134 1.51311 1.65976 2.3966 2.29524 2.17273 2.35756 
2.07333 1.90503 1.7484 1.79712 1.83488 1.84453 1.90304 2.61831 2.84531 
2.59889 2.51728 2.35718 2.35718 2.15812 2.17114 2.18159 2.19475 2.17548 
2.17693 2.26223 2.23004 2.34044 2.16086 2.16086 2.17411 2.19011 1.98497 
1.69236 1.58659 1.55042 1.52745 1.49087 1.73623 1.34201 1.44306 1.39965 
1.39163 1.51871 1.51871 1.37583 1.44707 1.24831 1.15481 1.25339 1.44773 
2.08425 1.85415 1.80913 2.2599 1.82919 1.77622 1.82663 1.9168 1.85548 
1.87668 1.77408 1.7329 1.47987 1.3797 1.19253 1.06611 1.02355 1.16121 
1.42216 1.57489 1.67366 2.05903 1.74523 1.64906 1.46583 1.37876 1.34472 
1.26243 1.21237 1.35818 1.38667 1.38667 1.42775 1.3869 1.3869 1.29342 
1.29342 1.33547 1.35728 1.35728 1.37141 1.38857 1.38857 1.38665 1.43333 
1.43333 1.49483 1.4802 1.4802 1.4531 1.49868 1.31863 1.3016 1.29458 
3.02995 2.83174 2.57469 2.03843 1.92726 1.79761 1.92506 1.92506 2.13187 
1.95276 2.65617 2.09899 1.94441 1.92174 1.78992 1.95904 1.88436 1.82217 
1.60075 1.51165 1.29921 1.26629 1.28404 1.12247 1.12042 1.09025 1.14389 
1.00657 1.16966 1.16342 1.1304 1.22493 1.27236 1.27236 1.20879 1.15858 
1.14301 1.0608 1.04354 1.02484 1 1 1.13742 1.2253 1.2253 
1.41077 1.40215 1.424 1.46953 1.49309 1.32687 1.34057 1.28017 1.2475 
1.30149 1.30147 1.26033 1.26033 1.30264 1.34722 1.34722 1.4245 1.43164 
1.33707 1.1418 1.1418 1.14034 1.15751 1.15751 1.16071 1.17847 1.18447 
1.21057 1.27775 1.29672 1.29672 1.23994 1.193 1.193 1.12374 1.14439 
1.14439 1.27921 1.32477 1.32477 1.41571 1.41206 1.48174 1.49296 1.97792 
2.03646 1.75736 1.52672 1.51257 1.43622 1.34072 1.36158 1.31692 1.28254 
1.26759 1.12613 1.16753 1.16597 1.20539 1.20539 1.22197 1.35901 1.41466 
1.41898 1.44262 1.05266 1.06075 1.13283 1.21321 1.31385 
rRFP 1 664 double
3253.49 3176.25 3531.79 3479.04 4603.59 3913.94 3928.88 3472.36 3280.17 
3359.99 3817.73 3778.3 4456.98 3893.86 3483.74 3455.17 2957.31 4979.84 
3925.59 3113.58 4574.1 4148.73 3349.48 4123.58 3638.59 4464.89 3657.69 
4039.23 4104.73 3858 3178.57 3925.37 4271.79 3869.9 4238.06 3572.19 
3052.86 3853.85 3695.89 3379.85 3755.1 3611.43 3611.43 3707.83 3735.77 
3751.54 3751.54 3754.74 3772.41 3652.01 3736.69 3569.84 3731.69 3731.69 
3684.46 3765.98 3705.26 3798.35 3727.2 3792.81 3812.06 3825.49 4012.57 
4189.37 3887.05 3584.59 3730.77 3783.89 3567.48 3751.56 3822.01 3704.79 
3799.74 3895.58 3839.75 3908.05 3867.32 3833.09 3676.98 3811.47 3731.06 
3590.53 3582.89 3464.31 3425.4 3426.59 3537.49 3537.49 3553.4 3571.27 
3444.96 3622.44 3808.32 3951.56 4064.56 3652.85 3869.04 3740.54 3552.81 
3559.07 3504.78 3504.78 3634.78 3732.48 3897.51 3942.33 3850.05 3799.25 
3641.54 3589.83 3588.94 3602.09 3627.67 3629.77 3652.53 3571.8 3559.81 
3462.73 3461.43 3445.1 3440.83 3440.83 3444.54 3460.53 3364.64 3454.78 
3508.36 3468.62 3467.58 3534.31 3682.1 3679.15 3814.22 3814.22 3715.74 
3515.09 3283.84 3298.77 3615.8 3656.85 3592.79 3592.79 3504.15 3480.89 
3478.73 3609.41 3687.78 3693.63 3855.84 3853.49 4029.83 4235.44 4243.19 
4179.37 4070.37 3656.33 3402.11 3360.11 3495.81 3518.31 3589.96 3634.64 
3600.7 3557.51 3453.1 3481.04 3523.33 3584.02 3620.2 3513.9 3477 
3448.2 3397.15 3429.17 3429.17 3560.01 3972.84 4082.57 4099.77 4100.95 
4145.46 4168.62 4050.52 3988.9 4194.78 3767.35 3710.81 3524.3 3447.28 
3414.6 3503.05 3517.26 3687.2 4063.14 4032.35 4070.93 4000.17 4001.47 
3995.25 4040.63 4051.17 4053.8 4109.16 4109.16 4094.1 4012.83 3946.11 
3774.26 3619.17 3577.67 3568.33 3613.27 3613.27 3754.65 3754.65 3887.27 
4092.23 4092.23 4123.73 4072.1 4143.38 4173.1 4146.49 4036.85 3962.14 
3952.42 3842.2 3842.2 3750.44 3629.84 3607.65 3684.44 3760.63 3760.63 
3841.95 4048.75 4002.31 3991.85 4138.25 4081.41 4297.26 4497.22 4400.73 
4200.59 3838.32 4054.44 3851.17 3560.94 3455.8 3446.28 3522.35 3468.47 
3585.9 3592.98 3561.6 3677.04 3681.33 3880.32 3659.49 4051.89 4173.06 
4037.69 3956.83 4016.6 4057.41 4071.65 4002.47 3890.98 3834.27 3785.6 
3725.05 3698.26 3693.47 3681.44 3678.15 3822.49 4281.2 4068.06 3910.04 
3778.25 3803.47 3860.62 4097.28 4097.28 4188.9 4265.81 4234.83 4134.05 
4175.11 4187.69 4248.73 4280.79 4159.83 4093.56 4032.77 3971.73 3844.59 
3770.32 3774.26 3780.57 3876.05 3885.69 4292.43 3921.02 3756.11 3398.32 
3297.93 3423.83 3441.79 3500.27 3457.88 3457.88 3491.42 3528.72 3569.7 
3486.48 3469.89 3469.89 3479.41 3516.06 3510.72 3380.25 3380.25 3306.79 
3389.22 3389.22 3450.07 3572.67 3685.65 3607.98 3734.9 3806.15 3754.21 
3773.16 3988.84 4005.19 4172.81 4627.42 4574.06 4726.63 3418.05 3686.53 
3668.91 3595.23 3488.51 3324.01 3254.95 3249.46 3193.64 3140.04 3224.33 
3237.62 3233.99 3290.43 3338.14 3350.32 3424.49 3424.49 3470.09 3588.49 
3678.3 3715.49 3783.28 3749.11 3661.57 3654.26 3614.43 3703.2 3664.2 
3812.02 4563.33 4500.57 4193.62 3866.53 3647.36 3428.68 3534.43 3333.79 
3317.35 3387.8 3160.98 3230.85 4514.28 4394.3 4180.98 4058.01 3913.12 
3875.11 3917.59 4081.9 3829.98 3737.78 3733.1 3560.73 3634.32 3630.51 
3610.07 3573.06 3633.1 3719.48 3714.98 3898.01 3872.32 3864.31 4896.44 