# vtk DataFile Version 3.0
vtk output
ASCII
DATASET POLYDATA
POINTS 545 float
1.49878 -0.582719 1.54791 2.02685 0.942061 1.48615 1.63975 0.00149952 1.40424 
1.35775 -0.80292 1.33055 0.709736 -0.815871 1.2425 2.27501 1.16035 1.22417 
1.7424 1.29447 1.34678 0.180894 0.229503 1.33739 0.199134 -0.185943 1.28717 
2.68845 -0.0321001 0.918616 1.50525 -0.952906 0.898109 0.614462 -0.922763 0.967758 
0.543099 -0.775719 0.99035 2.05897 1.50987 0.944777 2.59588 -0.660016 -0.0570347 
-0.47655 -0.333099 0.512303 0.648964 -1.14776 0.131032 0.136477 -0.973461 0.189565 
1.59747 1.92203 0.017879 0.541309 1.83107 0.0855551 0.370591 -1.34388 -0.275228 
3.2641 0.664137 -0.455682 -0.348747 -0.876302 -0.368774 -0.658126 -0.34278 -0.686911 
4.20901 -0.198227 -0.829161 1.17216 -1.49805 -0.756695 -0.721764 0.568742 -0.642283 
4.93383 0.0646466 -1.05395 3.86498 0.755566 -0.893367 3.59407 0.684009 -0.88168 
1.69854 1.98204 -0.722951 -0.526133 1.06832 -0.598037 -0.672593 0.78464 -0.553225 
4.72944 0.520781 -1.18706 1.87557 -0.99277 -1.28792 2.50271 1.44933 -1.35683 
2.816 0.880769 -1.40657 0.333848 -0.92965 -1.36055 1.89501 -0.629284 -1.71777 
0.53895 1.52812 -1.5653 -0.079784 1.16562 -1.56203 0.481874 -0.621454 -1.81391 
0.910148 -0.503267 -2.03372 -0.0122784 0.137852 -1.88985 0.145084 0.184481 -2.09797 
0.0945645 0.164951 -2.02921 0.0382406 0.157382 -1.95862 0.841682 -0.489183 -2.05689 
0.786262 -0.500945 -2.05416 0.73863 -0.527459 -2.01635 0.692679 -0.55666 -1.95655 
0.642454 -0.577055 -1.89539 0.584584 -0.582214 -1.84683 0.531637 -0.598294 -1.82236 
0.462385 -0.703886 -1.72493 0.438402 -0.776799 -1.62703 0.403822 -0.827877 -1.52578 
0.368249 -0.877426 -1.43922 0.408662 -0.596554 -1.80555 0.33545 -0.571653 -1.79719 
0.262237 -0.546753 -1.78883 0.189569 -0.522717 -1.77312 0.11799 -0.500405 -1.74275 
0.0480441 -0.480682 -1.69038 -0.0213568 -0.461824 -1.63065 -0.0913029 -0.442101 -1.57827 
-0.162783 -0.419741 -1.5479 -0.233172 -0.395721 -1.52489 -0.29404 -0.368184 -1.4947 
-0.339106 -0.337451 -1.43539 -0.395257 -0.317737 -1.33916 -0.459233 -0.310264 -1.18396 
-0.539622 -0.31723 -0.961936 -0.149936 1.18525 -1.5246 -0.214135 1.19339 -1.46653 
-0.268768 1.18285 -1.38145 -0.322617 1.17173 -1.26658 -0.367722 1.1432 -1.13446 
-0.408522 1.10511 -0.981361 -0.457067 1.07481 -0.80183 0.588021 1.5457 -1.64166 
0.638538 1.53742 -1.72866 0.680009 1.51282 -1.82436 0.736365 1.49224 -1.91324 
0.800665 1.47427 -1.99491 0.858067 1.45182 -2.06912 0.900766 1.42106 -2.13574 
0.947545 1.39003 -2.18773 0.982244 1.34973 -2.21748 1.01803 1.3077 -2.23256 
1.06808 1.27149 -2.24053 1.11503 1.23378 -2.24845 1.1757 1.20276 -2.2566 
1.23636 1.17173 -2.26475 1.28332 1.13403 -2.27267 1.33327 1.09778 -2.28064 
1.36787 1.05404 -2.28835 1.39294 1.00678 -2.30326 1.41693 0.961247 -2.33283 
1.44826 0.922685 -2.38455 1.49431 0.892431 -2.44389 1.53625 0.859047 -2.4958 
1.58502 0.824478 -2.51844 1.62071 0.779011 -2.51148 1.6496 0.725713 -2.47502 
1.67913 0.6716 -2.43122 1.71868 0.623626 -2.39493 1.78069 0.590873 -2.37347 
1.84909 0.572249 -2.35082 1.91371 0.566346 -2.31144 1.9847 0.547853 -2.26653 
2.0543 0.531945 -2.22869 2.11135 0.54112 -2.20941 2.16216 0.562642 -2.20317 
2.21079 0.588387 -2.20375 2.25506 0.623124 -2.20295 2.29277 0.671372 -2.20008 
2.33759 0.705246 -2.19194 2.38836 0.727628 -2.16315 2.44263 0.744075 -2.09795 
2.49968 0.756106 -1.99606 2.55782 0.766413 -1.8795 2.61536 0.777681 -1.77026 
2.67048 0.793159 -1.68279 2.72074 0.818412 -1.60128 2.76494 0.856384 -1.51035 
1.90732 -0.689996 -1.68594 1.90028 -0.76834 -1.60987 1.88721 -0.868093 -1.47107 
0.275383 -0.93229 -1.27424 0.213465 -0.927556 -1.17936 0.157942 -0.936516 -1.1015 
0.0988297 -0.938857 -1.04504 0.0397973 -0.942399 -1.01864 -0.0270753 -0.930044 -0.99726 
-0.0969851 -0.911173 -0.967419 -0.161085 -0.902986 -0.90935 -0.214866 -0.910856 -0.82402 
-0.263496 -0.905169 -0.700082 -0.30056 -0.887332 -0.545658 2.41094 1.51382 -1.32299 
2.36177 1.56675 -1.29966 2.32408 1.61078 -1.2857 2.27642 1.64693 -1.26893 
2.24346 1.68808 -1.23921 2.21947 1.73023 -1.18761 2.18858 1.76788 -1.12853 
2.14199 1.799 -1.07654 2.09831 1.83492 -1.04664 2.04717 1.86946 -1.0313 
2.00002 1.90708 -1.02338 1.93827 1.93611 -1.0054 1.86818 1.95726 -0.957835 
1.7913 1.97192 -0.86066 -0.64257 -0.199846 -0.962923 -0.637837 -0.0955315 -1.15293 
-0.644109 -0.0228291 -1.23366 -0.6416 0.0424902 -1.24859 -0.643865 0.102005 -1.24143 
-0.641484 0.163787 -1.23434 -0.652727 0.218923 -1.22702 -0.663515 0.273151 -1.21236 
-0.661245 0.331494 -1.18323 -0.67018 0.379301 -1.11961 -0.685338 0.42085 -1.01139 
-0.701365 0.47541 -0.846725 1.97606 -1.03852 -1.13873 2.05566 -1.06057 -0.99017 
2.11049 -1.04119 -0.852358 2.16422 -1.0218 -0.736897 2.21879 -1.00545 -0.656761 
2.27169 -0.986426 -0.598618 2.31923 -0.956866 -0.553801 2.36071 -0.91457 -0.499555 
2.40884 -0.885151 -0.43609 2.46014 -0.853617 -0.346442 2.5158 -0.782544 -0.218816 
-0.654039 0.652558 -0.762088 -0.636536 0.717178 -0.793183 -0.637557 0.764139 -0.710306 
1.8379 -1.09503 -1.13512 1.80124 -1.16248 -1.02067 1.76438 -1.21308 -0.951601 
1.7169 -1.23937 -0.893834 1.67351 -1.27412 -0.842342 1.62001 -1.28829 -0.795171 
1.56785 -1.30599 -0.770949 1.51819 -1.32935 -0.762529 1.46871 -1.35336 -0.761683 
1.41929 -1.37748 -0.760851 1.36986 -1.40159 -0.76002 1.32044 -1.42571 -0.759189 
1.27101 -1.44982 -0.758358 1.22159 -1.47393 -0.757526 1.61071 2.00279 -0.843628 
1.53402 2.02119 -0.925519 1.47013 2.02394 -0.960334 1.40653 2.0286 -0.965042 
1.3467 2.02593 -0.960917 1.28444 2.02852 -0.94851 1.22624 2.02326 -0.922376 
1.16666 2.02164 -0.873277 1.10985 2.01455 -0.817537 1.04594 2.02183 -0.76707 
0.9804 2.0317 -0.738611 0.920327 2.02979 -0.726897 0.857426 2.03344 -0.7218 
0.796808 2.03239 -0.717425 0.730225 2.04389 -0.70365 0.666068 2.05117 -0.668118 
0.616092 2.03077 -0.592025 0.575184 1.99377 -0.4662 0.540953 1.94897 -0.29692 
0.524133 1.89614 -0.107442 4.64794 0.541281 -1.08137 4.58613 0.56668 -1.0065 
4.5528 0.607276 -0.969332 4.53839 0.659777 -0.954606 4.53874 0.720568 -0.947481 
4.52383 0.773915 -0.9401 4.48923 0.817655 -0.932388 4.42866 0.848724 -0.924238 
4.35733 0.874421 -0.915923 4.2851 0.897551 -0.907842 4.21792 0.91001 -0.901391 
4.16246 0.898337 -0.898649 4.1122 0.875951 -0.897552 4.06351 0.850304 -0.896956 
4.01841 0.817287 -0.897493 3.97554 0.779671 -0.898736 3.91952 0.769147 -0.895817 
4.7183 0.424937 -1.19002 4.73111 0.356997 -1.17653 4.75641 0.300449 -1.14019 
4.78565 0.246115 -1.09639 4.82341 0.197149 -1.06009 4.87317 0.157419 -1.04602 
4.90821 0.112767 -1.04639 4.80662 0.549579 -1.12209 4.87058 0.565674 -1.10251 
4.9128 0.606983 -1.12321 4.95606 0.642662 -1.15962 5.00827 0.660266 -1.18386 
5.07014 0.658488 -1.18866 5.13056 0.656047 -1.171 5.18919 0.630521 -1.13348 
5.22677 0.582459 -1.08957 5.24489 0.524033 -1.05292 5.24599 0.460561 -1.03803 
5.25777 0.404558 -1.03801 5.26727 0.348572 -1.0453 5.25349 0.282481 -1.05953 
5.22777 0.213691 -1.08067 5.19539 0.153921 -1.10773 5.15603 0.108558 -1.12511 
5.11777 0.0611827 -1.13532 5.06805 0.0379252 -1.12689 5.00334 0.0460755 -1.09869 
-0.650627 -0.469668 -0.605166 -0.630247 -0.550142 -0.548842 -0.605403 -0.606044 -0.527346 
-0.579501 -0.65531 -0.527582 -0.546092 -0.70076 -0.527926 -0.505224 -0.744827 -0.513708 
-0.479231 -0.799536 -0.477204 -0.423194 -0.841845 -0.426509 -0.647044 0.858025 -0.548983 
-0.620323 0.931689 -0.552276 -0.58402 1.00322 -0.56899 -0.709447 0.738713 -0.508531 
-0.728492 0.667094 -0.537976 -0.524193 1.13548 -0.453164 -0.496695 1.1875 -0.336907 
-0.449787 1.21662 -0.252205 -0.40196 1.24602 -0.189971 -0.361025 1.28918 -0.143065 
-0.31517 1.32143 -0.120241 -0.267415 1.34898 -0.120543 -0.224874 1.38651 -0.141721 
-0.191262 1.44165 -0.182596 -0.156504 1.49391 -0.238858 -0.124479 1.55155 -0.301767 
-0.0843702 1.59253 -0.367235 -0.0352706 1.6155 -0.420525 0.0195706 1.62794 -0.438085 
0.0662537 1.65952 -0.385486 0.119524 1.67959 -0.274898 0.178506 1.68893 -0.136082 
0.236595 1.69933 -0.0195082 0.292056 1.71386 0.0603487 0.346079 1.73031 0.110624 
0.403091 1.74034 0.152451 0.460702 1.74837 0.171554 0.501897 1.78866 0.150803 
1.69059 1.94123 -0.460429 1.65164 1.92523 -0.212617 3.53611 0.681886 -0.750487 
3.48278 0.669526 -0.635804 3.42008 0.672503 -0.548537 3.34721 0.677357 -0.490209 
4.90815 -0.00838456 -1.06064 4.88104 -0.0787342 -1.07438 4.84744 -0.135977 -1.09357 
4.79726 -0.159321 -1.11503 4.73642 -0.160168 -1.1181 4.68159 -0.172892 -1.10804 
4.62776 -0.187154 -1.08329 4.56683 -0.187043 -1.0638 4.50759 -0.190677 -1.05236 
4.44529 -0.187984 -1.03993 4.3863 -0.191615 -1.01355 4.32244 -0.184439 -0.963099 
4.26041 -0.180515 -0.898204 -0.765237 -0.318384 -0.578866 -0.8078 -0.277775 -0.50363 
-0.818876 -0.225475 -0.466741 -0.845272 -0.178773 -0.451807 -0.853612 -0.122222 -0.444537 
-0.866589 -0.0679328 -0.437188 -0.878021 -0.0128893 -0.429865 -0.876839 0.0471788 -0.415406 
-0.888727 0.0997425 -0.393388 -0.907315 0.147909 -0.36391 -0.918004 0.202186 -0.349251 
-0.907199 0.269207 -0.349651 -0.895702 0.338701 -0.364763 -0.895256 0.40102 -0.382394 
-0.874702 0.462669 -0.424029 -0.818906 0.513741 -0.511908 -0.637826 -0.359737 -0.294043 
-0.589352 -0.362825 0.0385445 -0.535613 -0.344541 0.298463 -0.290698 -0.894969 -0.180834 
-0.234885 -0.940048 -0.0107874 -0.163213 -0.983897 0.128312 -0.0883217 -1.01253 0.239047 
-0.0231456 -1.01854 0.308287 0.0362294 -1.01415 0.326831 0.08183 -0.983709 0.28216 
3.20494 0.72455 -0.444185 3.14913 0.766993 -0.42757 3.11506 0.809107 -0.397654 
3.09264 0.852094 -0.346066 3.07137 0.89331 -0.27981 3.04232 0.928468 -0.198726 
3.00064 0.95521 -0.102742 2.97251 0.985057 0.0150357 2.94453 1.01071 0.147262 
2.89873 1.01553 0.285851 2.84886 1.00166 0.422533 2.7907 1.00045 0.56132 
2.72812 1.0081 0.701487 2.66421 1.01823 0.834553 2.59917 1.03018 0.952965 
2.53259 1.04478 1.04937 2.46633 1.0622 1.12863 2.40655 1.08688 1.18583 
2.35325 1.1232 1.21649 3.24074 0.560972 -0.338941 3.21557 0.480441 -0.226895 
3.17925 0.431889 -0.117721 3.1351 0.405397 0.00209003 3.08799 0.408215 0.13306 
3.05018 0.426583 0.265168 3.00276 0.429506 0.38121 2.96072 0.3977 0.470334 
2.92767 0.342698 0.5411 2.8883 0.300184 0.606332 2.84549 0.264766 0.672644 
2.80701 0.220434 0.737597 2.7794 0.153708 0.799109 2.75207 0.0861246 0.853018 
2.7179 0.0321295 0.89407 0.433274 -1.34838 -0.317806 0.482946 -1.32503 -0.326217 
0.523385 -1.28111 -0.286664 0.568738 -1.24524 -0.188584 0.609922 -1.19922 -0.0441337 
0.619575 1.80146 0.240792 0.68425 1.79855 0.362793 0.740049 1.81212 0.435031 
0.793079 1.8301 0.470607 0.849836 1.84014 0.497492 0.91424 1.83494 0.536969 
0.972632 1.84239 0.585871 1.0262 1.85951 0.628777 1.07815 1.87922 0.649675 
1.13332 1.89175 0.654535 1.19479 1.89078 0.642379 1.25378 1.89441 0.615995 
1.31847 1.88551 0.565279 1.38561 1.87105 0.498766 1.44734 1.86723 0.418943 
1.49661 1.8883 0.320548 1.54311 1.91378 0.18547 1.64937 1.94674 0.188943 
1.71976 1.92843 0.331142 1.78919 1.88812 0.44091 1.84443 1.84115 0.521031 
1.91053 1.80149 0.586244 1.9749 1.76099 0.651487 2.01703 1.70851 0.724461 
2.04735 1.64914 0.804964 2.06477 1.58461 0.878354 2.67098 -0.758734 -0.152748 
2.73067 -0.785696 -0.201481 2.75639 -0.748637 -0.195285 2.74462 -0.702187 -0.162778 
2.69698 -0.66934 -0.114247 0.722176 -1.17266 0.122671 0.795933 -1.19843 0.121648 
0.870779 -1.22592 0.135295 0.947711 -1.25667 0.178317 1.02519 -1.28751 0.251204 
1.09537 -1.30229 0.356437 1.14784 -1.28031 0.47479 1.20111 -1.26023 0.585377 
1.25545 -1.24312 0.673103 1.30511 -1.21692 0.747293 1.34714 -1.17549 0.808879 
1.39381 -1.14406 0.85398 1.43831 -1.10746 0.877417 1.47264 -1.0414 0.890121 
0.625243 -1.12467 0.307518 0.588018 -1.10479 0.462196 0.564607 -1.07477 0.594595 
0.559798 -1.03343 0.712005 0.581501 -0.980278 0.836296 2.53747 -0.63384 0.223351 
2.48368 -0.633657 0.440506 2.43657 -0.657231 0.56089 2.38895 -0.683315 0.609969 
2.33432 -0.696709 0.612447 2.27373 -0.697562 0.624324 2.22133 -0.714497 0.656136 
2.17597 -0.744658 0.723257 2.13139 -0.776441 0.790137 2.08578 -0.806596 0.842324 
2.03799 -0.833299 0.865164 1.98906 -0.858179 0.873349 1.9388 -0.880574 0.874445 
1.88477 -0.894929 0.884247 1.82526 -0.897499 0.910794 1.7739 -0.916069 0.957289 
1.72599 -0.941918 1.00268 1.67094 -0.957027 1.01994 1.59619 -0.951676 0.981251 
2.11997 1.4745 0.966005 2.16003 1.42552 1.00962 2.19091 1.36898 1.07298 
2.22058 1.30929 1.14353 2.24856 1.24312 1.19349 2.01167 1.4824 0.974971 
1.96523 1.45397 1.02742 1.91609 1.43184 1.10326 1.86153 1.42141 1.19582 
1.81328 1.39747 1.27137 1.77282 1.35669 1.32193 0.616437 -0.783995 1.12104 
0.533772 -0.84089 0.983376 0.55756 -0.889905 0.975846 0.48053 -0.763684 1.11607 
0.426396 -0.743019 1.21226 0.392785 -0.704439 1.25668 0.367164 -0.656319 1.26424 
0.341644 -0.604764 1.24977 0.316768 -0.554024 1.24263 0.292436 -0.504146 1.24282 
0.268747 -0.455083 1.25035 0.246693 -0.405222 1.25785 0.233617 -0.350981 1.2652 
0.234165 -0.290094 1.27232 0.221088 -0.235852 1.27967 0.666626 -0.887667 1.09765 
1.48855 -0.890963 1.03378 1.4421 -0.859751 1.15307 1.39035 -0.836427 1.2494 
0.193986 0.296511 1.3443 0.193455 0.356872 1.35144 0.197669 0.419549 1.3585 
0.197237 0.479959 1.36564 0.212063 0.547813 1.37252 0.236013 0.619998 1.37923 
0.262386 0.691359 1.38567 0.293226 0.753767 1.39072 0.33141 0.801044 1.39345 
0.367405 0.852829 1.39687 0.406424 0.898385 1.39933 0.442467 0.950073 1.40274 
0.481533 0.99553 1.40519 0.518411 1.0455 1.40833 0.562633 1.08033 1.40914 
0.611223 1.10617 1.40858 0.6606 1.13038 1.40776 0.710025 1.15449 1.40693 
0.759497 1.17851 1.40608 0.809757 1.20091 1.40499 0.864384 1.2143 1.40251 
0.926356 1.21256 1.3977 0.986092 1.21543 1.39361 1.04806 1.21369 1.38881 
1.10269 1.22708 1.38633 1.15295 1.24948 1.38523 1.20247 1.2734 1.38437 
1.25273 1.29579 1.38327 1.30736 1.30919 1.3808 1.36933 1.30745 1.37599 
1.42906 1.31032 1.3719 1.49108 1.30849 1.36708 1.54659 1.32005 1.36432 
1.6029 1.33 1.36131 1.67011 1.31745 1.35485 0.78632 -0.786968 1.27511 
0.861687 -0.793854 1.3061 0.931444 -0.807312 1.33424 0.988408 -0.797882 1.35107 
1.04014 -0.778267 1.35702 1.09561 -0.766602 1.35427 1.16194 -0.777332 1.34809 
1.22912 -0.789783 1.34164 1.29053 -0.790372 1.33701 1.76836 1.242 1.3686 
1.79542 1.18781 1.40508 1.82326 1.13268 1.44889 1.85503 1.07719 1.48488 
1.91246 1.01676 1.49594 2.22747 1.07387 1.25742 2.17899 1.02286 1.30736 
2.1178 0.984459 1.38466 1.38561 -0.733341 1.36658 1.41539 -0.667208 1.41701 
1.45138 -0.613334 1.48051 1.69621 0.014493 1.49881 1.75237 0.0283439 1.60096 
1.80229 0.054543 1.69009 1.83723 0.110054 1.73889 1.86267 0.183091 1.73064 
1.88498 0.261252 1.6933 1.90508 0.339576 1.64868 1.91673 0.412656 1.61154 
1.91423 0.479957 1.56729 1.92534 0.553897 1.5228 1.94598 0.631526 1.48554 
1.97012 0.710464 1.4706 1.99679 0.806607 1.47244 
LINES 48 645
4 44 45 46 43 
9 42 47 48 49 50 51 52 53 41 
17 41 58 59 60 61 62 63 64 65 66 67 68 69 70 71 72 23 
9 40 73 74 75 76 77 78 79 31 
48 39 80 81 82 83 84 85 86 87 88 89 90 91 92 93 94 95 96 97 98 99 100 101 102 103 104 105 106 107 108 109 110 111 112 113 114 115 116 117 118 119 120 121 122 123 124 125 36 
5 38 126 127 128 34 
16 35 140 141 142 143 144 145 146 147 148 149 150 151 152 153 30 
14 23 154 155 156 157 158 159 160 161 162 163 164 165 26 
13 34 166 167 168 169 170 171 172 173 174 175 176 14 
5 26 177 178 179 32 
16 34 180 181 182 183 184 185 186 187 188 189 190 191 192 193 25 
22 30 194 195 196 197 198 199 200 201 202 203 204 205 206 207 208 209 210 211 212 213 19 
19 33 214 215 216 217 218 219 220 221 222 223 224 225 226 227 228 229 230 28 
9 33 231 232 233 234 235 236 237 27 
22 33 238 239 240 241 242 243 244 245 246 247 248 249 250 251 252 253 254 255 256 257 27 
10 23 258 259 260 261 262 263 264 265 22 
5 32 266 267 268 31 
4 32 269 270 26 
25 31 271 272 273 274 275 276 277 278 279 280 281 282 283 284 285 286 287 288 289 290 291 292 293 19 
4 30 294 295 18 
6 29 296 297 298 299 21 
15 27 300 301 302 303 304 305 306 307 308 309 310 311 312 24 
18 23 313 314 315 316 317 318 319 320 321 322 323 324 325 326 327 328 26 
5 23 329 330 331 15 
9 22 332 333 334 335 336 337 338 17 
21 21 339 340 341 342 343 344 345 346 347 348 349 350 351 352 353 354 355 356 357 5 
17 21 358 359 360 361 362 363 364 365 366 367 368 369 370 371 372 9 
7 20 373 374 375 376 377 16 
19 19 378 379 380 381 382 383 384 385 386 387 388 389 390 391 392 393 394 18 
11 18 395 396 397 398 399 400 401 402 403 13 
7 14 404 405 406 407 408 14 
16 16 409 410 411 412 413 414 415 416 417 418 419 420 421 422 10 
7 16 423 424 425 426 427 11 
21 14 428 429 430 431 432 433 434 435 436 437 438 439 440 441 442 443 444 445 446 10 
7 13 447 448 449 450 451 5 
8 13 452 453 454 455 456 457 6 
3 12 458 4 
4 12 459 460 11 
14 12 461 462 463 464 465 466 467 468 469 470 471 472 8 
3 11 473 4 
5 10 474 475 476 3 
37 7 477 478 479 480 481 482 483 484 485 486 487 488 489 490 491 492 493 494 495 496 497 498 499 500 501 502 503 504 505 506 507 508 509 510 511 6 
11 4 512 513 514 515 516 517 518 519 520 3 
7 6 521 522 523 524 525 1 
5 5 526 527 528 1 
5 3 529 530 531 0 
15 2 532 533 534 535 536 537 538 539 540 541 542 543 544 1 
18 41 54 55 56 57 37 129 130 131 132 133 134 135 136 137 138 139 22 

POINT_DATA 545
SCALARS DY_raw double
LOOKUP_TABLE default
333.096 196.202 89.8844 226.353 255.641 158.976 121.264 187.743 188.391 
223.053 171.006 220.649 163.944 132.926 159.555 171.829 183.495 118.914 
155.103 112.622 136.391 185.997 228.371 222.619 241.515 100.212 207.92 
199.735 117.346 119.363 221.849 141.014 132.536 187.226 170.702 226.957 
204.576 125.522 226.101 124.364 125.417 121.454 245.839 121.459 154.83 
115.013 118.738 173.252 153.319 147.51 144.022 141.022 141.022 146.826 
156.089 194.951 168.512 135.053 127.613 135.362 135.948 131.155 137.19 
158.786 175.672 174.085 174.085 153.372 127.87 115.078 133.357 158.802 
204.56 111.193 101.651 130.254 154.421 146.142 154.832 153.406 123.341 
124.359 121.889 111.627 120.971 104.995 133.461 131.236 146.984 199.644 
204.492 234.735 229.893 246.977 271.571 291.179 291.179 310.404 326.783 
326.783 271.35 228.419 228.419 160.148 204.604 195.144 170.468 179.559 
180.539 193.588 204.619 211.528 211.528 219.251 219.612 219.612 214.6 
202.392 202.392 201.612 212.544 255.685 208.445 196.912 214.042 191.459 
217.376 205.73 187.847 156.902 156.215 165.773 187.873 180.427 184.962 
166.372 183.298 161.541 171.736 186.279 245.535 260.001 246.165 238.886 
271.97 228.349 218.571 248.246 242.584 228.168 215.081 214.832 225.585 
232.683 177.424 183.552 183.513 160.043 186.981 186.981 170.769 188.674 
211.596 202.019 229.235 205.729 231.386 306.469 335.809 305.937 240.375 
208.752 169.2 185.877 137.866 146.394 184.692 219.355 188.981 153.031 
183.807 202.076 199.098 211.14 219.033 228.215 233.97 212.943 186.35 
162.593 162.593 138.8 119.486 119.486 186.31 165.07 147.197 143.607 
135.383 128.628 132.985 142.612 137.916 158.518 139.734 133.646 133.646 
122.235 129.996 125.77 125.942 176.057 185.812 145.643 217.623 233.03 
257.656 295.756 295.756 306.407 296.962 293.911 282.27 268.919 198.799 
198.799 183.744 153.458 153.458 138.32 117.346 203.634 197.949 206.115 
205.173 205.301 205.301 192.395 229.59 228.489 238.036 209.977 207.28 
207.28 220.943 262.078 282.456 311.335 306.976 258.695 258.695 236.398 
225.333 234.078 210.088 201.464 201.464 179.684 203.265 207.769 201.025 
193.867 191.571 173.873 183.409 217.108 174.569 164.04 144.172 208.984 
197.297 156.546 155.528 179.903 169.351 155.375 144.087 128.793 136.588 
131.09 107.042 104.262 109.829 109.829 127.496 127.179 126.886 126.254 
125.179 121.661 120.511 136.034 143.181 123.721 159.966 128.956 204.92 
223.447 212.107 216.754 199.735 201.269 226.299 198.982 206.241 206.241 
232.915 241.15 229.937 235.126 245.576 245.576 210.841 196.43 204.051 
205.628 196.382 203.964 242.047 222.122 222.122 193.982 164.918 199.485 
191.632 175.692 178.167 155.718 155.532 270.749 196.26 178.189 244.92 
232.752 217.998 201.944 195.364 208.365 221.574 174.228 176.489 211.847 
238.221 225.812 237.333 222.678 222.613 233.049 186.417 162.017 148.279 
175.657 134.029 206.401 210.968 217.414 214.83 181.041 235.033 240.689 
241.417 229.905 207.941 224.571 213.947 195.645 240.078 217.262 195.114 
216.728 233.009 214.956 282.376 130.396 147.315 165.274 197.509 163.164 
133.912 151.123 172.916 150.851 163.724 167.296 144.639 130.052 141.042 
150.154 150.154 169.722 198.693 153.232 172.637 146.462 146.062 175.565 
210.32 192.985 190.347 146.752 171.777 174.406 147.548 178.365 269.342 
267.599 243.271 235.597 209.885 183.495 172.083 198.071 214.436 217.952 
265.316 281.007 263.485 242.089 254.062 283.37 255.123 242.949 193.519 
170.928 184.407 211.509 169.666 200.343 185.655 190.829 205.33 204.999 
167.154 156.956 173.263 203.977 196.013 209.587 210.396 210.396 190.681 
195.421 195.421 214.341 237.156 223.993 191.828 164.389 181.919 169.595 
161.077 155.213 164.614 118.389 109.187 152.929 131.308 129.441 204.149 
177.206 177.206 173.156 194.342 158.351 161.211 161.211 175.624 175.825 
175.825 185.132 185.132 175.074 165.059 244.774 182.047 194.373 216.727 
187.743 215.339 224.657 248.479 246.64 233.499 188.176 168.237 189.177 
189.177 186.982 186.982 147.446 165.261 165.261 161.381 121.395 121.395 
137.35 149.813 149.813 157.558 166.475 166.475 143.472 143.472 154.213 
147.137 147.137 135.31 122.325 122.325 110.998 118.733 112.51 231.941 
260.955 256.51 261.434 245.5 206.995 203.074 211.627 207.424 138.355 
166.272 163.135 161.875 160.968 149.721 147.371 161.396 246.19 235.494 
251.93 138.335 180.244 242.359 320.659 249.772 248.642 161.508 179.023 
180.52 185.958 215.131 232.45 225.66 
FIELD FieldData 7
DY_minmax 1 545 double
0.98897 0.43232 0 0.55492 0.674016 0.280947 0.127598 0.397921 0.400559 
0.541501 0.329865 0.531726 0.301147 0.17502 0.283303 0.333212 0.380648 0.118041 
0.2652 0.0924576 0.189109 0.390823 0.563127 0.539736 0.616575 0.0419943 0.479969 
0.446686 0.111667 0.119868 0.536608 0.207909 0.173434 0.395821 0.32863 0.557376 
0.46637 0.144911 0.553898 0.140205 0.144486 0.12837 0.634156 0.128391 0.264089 
0.102179 0.117328 0.338999 0.257946 0.234321 0.220141 0.207942 0.207942 0.231539 
0.269207 0.427233 0.319723 0.183668 0.153414 0.184925 0.187308 0.16782 0.192359 
0.280175 0.348837 0.342385 0.342385 0.25816 0.154459 0.102444 0.176771 0.280239 
0.466303 0.0866453 0.047847 0.164156 0.262424 0.228762 0.264097 0.258297 0.136046 
0.140184 0.130139 0.0884133 0.126405 0.0614461 0.177197 0.168149 0.232185 0.446316 
0.466029 0.589004 0.569317 0.638785 0.738793 0.818523 0.818523 0.896696 0.963301 
0.963301 0.737892 0.563324 0.563324 0.285712 0.466484 0.428018 0.327679 0.364644 
0.368629 0.421688 0.466543 0.49464 0.49464 0.526043 0.527511 0.527511 0.507131 
0.457488 0.457488 0.454319 0.498771 0.674194 0.4821 0.435207 0.504863 0.413032 
0.51842 0.471064 0.398345 0.272512 0.269719 0.308585 0.39845 0.368171 0.386614 
0.311021 0.379845 0.291378 0.332832 0.391967 0.632923 0.691746 0.635483 0.605882 
0.740415 0.563036 0.523278 0.643946 0.62092 0.562302 0.509086 0.508072 0.551797 
0.58066 0.355963 0.380882 0.38072 0.285284 0.394822 0.394822 0.328899 0.401706 
0.494914 0.455974 0.56664 0.471057 0.575388 0.880695 1 0.878534 0.611939 
0.483349 0.322521 0.390334 0.195106 0.229786 0.385517 0.526464 0.402958 0.256771 
0.381916 0.456203 0.444094 0.493062 0.525156 0.562495 0.585895 0.500393 0.392257 
0.295654 0.295654 0.198905 0.120367 0.120367 0.392096 0.305726 0.233051 0.218451 
0.18501 0.157541 0.175259 0.214405 0.19531 0.279086 0.202704 0.177949 0.177949 
0.131546 0.163105 0.145922 0.146621 0.350402 0.39007 0.226731 0.519423 0.582072 
0.682207 0.837136 0.837136 0.880446 0.842037 0.829631 0.782297 0.728009 0.442878 
0.442878 0.38166 0.258509 0.258509 0.196955 0.111667 0.46254 0.439424 0.472629 
0.468796 0.469318 0.469318 0.416837 0.568085 0.563606 0.60243 0.488332 0.477365 
0.477365 0.532924 0.700188 0.783053 0.900484 0.882757 0.686435 0.686435 0.595768 
0.550772 0.586332 0.488782 0.453715 0.453715 0.365151 0.461041 0.479354 0.451932 
0.422822 0.413489 0.341521 0.380299 0.517329 0.344351 0.301539 0.220749 0.484296 
0.43677 0.271066 0.266925 0.366043 0.323134 0.266306 0.220406 0.158215 0.18991 
0.167555 0.0697689 0.0584632 0.0811018 0.0811018 0.152938 0.151649 0.15046 0.14789 
0.143518 0.129214 0.124539 0.187657 0.216722 0.137589 0.284972 0.158875 0.467768 
0.543106 0.496994 0.51589 0.446686 0.452923 0.5547 0.443622 0.473141 0.473141 
0.581603 0.615092 0.569493 0.590595 0.63309 0.63309 0.491845 0.433244 0.464235 
0.470648 0.433051 0.463879 0.618738 0.537719 0.537719 0.423292 0.305111 0.445668 
0.413735 0.34892 0.358981 0.267699 0.266943 0.735449 0.432556 0.359073 0.630418 
0.580941 0.520949 0.455665 0.428909 0.481777 0.53549 0.342966 0.352158 0.495938 
0.603179 0.55272 0.599571 0.53998 0.539714 0.58215 0.392532 0.293311 0.237449 
0.348775 0.179507 0.473791 0.49236 0.518573 0.508066 0.37067 0.590216 0.613215 
0.616175 0.569366 0.480052 0.547674 0.504476 0.430054 0.610731 0.517956 0.427893 
0.515784 0.581985 0.508579 0.782728 0.164734 0.233529 0.306556 0.437632 0.297978 
0.179029 0.249015 0.337633 0.24791 0.300254 0.314779 0.22265 0.163335 0.208022 
0.245073 0.245073 0.324643 0.442448 0.257591 0.336497 0.230063 0.228436 0.348402 
0.489727 0.419239 0.408509 0.23124 0.333 0.343692 0.234477 0.359786 0.729729 
0.722638 0.623715 0.59251 0.487959 0.380648 0.334243 0.439918 0.506465 0.520761 
0.713357 0.777162 0.705911 0.61891 0.667595 0.786767 0.671908 0.622408 0.421409 
0.329546 0.384357 0.494563 0.324413 0.449155 0.389432 0.410471 0.469434 0.468088 
0.3142 0.272733 0.339043 0.463933 0.431549 0.486745 0.490037 0.490037 0.409869 
0.429143 0.429143 0.506079 0.59885 0.545324 0.414532 0.302957 0.374238 0.324126 
0.289491 0.265646 0.303871 0.115907 0.0784903 0.256357 0.16844 0.16085 0.464635 
0.355074 0.355074 0.338608 0.424756 0.278403 0.290035 0.290035 0.348644 0.349462 
0.349462 0.387303 0.387303 0.346406 0.30568 0.629829 0.374762 0.424881 0.515779 
0.397921 0.510137 0.548025 0.644892 0.637414 0.583978 0.399684 0.318606 0.403753 
0.403753 0.394827 0.394827 0.234061 0.306502 0.306502 0.290726 0.128131 0.128131 
0.193011 0.243685 0.243685 0.275181 0.31144 0.31144 0.217903 0.217903 0.261579 
0.232807 0.232807 0.184713 0.131912 0.131912 0.0858543 0.117308 0.0920039 0.577643 
0.695625 0.677548 0.697569 0.632778 0.476207 0.460263 0.495043 0.47795 0.197095 
0.310616 0.297858 0.292735 0.289047 0.243313 0.233756 0.290789 0.635585 0.592091 
0.658926 0.197014 0.36743 0.620008 0.938397 0.65015 0.645555 0.291241 0.362463 
0.368551 0.390663 0.509288 0.579713 0.552104 
WidthEq 1 545 double
1 1.76617 1.15922 1.85845 1.51523 2.18961 2.43829 1.60063 1.32886 
1.87833 2.37223 2.42048 2.27405 2.41447 3.66378 2.69562 3.77066 1.18335 
4.1367 3.19002 4.43362 4.313 2.72169 3.10673 2.00512 3.16585 2.95429 
3.81473 2.04793 1.86596 1.98164 4.2538 3.18439 2.77929 4.98983 2.46314 
3.88821 4.12659 4.13004 4.11836 2.45705 4.49543 2.70025 4.48214 3.43632 
4.855 4.8295 4.31848 4.71894 4.97436 5.19048 4.89735 4.89735 4.61647 
4.11859 3.43812 3.27909 3.86401 4.25456 3.64907 3.68469 3.63161 3.76219 
3.60508 3.80554 4.0168 4.0168 4.14662 4.03932 3.938 3.61239 3.26706 
2.89723 3.44804 4.22864 4.12552 3.89764 3.80811 3.89607 3.9581 4.44446 
5.00025 4.79327 4.64094 3.83338 3.86784 3.18021 3.15961 3.16677 3.22486 
3.26588 3.19048 3.14001 3.15437 2.98078 2.88769 2.88769 2.68053 2.4286 
2.4286 2.24889 2.34068 2.34068 2.66464 2.54631 2.70772 3.02593 3.41005 
3.88733 4.07317 3.87768 3.75764 3.75764 3.54614 3.6256 3.6256 3.65823 
3.68783 3.68783 3.46956 3.44072 3.08992 3.61005 3.78704 3.53148 4.07344 
4.30611 4.28321 4.23044 4.00172 4.22006 4.13865 3.94286 3.83954 2.87927 
2.52288 2.64158 2.66697 2.50679 2.62094 2.7035 2.68516 2.67494 2.92779 
2.72411 2.85553 2.8661 2.60111 2.37323 2.31678 2.41512 2.40298 2.15634 
2.04973 2.93633 2.5429 2.36886 2.18214 2.09629 2.09629 2.05972 2.06275 
2.15281 2.31812 2.48669 2.74505 4.4448 3.36532 2.84435 2.23989 2.64181 
2.54938 2.54838 2.4644 3.15261 3.11485 2.97584 2.7717 2.63098 2.86679 
5.16295 4.53387 4.28034 3.80229 3.65957 3.60714 3.44072 3.60113 3.98651 
4.42489 4.42489 4.19839 3.84085 3.84085 2.31203 2.56362 2.76382 2.70193 
2.81532 2.58223 2.65418 2.45636 2.23438 2.10686 1.98137 2.11061 2.11061 
2.47692 2.51828 2.62523 2.86962 2.67605 2.40241 2.42975 3.00656 2.85721 
2.77431 2.69822 2.69822 2.71526 2.83412 2.76964 2.68302 2.84255 3.08023 
3.08023 3.11715 2.92794 2.92794 2.71982 2.04793 2.70959 2.51997 2.48684 
2.53609 2.78779 2.78779 3.56583 2.66586 2.36496 2.19746 2.44177 2.68562 
2.68562 3.07154 3.02272 3.01575 2.85672 2.80793 3.1927 3.1927 3.32251 
3.29777 3.24416 3.44792 3.65076 3.65076 4.0438 3.20426 3.16662 3.22609 
3.3855 3.4887 3.43375 3.40951 3.23141 2.70075 3.14939 3.93708 2.95551 
3.27733 3.90694 3.299 2.52851 2.67567 2.39842 2.45674 2.7974 2.88134 
2.99897 3.4954 3.76912 4.15669 4.15669 3.80347 3.90644 3.66301 2.92304 
3.2053 2.8736 2.95072 2.86066 2.87039 2.93319 2.9943 4.523 1.80595 
2.49247 3.38294 3.81278 3.81473 3.32523 2.75267 2.78044 2.39693 2.39693 
2.37441 2.08006 2.29009 2.27642 2.32073 2.32073 2.3048 3.56966 3.62177 
3.42583 2.83466 2.47336 2.39348 1.96989 1.96989 1.90552 2.07209 1.92328 
2.11054 2.2595 2.48125 2.9907 3.13637 2.68834 2.85924 2.8813 2.76114 
2.58656 2.52697 2.34539 2.10728 1.86738 1.34896 4.2932 3.8634 3.21621 
2.63523 2.76822 2.7596 2.9665 2.85507 3.01935 3.23095 3.14311 3.10581 
2.91339 2.62305 2.29561 2.14221 2.0832 2.02959 2.12762 4.08822 3.709 
3.51888 3.50617 4.04089 4.03185 4.09664 3.95469 3.50651 3.52876 3.12595 
3.00361 2.53907 2.49998 2.06535 4.87625 4.48547 4.34095 3.68817 3.73903 
2.89493 2.99614 2.54612 2.75447 2.66299 2.58342 2.53808 2.33065 2.23484 
2.27757 2.27757 2.18031 2.17288 2.45579 3.12335 3.55147 4.01696 3.99639 
3.08571 2.68723 2.75106 2.53241 2.50561 2.56599 2.48405 2.59808 2.14944 
1.63789 1.78302 2.26359 2.81919 3.77066 3.76683 3.51034 3.46427 3.30961 
2.71614 2.36174 2.43993 2.51583 2.04862 1.95775 2.0225 2.04061 2.35546 
3.76116 3.40511 3.18523 2.85672 2.60237 3.02241 2.78488 2.56956 2.62351 
2.61972 2.46207 2.41382 1.93481 1.95756 1.90716 1.80044 1.80044 1.83498 