# vtk DataFile Version 3.0
vtk output
ASCII
DATASET POLYDATA
POINTS 621 float
6.62699 -0.268146 0.725268 6.85394 -0.152556 0.411426 6.66643 0.361653 0.162002 
7.00373 -0.072504 0.104898 6.76984 -0.57627 0.116634 4.52423 -1.00729 0.459104 
6.52105 0.218965 -0.847902 6.75618 -0.672644 -0.732241 6.34884 -1.40271 -0.359902 
5.45483 -1.43266 -0.0802846 4.34332 -1.19345 0.0995815 4.14881 -0.889507 -0.0758674 
2.8057 -0.262902 0.275812 1.321 -1.20365 0.67138 3.81783 -0.605076 -0.149781 
3.74146 -0.681202 -0.128032 6.52137 -0.0413975 -1.10904 3.96062 -0.735285 -0.382334 
0.984129 1.1511 0.219921 2.58243 -1.61129 -0.220674 1.21799 -1.7388 0.10558 
5.73278 0.184026 -1.51262 6.29667 -0.338406 -1.36128 5.27842 0.18734 -1.1492 
3.9089 -0.561548 -0.790336 2.87944 -0.473608 -0.75916 6.12977 -0.35653 -1.73258 
5.15474 -0.09779 -1.65424 4.90427 -0.00672731 -1.56587 4.11877 -0.260266 -1.29276 
0.578402 1.58243 -0.52947 1.72209 -2.13097 -0.609751 0.0113467 -1.4125 -0.450777 
2.17162 -1.80134 -0.937453 1.49282 -2.11664 -0.737655 2.85088 -1.16565 -1.33448 
2.08722 -1.92691 -1.11699 2.80297 -0.525876 -1.76694 2.41606 -1.52788 -1.62558 
-0.555981 0.902203 -1.05186 -0.569731 0.153708 -1.21646 -0.530698 1.22974 -1.48569 
-0.682161 1.23283 -1.45035 0.176806 1.62103 -2.08265 -0.411596 0.0685728 -2.07189 
0.294844 -1.5384 -2.15621 -0.563023 -0.341351 -2.39274 1.54516 0.395511 -2.9584 
1.19665 0.391861 -3.0822 -0.284242 -0.0828535 -2.71109 -0.319344 -0.122021 -2.69327 
-0.344325 -0.167576 -2.66226 -0.353967 -0.222876 -2.6115 -0.37351 -0.265584 -2.55143 
-0.407616 -0.294076 -2.49249 -0.458785 -0.311013 -2.44917 -0.508988 -0.335093 -2.41714 
1.28471 0.385459 -3.00349 1.35669 0.36846 -2.95095 1.42951 0.36159 -2.9372 
1.49613 0.369054 -2.94557 -0.596285 -0.292866 -2.36835 -0.607309 -0.225915 -2.33486 
-0.616745 -0.16506 -2.29003 -0.613783 -0.0951078 -2.25237 -0.59813 -0.0274469 -2.22899 
-0.559718 0.0209457 -2.20235 -0.498279 0.0537815 -2.14986 0.337772 -1.53323 -2.26556 
0.371616 -1.5099 -2.34323 0.413976 -1.48482 -2.38489 0.478482 -1.47667 -2.40804 
0.551503 -1.47536 -2.42523 0.619022 -1.46824 -2.44141 0.676198 -1.45021 -2.45572 
0.742392 -1.4417 -2.47167 0.807344 -1.43187 -2.48739 0.856382 -1.40526 -2.50023 
0.905421 -1.37865 -2.51307 0.968683 -1.36919 -2.536 1.03143 -1.36133 -2.56633 
1.08222 -1.343 -2.60201 1.13991 -1.32766 -2.62393 1.19621 -1.30656 -2.63057 
1.26066 -1.28977 -2.62368 1.31996 -1.26969 -2.62336 1.39078 -1.26192 -2.62511 
1.46884 -1.2624 -2.62054 1.54494 -1.27134 -2.59222 1.60568 -1.29837 -2.54415 
1.66161 -1.33285 -2.47934 1.72091 -1.3666 -2.40012 1.79172 -1.39152 -2.30882 
1.88005 -1.39897 -2.2225 1.96627 -1.40588 -2.15095 2.0386 -1.42401 -2.09081 
2.11163 -1.44012 -2.03856 2.17575 -1.46642 -1.97608 2.24487 -1.49171 -1.89199 
2.33175 -1.50588 -1.77451 0.259958 1.63311 -2.02658 0.33564 1.65521 -1.96163 
0.422167 1.66802 -1.89116 0.505321 1.6801 -1.83508 0.574315 1.70067 -1.79898 
0.646897 1.70873 -1.79355 0.719895 1.70716 -1.81058 0.780796 1.69494 -1.84708 
0.817983 1.66288 -1.89988 0.846467 1.62347 -1.95789 0.882239 1.59 -2.01028 
0.933523 1.56804 -2.04404 0.977734 1.53639 -2.06042 1.01796 1.49945 -2.06798 
1.06386 1.46817 -2.07716 1.12021 1.4473 -2.08931 1.16603 1.41594 -2.09847 
1.20492 1.37767 -2.10565 1.24262 1.33821 -2.11249 1.28151 1.29994 -2.11967 
1.32734 1.26858 -2.12882 1.38375 1.24778 -2.14099 1.43093 1.21776 -2.15053 
1.4781 1.18774 -2.16007 1.53451 1.16694 -2.17224 1.58034 1.13558 -2.1814 
1.6193 1.09739 -2.1886 1.65834 1.05926 -2.19582 1.70551 1.02925 -2.20536 
1.77013 1.01662 -2.21987 1.83475 1.00399 -2.23437 1.88192 0.973977 -2.24391 
1.92088 0.935779 -2.25111 1.95851 0.896246 -2.25793 1.99606 0.856637 -2.26473 
2.03361 0.817027 -2.27153 2.07115 0.777418 -2.27833 2.10863 0.737732 -2.2851 
2.14315 0.696423 -2.29872 2.16728 0.647396 -2.32475 2.17618 0.585819 -2.36181 
2.18914 0.526981 -2.39235 2.19955 0.460313 -2.39141 2.22364 0.402014 -2.36364 
2.27221 0.365484 -2.32747 2.30796 0.316164 -2.28765 2.35039 0.27219 -2.24206 
2.39983 0.235207 -2.19845 2.4574 0.206321 -2.15716 2.52388 0.187637 -2.12609 
2.58144 0.158751 -2.08481 2.63081 0.121692 -2.04117 2.67198 0.0764593 -1.99522 
2.70079 0.0202257 -1.95342 2.74053 -0.0264261 -1.90706 2.78021 -0.073146 -1.86067 
2.80767 -0.130722 -1.81849 2.83366 -0.185814 -1.79895 2.85134 -0.246547 -1.7924 
2.87077 -0.304064 -1.79405 2.87709 -0.371941 -1.7921 2.86827 -0.438224 -1.78668 
2.83969 -0.486265 -1.77755 0.18453 1.67676 -1.9197 0.186544 1.73206 -1.78584 
0.150733 1.75626 -1.67966 0.0947924 1.76405 -1.59076 0.0371172 1.76616 -1.5088 
-0.00581864 1.75242 -1.42948 -0.0211802 1.70959 -1.35515 -0.0455628 1.67627 -1.2792 
-0.0857814 1.65967 -1.20038 -0.118602 1.63311 -1.1304 -0.150979 1.59965 -1.08303 
-0.197375 1.57025 -1.07067 -0.260799 1.55023 -1.08526 -0.317251 1.51857 -1.11614 
-0.366813 1.47963 -1.14825 -0.417179 1.43726 -1.19524 -0.464403 1.38514 -1.26533 
-0.499892 1.31205 -1.36757 0.152754 1.54017 -2.17195 0.127395 1.46927 -2.23097 
0.0919893 1.4197 -2.25063 0.0534418 1.37987 -2.24721 0.0122449 1.34284 -2.2433 
-0.0404649 1.31367 -2.25232 -0.113709 1.30186 -2.27264 -0.185339 1.2905 -2.28575 
-0.232689 1.26426 -2.2657 -0.269984 1.24027 -2.20243 -0.315993 1.23621 -2.10003 
-0.368383 1.24102 -1.98896 -0.420329 1.24751 -1.87048 -0.471029 1.25269 -1.75221 
-0.510287 1.25008 -1.621 -0.60643 1.23128 -1.46802 -0.607618 0.117479 -1.19813 
-0.648806 0.0890208 -1.16418 -0.695635 0.0708054 -1.1142 -0.725595 0.0328063 -1.07478 
-0.735738 -0.0320866 -1.06912 -0.736319 -0.101418 -1.09595 -0.726671 -0.162092 -1.13323 
-0.724095 -0.232608 -1.15312 -0.725079 -0.309309 -1.15663 -0.723872 -0.386464 -1.14539 
-0.718102 -0.461708 -1.12009 -0.700333 -0.528946 -1.07516 -0.670347 -0.585327 -1.026 
-0.650812 -0.652124 -0.973885 -0.638638 -0.72494 -0.927356 -0.619026 -0.791661 -0.875259 
-0.587701 -0.846706 -0.826488 -0.56158 -0.905618 -0.783931 -0.535594 -0.96071 -0.764386 
-0.516496 -1.02003 -0.758243 -0.4873 -1.06797 -0.762662 -0.451091 -1.10891 -0.769078 
-0.413695 -1.14867 -0.775833 -0.375721 -1.18918 -0.775065 -0.34012 -1.23468 -0.758258 
-0.302611 -1.28356 -0.711258 -0.245728 -1.31724 -0.646708 -0.195728 -1.36312 -0.564708 
-0.119119 -1.39771 -0.497115 -0.603627 0.874121 -1.03928 -0.660366 0.855633 -1.02504 
-0.706612 0.826075 -1.01271 -0.743031 0.788297 -0.994641 -0.766763 0.741425 -0.963859 
-0.768123 0.677388 -0.914602 -0.764712 0.612767 -0.851194 -0.765678 0.559648 -0.772102 
-0.745762 0.503333 -0.682512 -0.700764 0.454072 -0.576308 -0.645176 0.410335 -0.457636 
-0.558495 0.398822 -0.340251 -0.4646 0.411059 -0.225769 -0.387005 0.443719 -0.116108 
-0.313959 0.477185 -0.0206621 -0.23696 0.500045 0.051544 -0.173756 0.533166 0.111225 
-0.120749 0.572753 0.157738 -0.0740478 0.612558 0.182869 -0.0341778 0.650985 0.179191 
0.00239365 0.688605 0.161107 0.0452701 0.726006 0.164395 0.103484 0.757955 0.202455 
0.180112 0.779061 0.267217 0.252855 0.802121 0.32518 0.332117 0.811868 0.359429 
0.410203 0.814273 0.363855 0.478018 0.823224 0.355127 0.525732 0.851233 0.342528 
0.563619 0.887462 0.324195 0.596813 0.924354 0.291699 0.626629 0.960516 0.244793 
0.659376 0.995732 0.204866 0.705697 1.02521 0.192518 0.769121 1.04523 0.20711 
0.82396 1.07645 0.230768 0.869918 1.11275 0.24101 0.919327 1.14111 0.235615 
2.49071 -1.51755 -1.60551 2.56168 -1.49478 -1.55475 2.6433 -1.4725 -1.46836 
2.7154 -1.43588 -1.36523 2.77208 -1.38516 -1.26682 2.80867 -1.32396 -1.20232 
2.84238 -1.27475 -1.18986 2.85965 -1.2275 -1.242 2.40759 -1.59514 -1.61257 
2.39207 -1.65067 -1.58328 2.38381 -1.70744 -1.53277 2.36435 -1.75022 -1.47272 
2.33108 -1.77846 -1.41017 2.28492 -1.79309 -1.34529 2.24763 -1.8085 -1.25199 
2.20882 -1.80943 -1.11334 -0.0002691 -1.52144 -0.640594 -0.00258199 -1.59646 -0.773378 
0.0334675 -1.62988 -0.841077 0.0846291 -1.65475 -0.859421 0.146956 -1.6723 -0.857912 
0.206196 -1.69424 -0.847838 0.265574 -1.71341 -0.853166 0.309785 -1.74506 -0.869548 
0.343685 -1.78435 -0.898357 0.379275 -1.82327 -0.91996 0.42341 -1.855 -0.93632 
0.481447 -1.8755 -0.941266 0.532336 -1.90577 -0.928814 0.581429 -1.94178 -0.8928 
0.632214 -1.97743 -0.84957 0.688167 -2.0066 -0.81551 0.751269 -2.02601 -0.798849 
0.803923 -2.05584 -0.779212 0.854357 -2.09052 -0.74358 0.913493 -2.11784 -0.702729 
0.989663 -2.12686 -0.674426 1.06904 -2.12873 -0.670087 1.14639 -2.12998 -0.680532 
1.22177 -2.13155 -0.700025 1.29807 -2.13202 -0.7217 1.38382 -2.12661 -0.740159 
2.1365 -1.87266 -1.03225 1.61142 -2.12605 -0.692613 2.22209 -1.72689 -0.777847 
2.28766 -1.67267 -0.63599 2.36775 -1.63591 -0.504281 2.46933 -1.61967 -0.368942 
5.0574 -0.093659 -1.6456 4.98574 -0.0609052 -1.61904 5.25154 -0.110206 -1.70169 
5.33539 -0.113741 -1.72117 5.41087 -0.104042 -1.70381 5.47168 -0.0733426 -1.66122 
5.52608 -0.0352244 -1.61496 5.58384 -0.00317531 -1.5787 5.64828 0.02083 -1.55692 
5.69805 0.0765956 -1.53523 0.211619 -1.39712 -0.193797 0.365404 -1.38371 0.0360889 
0.483185 -1.36628 0.22088 0.574657 -1.3392 0.35804 0.659803 -1.31636 0.458807 
0.726163 -1.28442 0.525428 0.787019 -1.25526 0.563009 0.858278 -1.24565 0.568671 
0.934677 -1.24361 0.565901 1.00895 -1.23503 0.578529 1.0797 -1.21416 0.62183 
1.16249 -1.20385 0.670453 1.24534 -1.20218 0.689039 0.676276 1.58449 -0.445876 
0.762501 1.57758 -0.374326 0.825209 1.54986 -0.311443 0.869676 1.50528 -0.251061 
0.894005 1.44063 -0.184934 0.911669 1.36801 -0.109233 0.931371 1.29478 -0.0187379 
0.956061 1.22258 0.0933862 4.19261 -0.26954 -1.30579 4.26253 -0.268851 -1.31079 
4.32014 -0.25044 -1.3176 4.38036 -0.234627 -1.32871 4.43497 -0.213892 -1.34256 
4.49428 -0.198111 -1.35726 4.54888 -0.177375 -1.37111 4.60819 -0.161595 -1.3858 
4.66272 -0.140779 -1.39964 4.72003 -0.123758 -1.41774 4.7661 -0.0944298 -1.44526 
4.81871 -0.0549247 -1.49386 4.05215 -0.278056 -1.27244 4.00178 -0.305007 -1.24022 
3.96028 -0.330162 -1.19114 3.94673 -0.376037 -1.12089 3.934 -0.417359 -1.03203 
3.91703 -0.454203 -0.9424 3.90527 -0.498684 -0.861224 5.00147 0.105629 -1.43818 
5.08688 0.164318 -1.32786 5.17961 0.181866 -1.23622 5.20055 0.0079405 -1.4672 
5.24176 0.10088 -1.29874 6.21335 -0.331087 -1.54779 5.82173 0.113543 -1.528 
5.90781 0.09045 -1.51464 5.99164 0.0989126 -1.45853 6.0649 0.130449 -1.3696 
6.15341 0.165341 -1.23554 6.29881 0.189844 -1.05756 2.91484 -0.424034 -0.739496 
2.94321 -0.362742 -0.703543 2.97553 -0.303484 -0.660788 2.99437 -0.232436 -0.623094 
2.9987 -0.157739 -0.605037 2.98446 -0.0963629 -0.597184 2.94778 -0.057206 -0.582947 
2.92723 -0.0046071 -0.557941 2.90851 0.0445415 -0.502719 2.88911 0.0890532 -0.424243 
2.8719 0.133109 -0.331037 2.85123 0.176362 -0.252201 2.8255 0.218521 -0.194982 
2.79471 0.259587 -0.159371 2.76384 0.300578 -0.123738 2.73508 0.341037 -0.0733437 
2.70268 0.375234 -0.00654082 2.66012 0.397977 0.0708448 2.61987 0.423024 0.147572 
2.56734 0.437145 0.220111 2.51136 0.450469 0.278258 2.45956 0.471918 0.312164 
2.39379 0.482078 0.334685 2.32117 0.4854 0.35916 2.25192 0.489451 0.398036 
2.19466 0.501353 0.456553 2.15086 0.522794 0.519065 2.10168 0.526197 0.576121 
2.05092 0.510746 0.61165 1.9865 0.50556 0.63463 1.92171 0.515308 0.649323 
1.8732 0.543835 0.659251 1.82595 0.573776 0.668811 1.76954 0.594576 0.680983 
1.72364 0.625859 0.690159 1.68341 0.662797 0.69772 1.63751 0.694082 0.706897 
1.57947 0.714586 0.711843 1.52858 0.744853 0.69939 1.47956 0.780941 0.663355 
1.43012 0.817924 0.619744 1.38244 0.855348 0.583326 1.3399 0.893941 0.568495 
1.30024 0.934081 0.560522 1.26288 0.979147 0.536531 1.22073 1.02604 0.475489 
1.15198 1.05169 0.391275 1.09241 1.08649 0.304449 1.04764 1.13077 0.244153 
3.8431 -0.556848 -0.737062 3.794 -0.544958 -0.649983 3.77669 -0.530001 -0.517184 
3.78554 -0.551357 -0.342979 3.93719 -0.631115 -0.656339 3.95748 -0.692249 -0.520884 
5.31087 0.212142 -1.22662 5.35417 0.227645 -1.2985 5.39345 0.253826 -1.34711 
5.44249 0.280438 -1.35995 5.51512 0.290048 -1.3489 5.59351 0.287084 -1.35188 
5.66487 0.25914 -1.40719 6.34602 -0.265627 -1.21233 6.40862 -0.215821 -1.11357 
6.47436 -0.161055 -1.08605 6.3328 -0.379428 -1.36768 6.362 -0.427363 -1.3721 
6.3811 -0.486683 -1.36595 6.40716 -0.541699 -1.34643 6.43907 -0.598235 -1.2863 
6.49979 -0.639074 -1.16897 6.60324 -0.66351 -0.97489 5.78534 0.318782 -1.3318 
5.86869 0.378816 -1.17726 5.95617 0.410683 -1.04704 6.053 0.426188 -0.931497 
6.14827 0.442494 -0.817541 6.22636 0.474327 -0.700334 6.29751 0.499091 -0.581154 
6.37396 0.493938 -0.461703 6.46233 0.482788 -0.337122 6.54219 0.457821 -0.194609 
6.61198 0.418705 -0.0261703 1.20983 -1.68594 0.180989 1.22755 -1.62243 0.257423 
1.2672 -1.56094 0.344038 1.29777 -1.48727 0.432178 1.32033 -1.40759 0.52188 
1.32965 -1.3346 0.592185 1.32324 -1.27319 0.643903 6.48461 0.0972326 -0.979631 
6.66614 -0.127404 -1.09461 6.72955 -0.198264 -1.07542 6.7677 -0.248558 -1.06065 
6.80032 -0.298028 -1.03956 6.81936 -0.363844 -0.995 6.83134 -0.436078 -0.937019 
6.83332 -0.504039 -0.873108 6.80761 -0.572064 -0.806515 4.02573 -0.770964 -0.271371 
4.08849 -0.818159 -0.169437 3.94494 -0.691016 -0.281869 3.92117 -0.649541 -0.209845 
3.88075 -0.618066 -0.171493 6.55188 0.0966568 -0.980128 3.77964 -0.643138 -0.138907 
6.71735 -0.798019 -0.766314 6.69937 -0.893375 -0.791553 6.69255 -0.972679 -0.801183 
6.67977 -1.04096 -0.80616 6.64605 -1.09017 -0.818619 6.59913 -1.13189 -0.851212 
6.54928 -1.17266 -0.890795 6.50397 -1.21393 -0.916168 6.47393 -1.26058 -0.906767 
6.4626 -1.31625 -0.863217 6.44579 -1.35832 -0.79113 6.42078 -1.38407 -0.687474 
6.38499 -1.39262 -0.541544 1.36087 -1.16522 0.667711 1.4042 -1.12615 0.67843 
1.45383 -1.08729 0.710533 1.51204 -1.05534 0.748602 1.58016 -1.03598 0.777357 
1.63968 -1.014 0.785143 1.69936 -0.996461 0.777889 1.74583 -0.96714 0.765514 
1.78665 -0.931857 0.754162 1.83312 -0.902537 0.741788 1.8928 -0.885002 0.734533 
1.95063 -0.86338 0.735114 2.01369 -0.845116 0.742262 2.06177 -0.815353 0.737106 
2.0979 -0.779408 0.711591 2.12779 -0.743325 0.66467 2.15885 -0.708473 0.617539 
2.20187 -0.679802 0.590775 2.26154 -0.662267 0.583521 2.32107 -0.640281 0.591307 
2.38243 -0.622381 0.591249 2.43052 -0.592618 0.586094 2.46833 -0.556309 0.567775 
2.50152 -0.519418 0.53528 2.52958 -0.48354 0.48119 2.55594 -0.448028 0.419885 
2.58407 -0.412229 0.365782 2.61851 -0.376649 0.333061 2.66314 -0.347535 0.313508 
2.71981 -0.328974 0.299286 2.76613 -0.299496 0.286939 4.3422 -1.2797 0.0458079 
4.37286 -1.32737 0.0105608 4.43535 -1.34351 -0.000730526 4.49345 -1.36313 -0.0108157 
4.52715 -1.40525 -0.0242045 4.5647 -1.4409 -0.0540529 4.59679 -1.48332 -0.0746574 
4.65405 -1.50196 -0.0947567 4.72569 -1.50759 -0.111262 4.79164 -1.51888 -0.126151 
4.84031 -1.54741 -0.136114 4.89066 -1.57558 -0.138872 4.96183 -1.58562 -0.132197 
5.04628 -1.58639 -0.10625 5.13368 -1.58539 -0.0734567 5.21815 -1.58328 -0.0476617 
5.28948 -1.57375 -0.0420136 5.34014 -1.5467 -0.0476353 5.38646 -1.51722 -0.059983 
5.43381 -1.48883 -0.0725173 4.15853 -0.982108 -0.0328315 4.17718 -1.0546 0.00962226 
4.21655 -1.10316 0.0485589 4.2712 -1.14574 0.0785343 4.27078 -0.887017 0.0325401 
4.36117 -0.90826 0.162237 4.44066 -0.948072 0.308118 4.4317 -1.09747 0.282223 
5.52381 -1.43567 -0.12677 5.5911 -1.43904 -0.180461 5.66008 -1.44204 -0.226947 
5.73581 -1.44359 -0.24462 5.81829 -1.44368 -0.233478 5.90247 -1.4434 -0.215131 
5.98327 -1.44385 -0.211197 6.06237 -1.44467 -0.214457 6.14092 -1.44551 -0.220135 
6.21779 -1.4449 -0.233104 6.28688 -1.43485 -0.280275 5.44649 -1.39427 0.0949277 
5.42377 -1.36625 0.251186 5.40362 -1.33041 0.375977 5.37502 -1.29638 0.464749 
5.33035 -1.2731 0.527362 5.28832 -1.24192 0.558486 5.24411 -1.21027 0.574868 
5.19455 -1.18263 0.585086 5.15782 -1.14221 0.59165 5.0988 -1.124 0.604564 
5.02547 -1.11874 0.613864 4.95452 -1.10847 0.607125 4.89707 -1.08078 0.57349 
4.84487 -1.04655 0.530664 4.78681 -1.01898 0.494639 4.71252 -1.00933 0.478553 
4.62509 -1.0077 0.468493 6.44138 -1.34486 -0.176311 6.5288 -1.3028 -0.0237259 
6.58452 -1.24508 0.092335 6.62556 -1.18567 0.16604 6.64762 -1.11558 0.210645 
6.66285 -1.04687 0.226451 6.68681 -0.989508 0.233174 6.70843 -0.929681 0.240311 
6.74206 -0.880385 0.252785 6.77054 -0.830558 0.248669 6.77718 -0.762287 0.225891 
6.77234 -0.678548 0.177082 6.76913 -0.61349 -0.306619 6.61876 0.285184 -0.45943 
6.66518 0.334895 -0.122426 6.72532 0.201182 -0.586799 6.85217 0.174722 -0.363825 
6.92308 0.134002 -0.207412 6.95792 0.071518 -0.0973168 6.98066 -6.68884e-006 2.02185e-006 
6.78082 -0.461643 0.190789 6.80823 -0.334608 0.289919 7.03031 -0.121201 0.108751 
7.03384 -0.176441 0.135851 7.00714 -0.208266 0.19857 6.94628 -0.199304 0.293877 
6.93988 -0.0925338 0.249605 6.64513 0.327232 0.244905 6.62544 0.293256 0.335037 
6.6062 0.260954 0.43258 6.57852 0.23541 0.524159 6.54013 0.219016 0.610156 
6.51854 0.182762 0.68561 6.52056 0.119447 0.749278 6.52859 0.0455089 0.796835 
6.53302 -0.0309152 0.822511 6.53515 -0.106981 0.831577 6.54307 -0.176698 0.821822 
6.57417 -0.231781 0.78875 6.68742 -0.249705 0.637427 6.7582 -0.217253 0.53121 

LINES 53 734
6 48 57 58 59 60 47 
34 45 68 69 70 71 72 73 74 75 76 77 78 79 80 81 82 83 84 85 86 87 88 89 90 91 92 93 94 95 96 97 98 99 38 
65 43 100 101 102 103 104 105 106 107 108 109 110 111 112 113 114 115 116 117 118 119 120 121 122 123 124 125 126 127 128 129 130 131 132 133 134 135 136 137 138 139 140 141 142 143 144 145 146 147 148 149 150 151 152 153 154 155 156 157 158 159 160 161 162 37 
20 43 163 164 165 166 167 168 169 170 171 172 173 174 175 176 177 178 179 180 41 
17 43 181 182 183 184 185 186 187 188 189 190 191 192 193 194 195 41 
3 42 196 41 
31 40 197 198 199 200 201 202 203 204 205 206 207 208 209 210 211 212 213 214 215 216 217 218 219 220 221 222 223 224 225 32 
40 39 226 227 228 229 230 231 232 233 234 235 236 237 238 239 240 241 242 243 244 245 246 247 248 249 250 251 252 253 254 255 256 257 258 259 260 261 262 263 18 
10 38 264 265 266 267 268 269 270 271 35 
10 38 272 273 274 275 276 277 278 279 33 
3 36 306 33 
6 33 308 309 310 311 19 
4 27 312 313 28 
10 27 314 315 316 317 318 319 320 321 21 
15 32 322 323 324 325 326 327 328 329 330 331 332 333 334 13 
10 30 335 336 337 338 339 340 341 342 18 
5 28 362 363 364 23 
4 27 365 366 23 
3 26 367 22 
8 21 368 369 370 371 372 373 6 
51 25 374 375 376 377 378 379 380 381 382 383 384 385 386 387 388 389 390 391 392 393 394 395 396 397 398 399 400 401 402 403 404 405 406 407 408 409 410 411 412 413 414 415 416 417 418 419 420 421 422 18 
6 24 423 424 425 426 14 
4 24 427 428 17 
9 23 429 430 431 432 433 434 435 21 
5 22 436 437 438 16 
9 22 439 440 441 442 443 444 445 7 
13 21 446 447 448 449 450 451 452 453 454 455 456 2 
9 20 457 458 459 460 461 462 463 13 
3 6 464 16 
10 16 465 466 467 468 469 470 471 472 7 
4 17 473 474 11 
5 17 475 476 477 14 
3 16 478 6 
3 15 479 14 
15 7 480 481 482 483 484 485 486 487 488 489 490 491 492 8 
33 13 493 494 495 496 497 498 499 500 501 502 503 504 505 506 507 508 509 510 511 512 513 514 515 516 517 518 519 520 521 522 523 12 
22 10 524 525 526 527 528 529 530 531 532 533 534 535 536 537 538 539 540 541 542 543 9 
6 11 544 545 546 547 10 
5 11 548 549 550 5 
3 10 551 5 
13 9 552 553 554 555 556 557 558 559 560 561 562 8 
19 9 563 564 565 566 567 568 569 570 571 572 573 574 575 576 577 578 579 5 
14 8 580 581 582 583 584 585 586 587 588 589 590 591 4 
3 7 592 4 
4 6 593 594 2 
7 6 595 596 597 598 599 3 
4 4 600 601 1 
6 3 602 603 604 605 1 
3 3 606 1 
17 49 50 51 52 53 54 55 56 46 61 62 63 64 65 66 67 44 
30 32 280 281 282 283 284 285 286 287 288 289 290 291 292 293 294 295 296 297 298 299 300 301 302 303 304 305 34 307 31 
22 28 354 353 352 351 350 349 348 347 346 345 344 343 29 355 356 357 358 359 360 361 24 
17 2 607 608 609 610 611 612 613 614 615 616 617 618 0 619 620 1 

POINT_DATA 621
SCALARS DY_raw double
LOOKUP_TABLE default
179.911 258.244 250.011 220.146 184.647 191.908 217.195 193.696 164.534 
153.168 194.779 178.132 222.164 205.703 169.174 139.225 212.847 137.322 
164.056 447.136 137.959 165.342 143.072 186.073 131.393 173.513 107.224 
138.955 107.716 154.523 142.416 583.433 177.459 223.488 187.936 162.7 
181.831 129.76 204.903 316.609 366.558 178.272 116.669 200.067 562.468 
145.277 157.252 268.583 177.577 203.225 202.961 212.199 195.168 192.445 
179.473 188.195 157.252 213.598 232.435 245.6 251.605 162.28 145.061 
161.49 180.998 223.405 223.405 343.071 172.548 185.669 233.996 231.644 
231.644 228.381 204.34 204.34 220.712 246.368 247.786 247.345 230.383 
202.571 200.326 207.085 184.938 183.108 205.784 200.661 207.136 210.875 
219.723 187.173 194.368 188.708 190.076 202.648 184.394 187.098 193.99 
183.759 216.382 202.495 227.09 223.959 232.067 253.95 272.86 274.654 
271.241 255.686 247.809 247.809 237.917 236.211 236.211 222.573 212.316 
202.168 209.689 192.843 164.923 171.409 171.409 209.673 217.227 217.227 
194.848 201.925 201.925 200.659 200.659 197.048 174.642 174.642 176.594 
189.16 189.16 235.014 258.35 258.35 265.826 225.585 225.585 176.315 
194.489 201.406 212.927 237.28 246.286 213.902 223.577 216.978 221.298 
232.582 196.181 204.159 196.343 158.315 158.315 146.854 147.229 151.64 
129.76 172.985 176.676 175.04 156.328 136.924 145.899 137.558 132.162 
149.43 163.493 157.16 157.16 190.903 209.463 201.858 219.674 191.683 
205.123 216.319 241.739 218.558 236.312 266.807 266.807 232.662 168.7 
185.399 175.322 212.393 216.802 237.781 212.543 206.914 149.788 248.137 
230.749 251.993 224.58 225.52 217.077 176.267 165.918 197.448 197.448 
187.272 230.238 253.564 244.763 264.13 193.029 173.609 173.609 191.017 
193.926 193.926 195.27 156.076 156.076 133.437 140.781 139.541 145.459 
152.867 296.482 275.361 211.17 179.656 187.898 180.426 163.923 167.882 
166.997 149.294 156.781 195.506 209.626 202.705 209.397 229.539 250.01 
227.89 201.212 180.72 180.72 155.449 150.249 189.784 222.404 217.817 
217.817 188.911 188.911 180.779 201.316 177.239 181.435 176.349 176.349 
156.092 156.059 156.059 204.765 203.824 216.789 188.819 207.403 225.004 
198.099 177.374 190.525 187.135 171.743 180.263 185.178 190.784 197.376 
200.793 209.173 203.715 187.302 180.151 177.161 218.453 218.466 218.466 
225.816 190.263 190.263 181.492 169.634 180.648 179.972 174.584 186.054 
169.298 181.563 185.794 186.674 192.087 187.173 152.39 149.372 147.13 
199.759 258.181 186.823 219.768 271.698 373.42 120.214 108.408 170.436 
195.2 212.829 173.084 184.816 167.204 150.745 170.355 184.092 181.125 
171.681 181.843 208.127 245.525 225.267 238.95 208.832 199.685 207.669 
215.206 212.464 172.55 183.429 185.464 196.169 167.921 126.72 122.257 
149.637 146.581 170.244 175.128 168.041 171.445 179.172 186.095 186.095 
189.382 177.9 167.916 143.674 157.453 147.708 129.173 147.674 135.258 
133.165 153.464 125.875 132.085 142.093 191.75 178.464 130.519 179.692 
168.138 177.251 177.874 180.191 206.619 154.257 143.992 142.048 155.869 
163.825 176.489 176.489 188.812 212.192 219.452 209.466 228.813 195.416 
176.917 197.504 197.189 206.905 238.874 254.322 292.014 297.337 322.127 
275.636 247.139 212.275 233.054 257.081 278.661 257.859 241.389 234.868 
244.652 225.31 247.93 247.93 234.557 246.061 246.061 264.923 275.548 
246.755 225.012 226.327 240.716 221.957 236.662 250.603 210.748 187.341 
141.714 127.612 118.005 139.739 151.77 177.998 193.168 172.554 180.47 
164.58 194.833 182.719 158.835 185.663 203.586 209.025 163.523 173.924 
173.924 166.359 182.812 175.733 173.141 153.604 194.326 213.386 198.602 
226.868 215.329 187.857 193.425 184.179 185.439 205.344 174.946 217.634 
209.739 189.376 200.354 199.093 202.412 223.518 251.363 260.398 260.059 
269.239 258.137 247.926 238.59 235.612 138.227 165.065 151.529 179.239 
178.669 253.631 169.174 159.76 151.35 159.884 180.772 177.614 175.626 
178.606 142.013 130.758 146.71 134.223 141.292 163.921 205.703 192.147 
200.2 208.296 218.964 225.628 222.397 238.679 269.163 265.382 237.02 
264.028 239.707 201.439 201.439 193.315 193.315 181.811 189.39 209.403 
204.345 182.747 182.747 188.239 179.398 163.951 162.08 168.028 168.028 
202.173 202.173 192.611 196.783 200.064 210.655 177.943 151.01 151.01 
136.553 136.553 140.36 155.825 163.345 145.381 137.313 143.208 137.88 
141.794 132.599 153.144 153.144 175.98 159.817 147.537 159.27 231.909 
234.814 218.98 230.992 177.556 162.677 167.421 189.514 174.165 149.315 
159.108 137.524 136.308 140.004 149.057 142.355 148.675 164.203 178.608 
178.444 178.444 154.376 146.346 146.346 138.715 138.715 143.852 153.625 
136.293 163.323 195.839 182.165 250.615 333.726 345.799 283.749 297.517 
237.597 220.15 230.581 199.183 227.32 217.295 197.841 204.704 205.248 
202.022 221.735 263.827 271.074 256.956 221.297 187.724 210.594 220.146 
223.317 247.559 280.348 261.316 236.098 204.692 236.909 172.501 170.08 
192.317 189.267 224.525 224.525 225.411 206.638 191.826 188.171 209.408 

FIELD FieldData 7
DY_minmax 1 621 double
0.152635 0.31713 0.299841 0.237127 0.162582 0.177829 0.23093 0.181583 0.120346 
0.096479 0.183857 0.148901 0.241363 0.206797 0.130089 0.0671981 0.2218 0.0632021 
0.119342 0.713787 0.0645404 0.122042 0.0752777 0.165577 0.0507533 0.1392 0 
0.0666326 0.00103283 0.0993233 0.073899 1 0.147487 0.244144 0.169488 0.116495 
0.156667 0.0473242 0.205116 0.43969 0.54458 0.149194 0.0198337 0.194963 0.955975 
0.0799077 0.105054 0.33884 0.147734 0.201593 0.201039 0.220438 0.184675 0.178957 
0.151717 0.170032 0.105054 0.223376 0.262932 0.290578 0.303187 0.115613 0.0794542 
0.113953 0.15492 0.24397 0.24397 0.495258 0.137175 0.164728 0.266211 0.26127 
0.26127 0.25442 0.203936 0.203936 0.238315 0.29219 0.295167 0.294243 0.258623 
0.200221 0.195506 0.2097 0.163193 0.15935 0.206967 0.196211 0.209806 0.217659 
0.236237 0.167885 0.182995 0.171109 0.173982 0.200381 0.162051 0.167728 0.182201 
0.160716 0.229223 0.20006 0.251709 0.245134 0.262161 0.308113 0.347823 0.351588 
0.344423 0.311757 0.295217 0.295217 0.274445 0.270862 0.270862 0.242223 0.220685 
0.199374 0.215168 0.179792 0.121163 0.134782 0.134782 0.215135 0.230996 0.230996 
0.184002 0.198863 0.198863 0.196206 0.196206 0.188623 0.141572 0.141572 0.145671 
0.172059 0.172059 0.268349 0.317351 0.317351 0.333051 0.248548 0.248548 0.145085 
0.183249 0.197774 0.221967 0.273106 0.292018 0.224015 0.244332 0.230474 0.239546 
0.26324 0.186802 0.203555 0.187143 0.107286 0.107286 0.0832187 0.0840057 0.0932691 
0.0473242 0.138092 0.145842 0.142408 0.103113 0.0623664 0.0812139 0.0636986 0.052367 
0.0886294 0.118159 0.104862 0.104862 0.175718 0.214693 0.198723 0.236135 0.177356 
0.205579 0.22909 0.282471 0.233792 0.271074 0.335111 0.335111 0.263409 0.129095 
0.164161 0.142999 0.220846 0.230105 0.274158 0.221162 0.20934 0.0893811 0.295905 
0.259392 0.304002 0.246438 0.248411 0.230681 0.144984 0.123252 0.189463 0.189463 
0.168094 0.258319 0.307302 0.28882 0.329489 0.180183 0.139402 0.139402 0.175959 
0.182067 0.182067 0.184889 0.102585 0.102585 0.0550455 0.0704673 0.0678627 0.0802888 
0.0958455 0.397426 0.353073 0.218277 0.152101 0.169408 0.153718 0.119062 0.127377 
0.125518 0.0883435 0.104064 0.185385 0.215036 0.200502 0.214555 0.256852 0.299839 
0.253389 0.197367 0.154335 0.154335 0.101269 0.0903487 0.173368 0.241868 0.232236 
0.232236 0.171536 0.171536 0.154459 0.197585 0.147026 0.155837 0.145156 0.145156 
0.102618 0.102548 0.102548 0.204829 0.202853 0.230078 0.171342 0.210367 0.247329 
0.190829 0.147309 0.174925 0.167806 0.135484 0.153376 0.163697 0.175469 0.189312 
0.196486 0.214083 0.202624 0.168158 0.15314 0.146862 0.233571 0.233598 0.233598 
0.249033 0.174375 0.174375 0.155957 0.131056 0.154183 0.152764 0.141451 0.165535 
0.130349 0.156106 0.16499 0.166838 0.178205 0.167885 0.0948435 0.0885059 0.0837978 
0.194314 0.316997 0.167151 0.236333 0.345381 0.558989 0.0272765 0.00248617 0.13274 
0.184743 0.221761 0.1383 0.162936 0.125953 0.0913905 0.132568 0.161417 0.155185 
0.135354 0.156693 0.211888 0.29042 0.247881 0.276614 0.213368 0.194159 0.210926 
0.226752 0.220994 0.137178 0.160025 0.164298 0.186776 0.127459 0.0409397 0.0315679 
0.0890632 0.0826456 0.132337 0.142593 0.127709 0.134858 0.151084 0.165623 0.165623 
0.172524 0.148412 0.127448 0.0765416 0.105477 0.0850116 0.0460895 0.084941 0.0588691 
0.054474 0.0971 0.0391645 0.0522062 0.0732213 0.177497 0.149598 0.0489173 0.152177 
0.127913 0.147051 0.148358 0.153224 0.208721 0.0987639 0.0772089 0.0731277 0.102149 
0.118857 0.145451 0.145451 0.171328 0.220424 0.23567 0.214699 0.255327 0.185195 
0.146348 0.189581 0.188919 0.20932 0.276455 0.308894 0.388043 0.399222 0.451277 
0.353652 0.29381 0.220599 0.264232 0.314686 0.360002 0.31632 0.281735 0.268042 
0.288588 0.247971 0.295471 0.295471 0.267388 0.291545 0.291545 0.331155 0.353467 
0.293004 0.247346 0.250105 0.280322 0.240929 0.271808 0.301083 0.217391 0.168239 
0.0724262 0.0428123 0.022638 0.0682788 0.0935418 0.148619 0.180475 0.137188 0.15381 
0.120443 0.183972 0.158532 0.108378 0.164716 0.202351 0.213774 0.118224 0.140064 
0.140064 0.124177 0.158727 0.143863 0.13842 0.0973936 0.182908 0.222931 0.191886 
0.251243 0.227012 0.169323 0.181014 0.161599 0.164245 0.206043 0.142211 0.231851 
0.215272 0.172513 0.195565 0.192917 0.199887 0.244206 0.302679 0.321652 0.32094 
0.340219 0.316904 0.295462 0.275857 0.269603 0.0651028 0.121461 0.0930354 0.151224 
0.150028 0.307441 0.130089 0.11032 0.0926612 0.110582 0.154445 0.147812 0.143638 
0.149896 0.0730538 0.0494193 0.0829158 0.0566958 0.0715389 0.119059 0.206797 0.178332 
0.195241 0.212242 0.234645 0.248638 0.241854 0.276045 0.340058 0.332118 0.272561 
0.329276 0.278203 0.197843 0.197843 0.180784 0.180784 0.156625 0.172542 0.214566 
0.203946 0.158592 0.158592 0.170125 0.151559 0.119121 0.115192 0.127683 0.127683 
0.199384 0.199384 0.179306 0.188066 0.194956 0.217197 0.148504 0.0919459 0.0919459 
0.0615876 0.0615876 0.0695816 0.102058 0.117848 0.0801259 0.0631842 0.0755623 0.0643739 
0.0725927 0.0532844 0.0964284 0.0964284 0.144382 0.11044 0.0846528 0.109292 0.261828 
0.267928 0.234678 0.259902 0.14769 0.116446 0.126409 0.172802 0.140571 0.0883861 
0.108952 0.0636277 0.0610736 0.0688352 0.0878456 0.0737726 0.0870436 0.119652 0.1499 
0.149556 0.149556 0.0990142 0.0821523 0.0821523 0.0661287 0.0661287 0.0769146 0.097438 