# vtk DataFile Version 3.0
vtk output
ASCII
DATASET POLYDATA
POINTS 635 float
1.27754 1.50278 1.38821 1.83803 1.43501 1.48213 0.924874 0.139661 1.21111 
0.88408 1.84218 0.881215 -0.188971 0.862235 0.734326 2.00723 2.247 0.426093 
2.84294 0.75445 0.491156 2.69141 1.18171 0.477536 2.90513 1.25731 0.471395 
1.98858 2.41705 0.22728 3.11264 1.31797 0.0655812 4.87849 -0.150576 0.0930782 
-0.520487 0.0457904 -0.164107 -0.6129 0.955507 -0.0632381 2.29634 -0.745025 -0.0448079 
4.34088 -0.446116 -0.0876986 4.252 0.682174 -0.128493 1.3921 -1.28339 -0.21082 
3.24947 0.835808 -0.368888 2.98577 1.88264 -0.353885 4.47758 0.628306 -0.330143 
5.19694 0.397648 -0.46612 0.512445 -1.30345 -0.530027 -0.568808 0.825675 -0.939789 
1.13741 -1.27805 -0.899946 2.84302 2.17297 -0.762849 0.552201 2.23315 -0.929724 
2.93157 2.22621 -0.966377 0.815259 -1.35736 -0.999762 1.89878 -1.10137 -1.02614 
1.37707 -1.12258 -1.21742 2.79775 -0.181613 -1.27463 0.237532 2.07444 -1.5194 
0.865899 -1.17789 -1.70783 2.54698 -0.424493 -1.66199 3.0693 1.17457 -1.72986 
1.71966 1.93972 -2.17121 1.95328 2.04311 -2.04526 1.46328 1.88075 -2.13167 
1.92886 1.83376 -2.27057 2.26102 1.66706 -2.24355 1.42019 1.6751 -2.46063 
2.3749 1.68768 -2.33876 0.474613 -0.829454 -2.41536 1.3779 -0.67448 -2.5686 
1.03948 1.56724 -2.5137 2.36901 0.491218 -2.49411 0.583239 1.28162 -2.69611 
1.39497 1.41035 -2.71352 1.05061 0.266696 -2.86559 1.58697 1.34743 -2.91431 
1.50003 1.37386 -2.81016 1.11912 0.262859 -2.86651 1.17925 0.271652 -2.86777 
1.24224 0.276139 -2.86892 1.30137 0.286449 -2.87022 1.36436 0.290935 -2.87136 
1.42449 0.299728 -2.87263 1.49294 0.295984 -2.87355 1.56044 0.293672 -2.87451 
1.61499 0.310872 -2.876 1.66854 0.329587 -2.87753 1.72951 0.337574 -2.87136 
1.78233 0.358736 -2.85073 1.83098 0.387533 -2.80808 1.88432 0.40971 -2.75784 
1.94687 0.417556 -2.71462 2.00622 0.428878 -2.69373 2.0682 0.435341 -2.68752 
2.12085 0.455858 -2.68168 2.16922 0.483734 -2.66124 2.22351 0.504026 -2.61836 
2.29294 0.502403 -2.56007 1.40167 1.54968 -2.59651 1.27652 1.45664 -2.61703 
1.19382 1.4912 -2.55032 1.12937 1.52928 -2.52109 0.560552 1.21818 -2.66373 
0.529546 1.16773 -2.6243 0.500266 1.11424 -2.59219 0.461201 1.07414 -2.58268 
0.41627 1.04153 -2.59559 0.371454 1.0092 -2.6011 0.332329 0.969194 -2.59158 
0.301982 0.917303 -2.55951 0.264211 0.876602 -2.52775 0.225491 0.837333 -2.49603 
0.189454 0.79312 -2.479 0.142973 0.763749 -2.47718 0.113956 0.706707 -2.49683 
0.0956971 0.632098 -2.53824 0.0792853 0.554254 -2.58698 0.0621534 0.478397 -2.62093 
0.0390619 0.413771 -2.61816 0.00265622 0.371462 -2.57895 -0.0334285 0.329769 -2.52493 
-0.0542221 0.267867 -2.47782 -0.060504 0.200802 -2.45298 -0.0533161 0.139942 -2.4434 
-0.0587001 0.0706236 -2.43331 -0.0721778 -0.00365468 -2.40809 -0.0867365 -0.0780466 -2.3606 
-0.099664 -0.151157 -2.30577 -0.102774 -0.217967 -2.25874 -0.0836636 -0.270661 -2.23483 
-0.0549426 -0.31739 -2.22612 -0.0262444 -0.364336 -2.22481 -0.00577908 -0.416734 -2.22317 
0.00205447 -0.477498 -2.22102 0.0224281 -0.529957 -2.21937 0.0496928 -0.577852 -2.218 
0.0717668 -0.629185 -2.21643 0.0912488 -0.682234 -2.21475 0.14581 -0.712049 -2.21448 
0.217112 -0.730777 -2.21488 0.283116 -0.753214 -2.22249 0.336319 -0.784731 -2.25179 
0.40158 -0.809266 -2.3186 0.554449 1.33131 -2.59374 0.525544 1.38073 -2.49876 
0.496639 1.43014 -2.40378 0.46794 1.4799 -2.30141 0.440735 1.53044 -2.2065 
0.423035 1.58667 -2.13419 0.42602 1.65601 -2.08494 0.430646 1.72663 -2.02834 
0.422878 1.78944 -1.95643 0.418228 1.85493 -1.86243 0.399347 1.91098 -1.76786 
0.371967 1.96141 -1.67295 0.341101 2.00892 -1.60011 0.299958 2.04903 -1.54907 
0.650732 1.27977 -2.68967 0.704504 1.2995 -2.66901 0.751082 1.33142 -2.62645 
0.791188 1.37355 -2.57674 0.822738 1.42812 -2.53479 0.862404 1.46924 -2.51471 
0.908784 1.50167 -2.50922 0.964804 1.53337 -2.51128 1.47625 -0.672392 -2.50596 
1.54727 -0.660604 -2.46302 1.611 -0.65358 -2.4445 1.6637 -0.63315 -2.44114 
1.71172 -0.606104 -2.4429 1.76538 -0.587112 -2.43702 1.83322 -0.588133 -2.40838 
1.90163 -0.587772 -2.34274 1.95661 -0.565368 -2.24805 2.00506 -0.533118 -2.15363 
2.05204 -0.500458 -2.08887 2.09951 -0.470329 -2.05366 2.15234 -0.449167 -2.03303 
2.21466 -0.441875 -2.00462 2.27418 -0.430367 -1.97632 2.33786 -0.42422 -1.93305 
2.39897 -0.413306 -1.87509 2.47004 -0.415153 -1.77976 1.27677 -0.648251 -2.62238 
1.19749 -0.639236 -2.66597 1.13469 -0.646292 -2.68203 1.06613 -0.642152 -2.67617 
0.997965 -0.637486 -2.65305 0.938062 -0.645726 -2.63699 0.875073 -0.650213 -2.63585 
0.815717 -0.661076 -2.64934 0.752559 -0.666207 -2.663 0.693723 -0.676055 -2.64689 
0.632611 -0.680672 -2.60129 0.582119 -0.700399 -2.54046 0.542501 -0.737415 -2.49398 
0.512208 -0.788937 -2.45452 2.40194 0.451484 -2.33004 2.43449 0.410705 -2.19557 
2.46799 0.369547 -2.09818 2.50958 0.333349 -2.01593 2.56389 0.305573 -1.93418 
2.60731 0.270783 -1.8446 2.65204 0.236596 -1.76987 2.71651 0.217394 -1.71085 
2.78395 0.214184 -1.6673 2.83714 0.236391 -1.61706 2.87831 0.276912 -1.56731 
2.90998 0.331754 -1.51796 2.94889 0.375682 -1.46831 2.98714 0.421956 -1.39651 
3.01297 0.488757 -1.29561 3.03909 0.556019 -1.17991 3.07903 0.602437 -1.06366 
3.12448 0.640533 -0.949022 3.16624 0.687854 -0.803167 3.20207 0.757849 -0.608027 
2.39319 0.558251 -2.43026 2.42558 0.612018 -2.38088 2.45571 0.667822 -2.35378 
2.49394 0.710082 -2.34854 2.5324 0.752895 -2.3285 2.56294 0.809444 -2.27919 
2.59685 0.862702 -2.20016 2.62791 0.920266 -2.12125 2.66824 0.963408 -2.04935 
2.71398 0.9975 -1.99202 2.7615 1.02799 -1.94942 2.81438 1.04952 -1.92139 
2.87563 1.05842 -1.89302 2.92874 1.0805 -1.8502 2.97644 1.11118 -1.80018 
3.02302 1.14311 -1.75762 1.06227 1.66571 -2.35464 1.08867 1.74134 -2.23185 
1.12811 1.78704 -2.16004 1.17329 1.82025 -2.13232 1.21923 1.85088 -2.12677 
1.26619 1.87953 -2.12857 1.31973 1.89826 -2.1301 1.38824 1.89442 -2.13102 
1.3576 -0.766953 -2.5673 1.3335 -0.837057 -2.54207 1.29579 -0.878331 -2.49793 
1.25066 -0.907256 -2.45414 1.19865 -0.926941 -2.43036 1.13803 -0.93455 -2.42172 
1.08679 -0.956304 -2.41269 1.04683 -0.99415 -2.38842 1.01671 -1.04504 -2.33416 
0.978819 -1.08218 -2.24692 0.936693 -1.11002 -2.11179 0.897563 -1.13945 -1.92846 
0.474475 -0.892089 -2.28698 0.495138 -0.941346 -2.17426 0.526707 -0.984184 -2.0916 
0.567956 -1.02121 -2.03155 0.623214 -1.04936 -1.98688 0.674457 -1.07993 -1.93092 
0.732325 -1.10697 -1.86409 0.789322 -1.14138 -1.78585 2.32101 1.66541 -2.2889 
2.02854 1.80258 -2.27343 2.10397 1.77595 -2.25507 2.15751 1.74347 -2.2275 
2.21261 1.7083 -2.21839 1.81933 1.86945 -2.22449 1.44296 1.78693 -2.30206 
1.94526 1.9387 -2.16479 1.94549 1.93926 -2.14998 1.80309 2.02484 -2.08179 
1.87331 2.0587 -2.03965 1.60932 1.90003 -2.1816 1.53358 1.87786 -2.16848 
1.96908 2.1275 -1.9041 2.00621 2.17748 -1.79904 2.0591 2.20125 -1.73403 
2.12838 2.20008 -1.67205 2.20249 2.19229 -1.59877 2.26679 2.2002 -1.51111 
2.31318 2.23421 -1.43896 2.37046 2.2507 -1.38115 2.42878 2.26188 -1.33058 
2.48963 2.25299 -1.24965 2.54406 2.22861 -1.13096 2.61248 2.21192 -0.990547 
2.68893 2.19981 -0.872663 2.76621 2.18705 -0.799255 2.53231 -0.494172 -1.53312 
2.51089 -0.554566 -1.41933 2.47398 -0.593875 -1.34316 2.43092 -0.626153 -1.30421 
2.39186 -0.666251 -1.29469 2.36123 -0.718611 -1.27744 2.3225 -0.757881 -1.24572 
2.27927 -0.790343 -1.21418 2.2402 -0.830442 -1.20466 2.20923 -0.883633 -1.2096 
2.1701 -0.92364 -1.20009 2.12591 -0.954218 -1.1612 2.08095 -0.982727 -1.10753 
2.03581 -1.01142 -1.06128 1.99033 -1.04094 -1.03723 1.94461 -1.07102 -1.02798 
2.5943 -0.390543 -1.56761 2.64121 -0.357331 -1.49545 2.68678 -0.323433 -1.44553 
2.72682 -0.281213 -1.39584 2.75855 -0.226003 -1.33909 0.863904 -1.25925 -1.4564 
0.84826 -1.32093 -1.22033 0.98553 -1.21681 -1.3079 1.3085 -1.12086 -1.10008 
1.23732 -1.16651 -0.994627 0.742079 -1.33876 -0.870816 0.672997 -1.32795 -0.74907 
0.604559 -1.32583 -0.636886 0.89676 -1.36401 -0.891858 0.996671 -1.34748 -0.858097 
-0.57222 0.525242 -0.95668 -0.582949 0.370242 -0.93886 -0.595135 0.285832 -0.871754 
-0.598628 0.220001 -0.752604 -0.586036 0.165038 -0.592585 -0.567929 0.105414 -0.390474 
2.88724 2.19945 -0.86831 0.577973 2.29958 -0.836228 0.617174 2.34397 -0.771781 
0.662389 2.3775 -0.736665 0.707549 2.41066 -0.708951 0.747534 2.45252 -0.666659 
0.780277 2.50574 -0.617254 0.82685 2.53767 -0.574694 0.888098 2.54658 -0.546323 
0.947568 2.55817 -0.518025 1.01119 2.56441 -0.474768 1.07112 2.57666 -0.424253 
1.13491 2.58308 -0.373591 1.19579 2.59344 -0.330446 1.26611 2.59003 -0.279517 
1.34101 2.57971 -0.228391 1.41127 2.57593 -0.184863 1.47299 2.58413 -0.156473 
1.54309 2.5797 -0.127741 1.61894 2.5675 -0.0839848 1.69591 2.55406 -0.0327741 
1.77291 2.54026 0.0147268 1.85017 2.52369 0.0586338 1.92726 2.49098 0.125385 
-0.517215 1.07046 -0.874118 -0.487903 1.20904 -0.786346 -0.468904 1.29785 -0.681722 
-0.450824 1.3762 -0.593006 -0.426929 1.44276 -0.543972 -0.389658 1.48692 -0.531368 
-0.351207 1.52974 -0.511327 -0.319596 1.58467 -0.461978 -0.279322 1.62745 -0.397478 
-0.233987 1.66079 -0.362367 -0.188449 1.69068 -0.379013 -0.143194 1.71965 -0.417868 
-0.0977102 1.74918 -0.441915 -0.0514832 1.78073 -0.414158 -0.00568778 1.81518 -0.349431 
0.0349303 1.85878 -0.262739 0.0668852 1.91455 -0.191178 0.105972 1.95866 -0.134125 
0.144829 2.00222 -0.0918792 0.176615 2.05734 -0.0351241 0.218071 2.09878 0.0368243 
0.270859 2.12404 0.124014 0.333887 2.13322 0.20425 0.393564 2.1437 0.277063 
0.454266 2.13439 0.3506 0.506433 2.10751 0.432352 0.562403 2.08116 0.521421 
0.604088 2.04503 0.603682 0.637242 2.00304 0.678868 0.668856 1.95983 0.746717 
0.701873 1.91735 0.807101 0.744592 1.88089 0.852277 0.80953 1.85855 0.874343 
2.84253 2.1067 -0.760365 2.86991 2.05908 -0.751593 2.91321 2.02261 -0.721248 
2.94028 1.97659 -0.645817 2.97541 1.93731 -0.518861 1.28414 -1.28057 -0.55027 
-0.612049 0.780673 -0.609759 -0.633724 0.80701 -0.346491 -0.628257 0.876545 -0.174212 
0.437873 -1.27479 -0.658446 0.361565 -1.25624 -0.746918 0.285009 -1.24125 -0.785824 
0.21034 -1.22497 -0.795162 0.145746 -1.2018 -0.795026 0.103717 -1.16369 -0.795798 
0.0715273 -1.11905 -0.796967 0.0394296 -1.07436 -0.79814 -0.000900256 -1.03512 -0.798981 
-0.0540604 -1.00458 -0.806714 -0.0962362 -0.966958 -0.822288 -0.138435 -0.929557 -0.84527 
-0.189979 -0.897943 -0.853068 -0.220262 -0.851847 -0.846905 -0.229376 -0.791329 -0.826787 
-0.249604 -0.738372 -0.813631 -0.276638 -0.689924 -0.80019 -0.298399 -0.637983 -0.786972 
-0.315829 -0.582972 -0.766519 -0.358735 -0.545237 -0.759848 -0.397458 -0.504931 -0.760754 
-0.429372 -0.460115 -0.761934 -0.45931 -0.413189 -0.733569 -0.48741 -0.364644 -0.690462 
-0.507187 -0.310586 -0.647699 -0.514478 -0.24866 -0.620246 -0.53262 -0.193605 -0.58248 
-0.548277 -0.134933 -0.500412 -0.540803 -0.0544783 -0.355274 5.28868 0.378619 -0.40259 
5.35109 0.350665 -0.320956 5.37437 0.301656 -0.232995 5.40575 0.258314 -0.167619 
5.44506 0.221711 -0.129791 5.44492 0.170894 -0.0982347 5.41741 0.122828 -0.0515349 
5.38864 0.0702762 0.00277816 5.35015 0.0315602 0.0492988 5.30574 0.000428531 0.0733896 
5.26008 -0.0297398 0.0826416 5.21425 -0.0600935 0.0844872 5.16848 -0.0900788 0.0937342 
5.12181 -0.118272 0.110334 5.06968 -0.137773 0.13411 5.00788 -0.143599 0.142702 
4.94757 -0.153029 0.129169 5.16464 0.290762 -0.612367 5.14115 0.20283 -0.727333 
5.1173 0.133148 -0.786139 5.08441 0.0821163 -0.801015 5.04876 0.0391098 -0.754379 
4.99617 0.0247907 -0.656649 4.94836 0.00686968 -0.49956 4.91211 -0.0266812 -0.312402 
4.89201 -0.0836635 -0.109796 -0.615718 0.930706 -0.49373 0.543999 -1.21385 -0.299113 
0.586564 -1.15809 -0.101694 0.633943 -1.1191 0.0567447 0.681696 -1.08363 0.185645 
0.728126 -1.04788 0.287384 0.769581 -1.00644 0.359322 0.807901 -0.96162 0.408945 
0.864028 -0.943643 0.459294 0.923842 -0.931222 0.509805 0.993035 -0.932938 0.560688 
1.06122 -0.93359 0.604131 1.11658 -0.914454 0.654449 1.17094 -0.893802 0.704736 
1.23253 -0.884515 0.74791 1.28636 -0.864878 0.768579 1.33997 -0.845794 0.77445 
1.40087 -0.838167 0.77322 1.45425 -0.819637 0.764284 1.50734 -0.802028 0.733148 
1.56834 -0.798138 0.672747 1.62619 -0.790412 0.59743 1.68731 -0.786246 0.544434 
1.74057 -0.768452 0.520704 1.79496 -0.751898 0.50441 1.86272 -0.757754 0.451685 
1.93638 -0.774749 0.362215 2.00993 -0.79202 0.265341 2.0774 -0.798346 0.197816 
2.13043 -0.781097 0.159278 2.17794 -0.755526 0.120515 2.23046 -0.7393 0.0523792 
5.1192 0.44683 -0.335786 5.04332 0.476417 -0.231929 4.96779 0.495512 -0.174635 
4.89164 0.511243 -0.169098 4.81472 0.525049 -0.212897 4.73744 0.537809 -0.286315 
4.66156 0.551297 -0.367189 4.59457 0.571682 -0.411388 4.54122 0.602701 -0.396898 
4.42541 0.617161 -0.17323 4.36003 0.625802 -0.0761697 4.2966 0.647495 -0.0685803 
4.44401 0.669619 -0.420129 4.40153 0.706176 -0.457907 4.33988 0.727599 -0.413265 
4.28251 0.725533 -0.293681 2.92382 1.91217 -0.183518 2.87415 1.94924 -0.0358617 
2.81972 1.98235 0.0823624 2.77054 2.01794 0.163342 2.71507 2.04855 0.21495 
2.66336 2.08086 0.236783 2.59737 2.1033 0.244384 2.52436 2.1209 0.244859 
2.45828 2.14329 0.252463 2.40495 2.17452 0.274361 2.33941 2.19814 0.318972 
2.26666 2.215 0.371373 2.19782 2.22236 0.420345 2.13644 2.21599 0.451189 
2.06615 2.22139 0.459494 3.01608 1.83676 -0.35264 3.04487 1.78987 -0.351334 
3.06533 1.73747 -0.349693 3.07308 1.67665 -0.34754 3.09196 1.6234 -0.338426 
3.10966 1.56997 -0.307049 3.10842 1.50501 -0.237887 3.10612 1.44014 -0.139048 
3.11503 1.38289 -0.0332614 3.34143 0.807832 -0.352585 3.40453 0.77521 -0.357909 
3.47166 0.751495 -0.395134 3.54551 0.733174 -0.445636 3.61989 0.717596 -0.490684 
3.68918 0.711238 -0.51376 3.75033 0.718047 -0.522379 3.82002 0.71288 -0.515851 
3.89458 0.701736 -0.486937 3.96518 0.69879 -0.421207 4.02794 0.709472 -0.326201 
4.09907 0.707533 -0.230853 4.17526 0.696165 -0.164896 3.25741 0.931052 -0.348481 
3.24087 0.995018 -0.326516 3.21292 1.04448 -0.298277 3.18344 1.09222 -0.253276 
3.15557 1.14132 -0.19537 3.13625 1.19648 -0.122992 3.12988 1.26062 -0.0363277 
3.2004 0.78824 -0.149501 3.14894 0.765212 0.0393413 3.08987 0.761069 0.173862 
3.0376 0.745388 0.258657 2.9839 0.730493 0.319355 2.91648 0.737179 0.394282 
4.3943 -0.427217 -0.0892338 4.45408 -0.41789 -0.0905098 4.49991 -0.387537 -0.0923553 
4.53185 -0.336248 -0.0947679 4.57132 -0.295862 -0.0894737 4.6175 -0.264679 -0.0691175 
4.67054 -0.242504 -0.0262929 4.73214 -0.232773 0.0242904 4.78524 -0.21069 0.0671175 
4.83248 -0.181115 0.0875172 -0.536307 0.943895 0.0694469 -0.467946 0.92683 0.202473 
-0.412218 0.901398 0.335998 -0.343857 0.884334 0.469015 -0.267172 0.872782 0.601706 
-0.42007 0.0528586 0.0317625 -0.346924 0.069534 0.20793 -0.280059 0.07993 0.359709 
-0.218884 0.0952241 0.489166 -0.1553 0.10556 0.598994 -0.101384 0.12912 0.68624 
-0.0522131 0.158932 0.758493 0.00248474 0.180414 0.830972 0.0711861 0.181238 0.911432 
0.141014 0.180812 0.999318 0.202294 0.192373 1.07208 0.266202 0.199072 1.13014 
0.325956 0.211133 1.17324 0.388677 0.219172 1.22386 0.443091 0.239733 1.27415 
0.498397 0.2585 1.31707 0.567307 0.255411 1.33835 0.642314 0.241583 1.3377 
0.716612 0.224389 1.31743 0.783313 0.200863 1.28267 0.84272 0.167714 1.24592 
3.04579 1.32558 0.170119 2.98834 1.3186 0.267649 2.93551 1.30464 0.36537 
2.00059 2.31984 0.341927 2.83775 1.25944 0.472361 2.78426 1.24063 0.473894 
2.7373 1.21198 0.475693 2.88878 1.17892 0.41527 2.87286 1.10143 0.381343 
2.85904 1.02632 0.384365 2.854 0.957831 0.416658 2.86171 0.897986 0.455845 
2.85655 0.829221 0.480734 2.79835 0.722674 0.500452 2.75946 0.68322 0.524768 
2.72928 0.631975 0.571628 2.69091 0.593528 0.625562 2.6479 0.561618 0.671899 
2.60907 0.522072 0.696217 2.57843 0.469712 0.713482 2.53954 0.430258 0.737799 
2.49547 0.399956 0.784091 2.4505 0.371448 0.837757 2.40542 0.342662 0.884008 
2.36101 0.311531 0.908099 2.322 0.271792 0.925022 2.29148 0.219717 0.94968 
2.25281 0.180816 0.988804 2.20851 0.149961 1.0203 2.16274 0.119516 1.02215 
2.11645 0.0880556 0.994387 2.07016 0.0565952 0.966627 2.02434 0.0262416 0.968472 
1.97902 -0.00263713 1.00732 1.93293 -0.029446 1.06093 1.8812 -0.0482095 1.10691 
1.8207 -0.0550902 1.13035 1.76732 -0.0736205 1.13929 1.71389 -0.0920675 1.14822 
1.65231 -0.0973318 1.17161 1.59394 -0.106073 1.21732 1.53181 -0.108714 1.27028 
1.47338 -0.117364 1.31599 1.41082 -0.12096 1.33933 1.35235 -0.12832 1.34793 
1.29271 -0.116298 1.34841 1.2402 -0.0874393 1.34814 1.17567 -0.064355 1.34828 
1.11269 -0.0401143 1.34835 1.07057 -0.00210853 1.34264 1.03628 0.0422301 1.32175 
0.9923 0.0889273 1.2762 0.954347 0.239723 1.17478 0.975651 0.322398 1.14912 
0.998274 0.389589 1.13637 1.02866 0.44319 1.13143 1.05075 0.509333 1.12861 
1.06837 0.582199 1.12562 1.09153 0.646734 1.12284 1.12851 0.690426 1.12064 
1.16549 0.734117 1.11843 1.18858 0.798743 1.11566 1.20516 0.873434 1.12002 
1.21929 0.949219 1.13921 1.22387 1.0194 1.18099 1.20761 1.07599 1.23103 
1.19115 1.13225 1.27366 1.19377 1.20054 1.29331 1.19774 1.26919 1.29809 
1.19167 1.32896 1.29966 1.20435 1.39027 1.312 1.23731 1.44758 1.3427 
1.33797 1.50037 1.43555 1.41005 1.48415 1.46839 1.47942 1.47781 1.47497 
1.54029 1.48408 1.45526 1.60763 1.47581 1.41004 1.67211 1.45381 1.36538 
1.72435 1.42464 1.35084 1.78367 1.4158 1.39472 
LINES 55 754
3 50 51 48 
23 49 52 53 54 55 56 57 58 59 60 61 62 63 64 65 66 67 68 69 70 71 72 46 
5 48 74 75 76 45 
43 47 77 78 79 80 81 82 83 84 85 86 87 88 89 90 91 92 93 94 95 96 97 98 99 100 101 102 103 104 105 106 107 108 109 110 111 112 113 114 115 116 117 43 
16 47 118 119 120 121 122 123 124 125 126 127 128 129 130 131 32 
10 47 132 133 134 135 136 137 138 139 45 
20 44 140 141 142 143 144 145 146 147 148 149 150 151 152 153 154 155 156 157 34 
16 44 158 159 160 161 162 163 164 165 166 167 168 169 170 171 43 
22 46 172 173 174 175 176 177 178 179 180 181 182 183 184 185 186 187 188 189 190 191 18 
18 46 192 193 194 195 196 197 198 199 200 201 202 203 204 205 206 207 35 
10 45 208 209 210 211 212 213 214 215 38 
14 44 216 217 218 219 220 221 222 223 224 225 226 227 33 
10 43 228 229 230 231 232 233 234 235 33 
3 39 241 36 
3 37 243 39 
3 37 244 39 
4 36 245 246 37 
4 36 247 248 38 
16 37 249 250 251 252 253 254 255 256 257 258 259 260 261 262 25 
18 34 263 264 265 266 267 268 269 270 271 272 273 274 275 276 277 278 29 
7 34 279 280 281 282 283 31 
4 33 284 285 28 
3 33 286 24 
4 30 287 288 24 
5 28 289 290 291 22 
4 28 292 293 24 
8 23 294 295 296 297 298 299 12 
3 27 300 25 
35 23 324 325 326 327 328 329 330 331 332 333 334 335 336 337 338 339 340 341 342 343 344 345 346 347 348 349 350 351 352 353 354 355 356 3 
7 25 357 358 359 360 361 19 
3 24 362 17 
5 23 363 364 365 13 
31 22 366 367 368 369 370 371 372 373 374 375 376 377 378 379 380 381 382 383 384 385 386 387 388 389 390 391 392 393 394 12 
19 21 395 396 397 398 399 400 401 402 403 404 405 406 407 408 409 410 411 11 
11 21 412 413 414 415 416 417 418 419 420 11 
3 23 421 13 
33 22 422 423 424 425 426 427 428 429 430 431 432 433 434 435 436 437 438 439 440 441 442 443 444 445 446 447 448 449 450 451 452 14 
11 21 453 454 455 456 457 458 459 460 461 20 
5 20 462 463 464 16 
6 20 465 466 467 468 16 
11 19 484 485 486 487 488 489 490 491 492 10 
15 18 493 494 495 496 497 498 499 500 501 502 503 504 505 16 
9 18 506 507 508 509 510 511 512 10 
8 18 513 514 515 516 517 518 6 
12 15 519 520 521 522 523 524 525 526 527 528 11 
7 13 529 530 531 532 533 4 
23 12 534 535 536 537 538 539 540 541 542 543 544 545 546 547 548 549 550 551 552 553 554 2 
5 10 555 556 557 8 
5 8 559 560 561 7 
8 8 562 563 564 565 566 567 6 
41 6 568 569 570 571 572 573 574 575 576 577 578 579 580 581 582 583 584 585 586 587 588 589 590 591 592 593 594 595 596 597 598 599 600 601 602 603 604 605 606 2 
5 48 73 41 242 38 
8 42 236 40 240 239 238 237 39 
43 19 469 470 471 472 473 474 475 476 477 478 479 480 481 482 483 5 558 9 323 322 321 320 319 318 317 316 315 314 313 312 311 310 309 308 307 306 305 304 303 302 301 26 
31 2 607 608 609 610 611 612 613 614 615 616 617 618 619 620 621 622 623 624 625 626 0 627 628 629 630 631 632 633 634 1 

POINT_DATA 635
SCALARS DY_raw double
LOOKUP_TABLE default
698.803 824.642 712.582 660.882 690.082 692.165 863.547 1414.11 894.744 
689.673 862.119 576.534 998.588 1143.71 309.789 900.214 996.483 645.7 
813.954 633.584 816.473 628.444 657.192 815.051 557.621 644.697 598.53 
370.554 618.77 668.608 325.881 747.466 849.984 573.124 439.216 468.259 
547.177 436.699 758.602 514.698 375.628 605.978 316.987 526.591 634.858 
607.94 528.657 479.857 493.356 1029.82 366.517 427.461 832.419 753.762 
669.901 592.689 592.689 530.064 530.064 511.406 566.384 540.141 547.166 
507.714 533.769 559.564 629.393 561.707 529.689 502.898 507.951 508.57 
521.235 594.051 660.025 731.441 653.54 549.357 564.063 580.91 621.841 
545.831 614.819 651.616 651.616 856.989 809.383 857.585 964.689 807.999 
810.055 909.402 781.989 810.354 862.922 939.838 894.296 890.184 782.772 
806.541 653.481 716.1 773.025 783.927 783.927 847.326 745.468 745.468 
719.891 728.562 797.549 786.384 774.629 742.316 724.786 666.617 666.895 
571.486 585.449 592.261 644.131 588.999 515.106 559.389 540.116 546.783 
494.706 508.335 554.404 592.215 683.541 730.901 479.33 523.976 558.977 
616.583 571.01 600.737 582.038 596 639.783 645.584 619.78 605.353 
583.418 583.418 594.957 612.511 698.424 620.079 650.875 600.873 546.535 
546.535 528.732 506.087 512.18 439.739 614.7 605.104 594.241 643.858 
643.858 611.3 554.543 555.379 510.177 522.145 571.509 584.798 587.883 
587.883 735.086 626.708 633.777 740.8 709.957 681.777 747.14 652.511 
567.642 559.762 616.471 536.17 512.096 542.409 471.046 584.76 620.804 
663.553 655.294 739.204 564.005 685.935 591.874 579.188 579.188 501.964 
647.009 727.523 630.426 764.795 644.442 531.553 531.553 521.419 501.333 
505.544 786.708 842.142 899.27 882.355 865.83 865.83 800.521 806.582 
529.044 556.685 592.653 473.204 519.473 498.665 473.748 473.748 462.627 
462.719 452.694 494.343 448.485 469.445 560.608 566.382 590.47 599.535 
607.838 589.099 332.03 516.4 483.692 458.66 445.416 526.874 649.298 
514.341 514.341 491.017 494.603 605.234 661.709 534.986 580.568 525.728 
566.636 562.154 555.614 617.107 668.401 689.161 699.372 691.841 703.467 
670.256 714.749 516.669 548.685 579.342 569.189 580.772 580.772 570.537 
471.785 471.785 440.972 440.972 483.676 506.168 551.016 583.264 668.608 
462.268 548.449 563.744 563.744 631.317 619.747 626.827 562.111 385.589 
490.89 608.218 595.388 610.743 682.511 707.084 745.117 739.229 870.744 
935.926 1083.96 1087.95 548.414 586.047 628.556 585.336 614.292 663.602 
599.482 590.899 590.899 557.556 607.569 629.337 707.04 665.493 646.874 
657.532 682.421 629.867 618.454 663.817 721.319 674.329 690.09 687.729 
656.429 671.664 660.032 528.239 633.397 600.469 665.34 720.098 636.588 
585.557 624.017 511.49 471.154 488.431 474.531 542.266 573.012 654.425 
781.009 742.381 685.607 780.706 921.187 871.617 806.117 796.767 850.202 
905.482 831.165 841.477 840.024 734.476 745.418 656.418 656.418 631.461 
703.734 668.199 575.862 935.851 1075.94 1104.36 686.982 705.994 738.148 
858.628 1029.75 1029.75 1153.46 976.712 976.712 836.297 805.971 810.289 
732.123 732.123 770.528 781.082 664.234 669.727 777.803 777.803 812.677 
794.063 851.829 845.897 904.856 937.835 905.376 1046.31 1033.66 610.593 
580.428 643.369 639.613 616.201 609.554 654.549 724.223 836.28 875.559 
769.295 712.989 617.901 624.869 624.869 589.511 612.777 523.571 498.535 
508.609 533.677 701.946 795.841 823.405 803.813 643.406 1039.01 629.618 
723.916 810.577 700.5 830.272 653.801 721.027 706.558 623.002 698.511 
717.309 754.765 802.389 828.254 776.034 776.034 806.684 810.268 746.301 
707.324 676.989 645.845 689.045 651.535 673.309 606.664 521.16 437.021 
411.607 392.223 340.666 778.31 696.564 650.045 551.743 587.581 600.914 
575.397 588.545 779.955 990.035 1012.52 1018.17 856.791 874.515 899.519 
903.233 833.862 887.524 990.722 832.495 913.189 880.939 801.839 801.839 
727 549.998 594.476 591.166 585.501 610.109 671.054 633.584 591.957 
588.997 588.997 719.819 775.638 917.179 868.234 876.921 714.259 648.146 
593.222 505.451 455.683 485.718 466.372 610.365 662.38 682.022 811.776 
961.052 958 754.135 824.778 856.559 819.024 896.886 906.401 891.357 
1009.12 957.529 850.424 755.461 689.375 827.405 623.302 545.485 545.485 
503.828 503.828 575.797 653.611 677.331 694.142 694.06 1022.17 758.435 
693.11 729.37 671.005 846.341 759.39 808.058 758.219 696.768 756.019 
797.844 693.387 749.997 786.732 691.178 749.613 788.539 760.207 781.805 
800.673 775.642 778.896 770.823 715.643 694.484 788.922 709.428 765.681 
683.847 1001.73 1001.73 1269.68 878.573 891.081 982.436 1004.83 971.94 
944.183 863.547 818.362 763.861 830.563 842.187 839.068 839.068 808.593 
703.623 740.318 627.117 668.478 637.104 576.691 607.668 625.289 595.305 
565.271 545.441 540.609 639.686 646.596 652.636 652.636 625 678.128 
632.626 666.994 729.847 802.645 782.938 833.546 807.698 786.277 752.315 
802.757 751.569 806.096 746.852 652.521 666.468 724.973 865.808 984.224 
938.969 1021.72 862.22 841.873 916.327 942.923 811.411 917.613 1007.38 
1056.62 920.365 920.365 695.812 576.433 648.967 736.045 744.302 701.248 
662.193 668.177 701.535 624.674 701.571 
FIELD FieldData 7
DY_minmax 1 635 double
0.352265 0.466216 0.364742 0.317926 0.344368 0.346254 0.501446 1 0.529696 
0.343998 0.500152 0.241546 0.62373 0.755143 0 0.534649 0.621823 0.304178 
0.456538 0.293207 0.458819 0.288552 0.314585 0.457531 0.22442 0.30327 0.261464 
0.0550249 0.279793 0.324922 0.0145718 0.396331 0.489164 0.238458 0.117201 0.1435 
0.214962 0.114921 0.406415 0.185552 0.0596191 0.268209 0.00651811 0.196321 0.29436 
0.269985 0.198192 0.154003 0.166226 0.652008 0.0513691 0.106556 0.473258 0.402032 
0.326093 0.256175 0.256175 0.199467 0.199467 0.182571 0.232355 0.208591 0.214953 
0.179228 0.202821 0.226179 0.289411 0.22812 0.199126 0.174867 0.179442 0.180003 
0.191472 0.257408 0.31715 0.38182 0.311277 0.216936 0.230253 0.245509 0.282573 
0.213744 0.276215 0.309535 0.309535 0.495507 0.452398 0.496047 0.593033 0.451145 
0.453007 0.542969 0.427592 0.453278 0.500879 0.57053 0.52929 0.525566 0.428301 
0.449825 0.311224 0.367928 0.419476 0.429347 0.429347 0.486757 0.394521 0.394521 
0.371361 0.379213 0.441682 0.431572 0.420928 0.391667 0.375793 0.32312 0.323371 
0.236975 0.249619 0.255787 0.302757 0.252834 0.185922 0.226021 0.208568 0.214606 
0.167448 0.17979 0.221507 0.255746 0.338445 0.38133 0.153525 0.193954 0.225648 
0.277812 0.236544 0.263462 0.246531 0.259174 0.29882 0.304073 0.280707 0.267643 
0.24778 0.24778 0.258229 0.274125 0.351922 0.280977 0.308864 0.263586 0.214381 
0.214381 0.19826 0.177754 0.183272 0.117674 0.276106 0.267417 0.257581 0.30251 
0.30251 0.273028 0.221632 0.22239 0.181458 0.192295 0.236996 0.249029 0.251823 
0.251823 0.38512 0.286981 0.293381 0.390295 0.362365 0.336847 0.396035 0.310346 
0.233494 0.226359 0.277711 0.204996 0.183196 0.210645 0.146024 0.248995 0.281635 
0.320345 0.312866 0.388849 0.230201 0.340612 0.255437 0.243949 0.243949 0.174021 
0.305364 0.378272 0.290347 0.412023 0.303039 0.200815 0.200815 0.191637 0.173449 
0.177263 0.431865 0.482062 0.533794 0.518477 0.503513 0.503513 0.444374 0.449862 
0.198542 0.223572 0.256143 0.147977 0.189875 0.171034 0.14847 0.14847 0.1384 
0.138484 0.129405 0.16712 0.125594 0.144574 0.227125 0.232353 0.254166 0.262374 
0.269893 0.252925 0.02014 0.187093 0.157474 0.134808 0.122814 0.196578 0.307436 
0.185229 0.185229 0.164108 0.167355 0.267535 0.318675 0.203924 0.2452 0.19554 
0.232583 0.228525 0.222602 0.278287 0.324735 0.343533 0.35278 0.345961 0.356488 
0.326415 0.366704 0.187336 0.216328 0.244089 0.234895 0.245384 0.245384 0.236115 
0.146692 0.146692 0.11879 0.11879 0.15746 0.177828 0.218439 0.247641 0.324922 
0.138075 0.216115 0.229965 0.229965 0.291154 0.280677 0.287088 0.228485 0.0686395 
0.163993 0.270237 0.25862 0.272523 0.337511 0.359763 0.394204 0.388872 0.507962 
0.566987 0.701039 0.704647 0.216083 0.25016 0.288653 0.249517 0.275738 0.320389 
0.262327 0.254554 0.254554 0.224361 0.269649 0.289361 0.359724 0.322102 0.305241 
0.314893 0.33743 0.289841 0.279506 0.320584 0.372654 0.330103 0.344375 0.342237 
0.313894 0.32769 0.317156 0.197814 0.293038 0.26322 0.321963 0.371548 0.295927 
0.249717 0.284544 0.182647 0.146122 0.161766 0.14918 0.210515 0.238357 0.312079 
0.426705 0.391726 0.340315 0.42643 0.55364 0.508754 0.449441 0.440974 0.489361 
0.539419 0.472123 0.481461 0.480145 0.384568 0.394476 0.313883 0.313883 0.291284 
0.35673 0.324551 0.240937 0.566919 0.693772 0.719505 0.341561 0.358777 0.387892 
0.496991 0.651949 0.651949 0.763967 0.60392 0.60392 0.47677 0.449309 0.453218 
0.382437 0.382437 0.417214 0.426771 0.320962 0.325936 0.423802 0.423802 0.455382 
0.438525 0.490835 0.485463 0.538853 0.568716 0.539324 0.666945 0.655488 0.272387 
0.245072 0.302067 0.298666 0.277466 0.271447 0.312191 0.375284 0.476755 0.512323 
0.416098 0.365111 0.279005 0.285315 0.285315 0.253297 0.274366 0.193587 0.170915 
0.180038 0.202738 0.35511 0.440136 0.465096 0.447354 0.302101 0.660337 0.289615 
0.375005 0.45348 0.353801 0.471314 0.311514 0.372389 0.359287 0.283624 0.352001 
0.369022 0.40294 0.446065 0.469486 0.4222 0.4222 0.449954 0.4532 0.395275 
0.359981 0.332511 0.30431 0.343428 0.309462 0.329179 0.26883 0.191403 0.115213 
0.0921996 0.0746471 0.0279606 0.424261 0.350238 0.308113 0.219097 0.251549 0.263623 
0.240517 0.252423 0.425751 0.615985 0.636346 0.641462 0.495328 0.511378 0.53402 
0.537383 0.474565 0.523158 0.616606 0.473327 0.546398 0.517195 0.445567 0.445567 
0.377798 0.217517 0.257793 0.254796 0.249666 0.27195 0.327137 0.293207 0.255512 
0.252832 0.252832 0.371295 0.421842 0.550012 0.50569 0.513556 0.366261 0.306394 
0.256658 0.177179 0.132112 0.159309 0.141791 0.272181 0.319282 0.337069 0.454566 
0.58974 0.586976 0.40237 0.466339 0.495118 0.461129 0.531636 0.540251 0.526628 
0.633264 0.586549 0.489562 0.403571 0.343728 0.468718 0.283896 0.213431 0.213431 
0.175709 0.175709 0.240879 0.311342 0.332822 0.348044 0.34797 0.645088 0.406263 
0.34711 0.379944 0.327093 0.485865 0.407129 0.451198 0.406067 0.350422 0.404075 