# vtk DataFile Version 3.0
vtk output
ASCII
DATASET POLYDATA
POINTS 455 float
1.06796 0.28806 1.75603 1.59355 1.21164 1.21493 1.37432 1.15747 1.23563 
0.984226 -0.0189305 1.91688 2.17797 1.01311 1.18553 0.875877 -0.0622477 1.6789 
-0.057061 0.322429 0.988484 2.11346 1.52214 0.226793 0.0889034 1.10608 0.347208 
2.09125 -0.526865 1.44909 2.90675 0.31646 0.869796 1.8911 -0.619111 1.47478 
4.03899 0.522358 0.759412 2.17511 -0.296226 1.23585 3.57922 0.563169 0.673193 
2.91088 0.475232 0.671471 2.98922 0.595881 0.404332 2.01528 -0.26803 0.932031 
3.14113 0.589293 0.339661 0.97938 1.35021 -0.543342 1.43877 -1.00615 1.22434 
-0.138558 0.646764 -0.341334 2.48117 -0.944101 1.02797 2.35868 -0.953309 1.02186 
0.486309 -1.13722 0.87725 -0.364228 0.249559 -0.994439 2.97675 0.232306 -0.777105 
1.89247 -1.61903 0.479587 2.85991 -1.16938 0.211501 0.786449 -1.7171 0.273097 
0.15588 -1.45351 0.0570207 2.33347 0.637924 -1.36499 1.74367 0.650117 -1.44189 
-0.120394 0.215556 -1.37517 -0.677199 -0.75435 -0.798713 0.148231 -1.55668 -0.29407 
2.3476 -1.57725 -0.290323 0.0540189 -1.6341 -0.763916 -0.300144 -1.3215 -1.06633 
0.49021 -1.80609 -0.83235 0.438726 -1.73458 -0.898194 0.31624 -1.74378 -0.904307 
1.42115 -1.69336 -1.34594 0.857088 -1.71693 -1.38991 2.06017 -0.966869 -1.88352 
1.39313 -1.93794 -1.40591 2.00019 -0.987704 -2.1349 2.03303 -0.994948 -2.07657 
2.06484 -0.982518 -1.99605 1.40746 -1.81802 -1.37875 2.03754 -1.02511 -1.83719 
2.01491 -1.08335 -1.79086 1.99222 -1.14151 -1.7446 1.96869 -1.1985 -1.69943 
1.94048 -1.24899 -1.66024 1.90518 -1.28962 -1.63012 1.87697 -1.34011 -1.59093 
1.85338 -1.39702 -1.54583 1.8298 -1.45394 -1.50072 1.80149 -1.50428 -1.46166 
1.76491 -1.54702 -1.43964 1.7256 -1.59365 -1.43406 1.6678 -1.62233 -1.46506 
1.60469 -1.63977 -1.49638 1.55079 -1.65456 -1.49005 1.50448 -1.66449 -1.44812 
1.46559 -1.68085 -1.39025 2.11843 -0.907988 -1.80016 2.16605 -0.845884 -1.74984 
2.20623 -0.785022 -1.72843 2.24309 -0.719551 -1.71128 2.29349 -0.669026 -1.67033 
2.34174 -0.611661 -1.62566 2.39176 -0.556747 -1.57873 2.45422 -0.522982 -1.52235 
2.52201 -0.500464 -1.46565 2.58661 -0.477381 -1.41948 2.64262 -0.438519 -1.37783 
2.69956 -0.397076 -1.32852 2.74877 -0.341037 -1.28263 2.79814 -0.281377 -1.23006 
2.85672 -0.224094 -1.14856 2.91134 -0.136072 -1.03507 2.94906 0.0165543 -0.906521 
0.930195 -1.7288 -1.37168 0.997822 -1.73306 -1.36046 1.05364 -1.72092 -1.36435 
1.10855 -1.70752 -1.36939 1.16969 -1.70277 -1.36646 1.2246 -1.68937 -1.37151 
1.28041 -1.67722 -1.37539 1.34804 -1.68149 -1.36417 0.825146 -1.71208 -1.27139 
0.790233 -1.71855 -1.18255 0.745788 -1.73106 -1.13824 0.696189 -1.74412 -1.11347 
0.640373 -1.74469 -1.09017 0.575546 -1.72118 -1.059 0.518077 -1.70402 -1.01194 
0.471451 -1.70579 -0.957487 0.78307 -1.70361 -1.40946 0.71075 -1.6895 -1.42947 
0.648826 -1.67056 -1.45237 0.609004 -1.64135 -1.48139 0.569181 -1.61214 -1.51041 
0.507257 -1.5932 -1.5333 0.43435 -1.57442 -1.5476 0.359371 -1.54819 -1.54896 
0.287958 -1.51553 -1.52621 0.22858 -1.49572 -1.48159 0.174781 -1.48366 -1.42984 
0.122525 -1.47761 -1.38259 0.0696813 -1.46688 -1.32962 0.0167851 -1.45608 -1.27671 
-0.0369619 -1.44409 -1.22489 -0.094797 -1.43029 -1.18478 -0.161265 -1.40064 -1.14923 
-0.226814 -1.3684 -1.10604 0.282059 -1.71655 -0.756304 0.246337 -1.68332 -0.603801 
0.203804 -1.63291 -0.447065 0.372053 -1.73164 -0.908194 0.234827 -1.67023 -0.849052 
0.161498 -1.62333 -0.809346 0.104037 -1.61776 -0.781687 0.464468 -1.77033 -0.865272 
-0.328524 -1.33704 -0.969125 -0.356806 -1.35254 -0.871958 -0.383295 -1.36719 -0.77528 
-0.397603 -1.37619 -0.681978 -0.376385 -1.37866 -0.609556 -0.319162 -1.38299 -0.570338 
-0.250602 -1.40363 -0.574388 -0.184783 -1.43256 -0.610613 -0.109863 -1.48552 -0.654766 
-0.0289866 -1.55448 -0.704235 -0.376717 -1.28921 -1.06326 -0.452869 -1.24663 -1.04936 
-0.519816 -1.1897 -1.02706 -0.564225 -1.1122 -1.00005 -0.600065 -1.0156 -0.958999 
-0.637403 -0.894485 -0.890144 0.0365262 -1.61937 -0.642359 0.0425092 -1.60381 -0.538255 
0.0618622 -1.59212 -0.448803 0.093948 -1.57956 -0.368365 2.38162 -1.56369 -0.210494 
2.43684 -1.53861 -0.137952 2.49692 -1.501 -0.0753583 2.54689 -1.4462 -0.0283436 
2.59669 -1.39484 0.0118353 2.65395 -1.36156 0.0486118 2.7054 -1.32792 0.0650188 
2.75243 -1.2843 0.0822556 2.80159 -1.2282 0.128081 0.155132 -1.49611 -0.124098 
0.933413 -1.8553 0.105996 1.02372 -1.93576 -0.0140485 1.08664 -1.95742 -0.0615632 
1.1484 -1.95087 -0.0540129 1.20729 -1.93914 -0.0474925 1.26988 -1.94026 -0.0491866 
1.32585 -1.93991 -0.0722799 1.37731 -1.92942 -0.094675 1.43136 -1.91483 -0.100813 
1.49144 -1.89704 -0.0798365 1.5481 -1.86292 -0.0438321 1.61206 -1.83509 0.00799252 
1.6799 -1.81264 0.064766 1.74445 -1.78967 0.111021 1.79898 -1.74822 0.160047 
1.84821 -1.70726 0.238008 1.87575 -1.66489 0.351159 -0.0467564 0.140553 -1.51421 
0.0152612 0.0937566 -1.61353 0.0684902 0.0848887 -1.66478 0.117962 0.0994772 -1.68762 
0.165644 0.126777 -1.69543 0.211248 0.164676 -1.69297 0.251112 0.222117 -1.67844 
0.28792 0.287666 -1.66134 0.339597 0.328699 -1.63171 0.391585 0.357729 -1.62108 
0.44485 0.377274 -1.62175 0.50036 0.389842 -1.62603 0.541693 0.422103 -1.64844 
0.586292 0.449825 -1.66666 0.639392 0.465742 -1.67402 0.700387 0.470691 -1.67128 
0.754389 0.485353 -1.67749 0.80398 0.510001 -1.68286 0.857613 0.532887 -1.6766 
0.92237 0.544183 -1.64965 0.989259 0.544802 -1.6329 1.05038 0.545714 -1.63646 
1.1152 0.533778 -1.64824 1.17611 0.531133 -1.65854 1.23966 0.528684 -1.65901 
1.30014 0.534341 -1.65693 1.36772 0.530143 -1.64577 1.43535 0.525881 -1.63454 
1.49606 0.535088 -1.6257 1.56177 0.545057 -1.59752 1.62556 0.569259 -1.55239 
1.6818 0.611677 -1.50398 -0.66777 -0.659799 -0.614919 -0.652031 -0.558777 -0.445552 
-0.619903 -0.447081 -0.302702 -0.57707 -0.358677 -0.168208 -0.54054 -0.286921 -0.0301778 
-0.489738 -0.210103 0.105231 -0.430737 -0.124527 0.243925 -0.368858 -0.0477004 0.370867 
-0.305604 0.0196797 0.486472 -0.241073 0.0775802 0.590784 -0.177819 0.14496 0.70639 
-0.116482 0.226579 0.838959 -0.664291 -0.720796 -0.864248 -0.666633 -0.679207 -0.909131 
-0.665557 -0.626039 -0.943927 -0.666209 -0.590471 -0.993263 -0.641876 -0.588928 -1.07918 
-0.591513 -0.634073 -1.19091 -0.532107 -0.700383 -1.31297 -0.475158 -0.74767 -1.41245 
-0.428945 -0.749368 -1.47375 -0.403395 -0.686762 -1.49429 -0.39669 -0.587283 -1.47997 
-0.408038 -0.464267 -1.42919 -0.408813 -0.314456 -1.35764 -0.402838 -0.137424 -1.25965 
-0.390443 0.0542462 -1.13762 0.237118 -1.61229 -0.0884994 0.30993 -1.71247 -0.200039 
0.382654 -1.76537 -0.241248 0.447071 -1.79494 -0.235026 0.496679 -1.81447 -0.203328 
0.557657 -1.81369 -0.158268 0.623048 -1.78893 -0.0903575 0.679132 -1.75022 0.00482682 
0.723794 -1.72275 0.126356 -0.0923808 0.408356 -1.22968 -0.0521865 0.561591 -1.07224 
-0.0132696 0.692008 -0.941112 0.0291138 0.79043 -0.840961 0.0773137 0.847716 -0.747702 
0.11836 0.886384 -0.649323 0.172296 0.939545 -0.542243 0.233537 1.00272 -0.433034 
0.291437 1.06965 -0.33706 0.339368 1.13517 -0.279865 0.385079 1.18835 -0.251387 
0.436257 1.2185 -0.241796 0.491081 1.23588 -0.240477 0.532363 1.26822 -0.26295 
0.576059 1.29719 -0.282334 0.62294 1.3256 -0.291173 0.669344 1.36239 -0.287688 
0.713936 1.41327 -0.267115 0.759377 1.46297 -0.245444 0.812004 1.48725 -0.240472 
0.876563 1.46025 -0.27846 0.934248 1.40808 -0.383467 -0.197147 0.223421 -1.30631 
-0.259852 0.24342 -1.22988 -0.314614 0.260104 -1.13035 2.35356 0.644916 -1.28122 
2.37599 0.64795 -1.20358 2.41009 0.646324 -1.14012 2.4682 0.640738 -1.09975 
2.52696 0.630413 -1.06502 2.56307 0.6146 -1.01855 2.58847 0.608931 -0.95268 
2.62042 0.611354 -0.883143 2.66793 0.615962 -0.823404 2.71443 0.604976 -0.779809 
2.77553 0.590697 -0.751208 2.8364 0.566223 -0.733496 2.87806 0.521004 -0.723187 
2.91901 0.454166 -0.733642 2.96385 0.363815 -0.759512 0.132794 -1.43585 0.207846 
0.145233 -1.39105 0.346375 0.193913 -1.32935 0.468347 0.255967 -1.26766 0.578888 
0.322497 -1.21674 0.676334 0.396693 -1.17245 0.773742 0.647629 -1.55631 0.495767 
0.547891 -1.36223 0.696522 0.84437 -1.61962 0.499959 0.892121 -1.50874 0.661021 
0.943741 -1.42107 0.772857 0.995979 -1.3592 0.839672 1.05372 -1.31887 0.890009 
1.10883 -1.27875 0.930506 1.16439 -1.22769 0.990989 1.21014 -1.15141 1.05834 
1.25207 -1.06983 1.12079 1.30128 -1.0138 1.16668 1.3663 -0.999018 1.20045 
1.95951 -1.59163 0.541817 2.01837 -1.56442 0.574168 2.06092 -1.53 0.559785 
2.11179 -1.51484 0.543116 2.17628 -1.50704 0.563262 2.23774 -1.47187 0.618351 
2.28297 -1.38716 0.697964 2.31856 -1.26979 0.797611 2.34517 -1.1245 0.911638 
1.83031 -1.53365 0.624154 1.77379 -1.46767 0.75653 1.72069 -1.41801 0.873864 
1.6492 -1.35035 0.954611 1.56789 -1.25818 1.03307 1.49328 -1.14448 1.12335 
3.04514 0.277367 -0.668053 3.08035 0.312582 -0.557738 3.09965 0.345499 -0.444054 
3.11701 0.373038 -0.335772 3.13381 0.403703 -0.223718 3.15051 0.434329 -0.111629 
3.1636 0.478393 0.0178779 3.16437 0.531863 0.167229 -0.317605 0.387008 -0.768027 
-0.263918 0.506432 -0.580699 -0.203287 0.590494 -0.443787 0.546218 -0.982943 1.01985 
0.591042 -0.851753 1.13806 0.63384 -0.748591 1.23428 0.679267 -0.666619 1.30975 
0.705123 -0.558862 1.35812 0.722261 -0.442849 1.38887 0.742636 -0.327479 1.43023 
0.776485 -0.230819 1.48883 0.820163 -0.140107 1.57293 2.42535 -0.956246 1.03186 
2.25 -0.758089 1.24803 1.45405 -0.887554 1.25272 1.47661 -0.794511 1.26452 
1.51053 -0.732844 1.26514 1.54756 -0.682329 1.26575 1.59514 -0.655036 1.30646 
1.6382 -0.64232 1.36861 1.69232 -0.624116 1.41768 1.75015 -0.606341 1.43842 
1.81794 -0.607164 1.45648 3.07571 0.589929 0.373799 3.21525 0.57602 0.359179 
3.28862 0.567448 0.384378 3.35903 0.567572 0.421348 3.41719 0.577069 0.478188 
3.45377 0.580468 0.54743 3.49804 0.575553 0.614796 2.96435 0.537561 0.495762 
2.93816 0.499902 0.582662 2.97011 0.411076 0.765995 2.96522 0.457204 0.704879 
2.04102 -0.303786 0.964953 2.06622 -0.334752 1.0035 2.0912 -0.350695 1.05854 
2.12338 -0.33809 1.13895 2.89859 0.70182 0.476654 2.83492 0.794523 0.527541 
2.77542 0.858876 0.550933 2.72622 0.902248 0.544559 2.67433 0.930892 0.524362 
2.638 0.96173 0.494372 2.61056 0.996697 0.461921 2.58463 1.03236 0.429052 
2.55655 1.07208 0.402255 2.51841 1.11719 0.389194 2.46502 1.17034 0.396784 
2.42422 1.2344 0.406367 2.39125 1.29704 0.408298 2.35292 1.34207 0.39529 
2.30094 1.37067 0.375118 2.25261 1.39593 0.348454 2.19257 1.41575 0.325035 
2.14293 1.44039 0.298737 2.1289 1.48159 0.262569 2.885 0.460252 0.770912 
2.87808 0.408634 0.835302 3.04655 0.384641 0.923008 3.1372 0.418574 0.960584 
3.20061 0.427254 0.960464 3.26057 0.413759 0.927618 3.30579 0.417476 0.871358 
3.35231 0.430966 0.836173 3.40344 0.461187 0.845704 3.4603 0.491229 0.875454 
3.50672 0.525244 0.871557 3.54252 0.54957 0.796947 3.66462 0.572752 0.665091 
3.74355 0.556285 0.658715 3.81574 0.528431 0.641714 3.87807 0.513063 0.622828 
3.93612 0.502673 0.63811 3.98223 0.503268 0.691362 2.15158 -0.354564 1.28756 
2.12477 -0.425743 1.35397 2.21518 -0.212062 1.29594 2.25716 -0.142136 1.33905 
2.30106 -0.0864432 1.36521 2.34496 -0.0307498 1.39138 2.38881 0.0250215 1.41748 
2.43245 0.0772229 1.43683 2.47337 0.121622 1.43331 2.50993 0.160514 1.4048 
2.55926 0.17009 1.37321 2.6167 0.156847 1.33259 2.65592 0.165037 1.26218 
2.68519 0.190904 1.18554 2.71693 0.222349 1.12633 2.76278 0.239154 1.07858 
2.82439 0.259571 1.00288 1.97953 -0.561351 1.37373 1.92373 -0.599967 1.39014 
1.97922 -0.590558 1.4845 0.126293 1.08078 0.382379 0.175808 1.0712 0.425138 
0.220487 1.07449 0.485662 0.279549 1.08951 0.547685 0.348036 1.10387 0.601612 
0.418439 1.104 0.638583 0.480792 1.09534 0.672314 0.529173 1.08523 0.715387 
0.588874 1.09551 0.771748 0.65512 1.11387 0.831781 0.71477 1.12422 0.888076 
0.762247 1.11536 0.929994 0.819016 1.11446 0.956585 0.87675 1.13218 0.977351 
0.939658 1.15429 1.02414 0.997861 1.17069 1.08492 1.04337 1.17614 1.14373 
1.09951 1.17997 1.17597 1.15861 1.18825 1.18541 1.22705 1.18269 1.19781 
1.30026 1.17067 1.21617 0.908059 -0.0496347 1.75932 0.952044 -0.0315428 1.83646 
0.899514 -0.00540636 1.63386 0.927879 0.0500754 1.60345 0.967222 0.106776 1.61206 
1.01319 0.186402 1.66691 2.15039 1.04792 1.1532 2.11327 1.07671 1.12484 
2.05707 1.08787 1.10912 1.99832 1.08312 1.10647 1.93556 1.08098 1.10117 
1.87672 1.07618 1.09854 1.81813 1.09118 1.08904 1.76777 1.12718 1.08226 
1.7069 1.16464 1.10217 1.64858 1.18998 1.15196 
LINES 52 564
4 46 47 48 44 
3 45 49 42 
19 44 50 51 52 53 54 55 56 57 58 59 60 61 62 63 64 65 66 42 
19 44 67 68 69 70 71 72 73 74 75 76 77 78 79 80 81 82 83 26 
10 43 84 85 86 87 88 89 90 91 42 
10 43 92 93 94 95 96 97 98 99 40 
20 43 100 101 102 103 104 105 106 107 108 109 110 111 112 113 114 115 116 117 38 
5 41 118 119 120 35 
3 41 121 40 
5 41 122 123 124 37 
3 40 125 39 
12 38 126 127 128 129 130 131 132 133 134 135 37 
8 38 136 137 138 139 140 141 34 
6 37 142 143 144 145 35 
11 36 146 147 148 149 150 151 152 153 154 28 
3 35 155 30 
19 29 156 157 158 159 160 161 162 163 164 165 166 167 168 169 170 171 172 27 
34 33 173 174 175 176 177 178 179 180 181 182 183 184 185 186 187 188 189 190 191 192 193 194 195 196 197 198 199 200 201 202 203 204 32 
14 34 205 206 207 208 209 210 211 212 213 214 215 216 6 
17 34 217 218 219 220 221 222 223 224 225 226 227 228 229 230 231 25 
11 30 232 233 234 235 236 237 238 239 240 29 
24 33 241 242 243 244 245 246 247 248 249 250 251 252 253 254 255 256 257 258 259 260 261 262 19 
5 33 263 264 265 25 
17 31 266 267 268 269 270 271 272 273 274 275 276 277 278 279 280 26 
8 30 281 282 283 284 285 286 24 
4 29 287 288 24 
13 29 289 290 291 292 293 294 295 296 297 298 299 20 
11 27 300 301 302 303 304 305 306 307 308 23 
8 27 309 310 311 312 313 314 20 
10 26 315 316 317 318 319 320 321 322 18 
5 25 323 324 325 21 
11 24 326 327 328 329 330 331 332 333 334 5 
3 23 335 22 
3 23 336 9 
11 20 337 338 339 340 341 342 343 344 345 11 
3 16 346 18 
8 18 347 348 349 350 351 352 14 
4 16 353 354 15 
4 10 355 356 15 
6 17 357 358 359 360 13 
21 16 361 362 363 364 365 366 367 368 369 370 371 372 373 374 375 376 377 378 379 7 
4 15 380 381 10 
12 10 382 383 384 385 386 387 388 389 390 391 14 
8 14 392 393 394 395 396 397 12 
4 13 398 399 9 
17 13 400 401 402 403 404 405 406 407 408 409 410 411 412 413 414 10 
4 9 415 416 11 
3 11 417 9 
23 8 418 419 420 421 422 423 424 425 426 427 428 429 430 431 432 433 434 435 436 437 438 2 
4 5 439 440 3 
6 5 441 442 443 444 0 
12 4 445 446 447 448 449 450 451 452 453 454 1 

POINT_DATA 455
SCALARS DY_raw double
LOOKUP_TABLE default
478.362 758.23 732.588 808.766 529.523 522.658 659.029 375.127 549.988 
543.499 339.247 528.922 699.283 410.738 519.259 398.958 414.813 288.316 
484.027 320.308 516.901 365.495 354.04 324.77 384.917 319.312 310.431 
404.159 437.829 389.358 355.888 351.87 578.465 315.219 295.288 403.119 
198.883 374.601 337.576 419.809 368.83 334.368 429.399 305.424 270.522 
480.373 292.553 234.342 228.49 449.142 315.026 320.016 374.444 391.656 
392.734 416.051 441.087 450.286 472.442 461.476 458.452 475.284 403.065 
384.822 384.979 403.897 426.604 285.349 311.588 299.63 310.017 358.769 
359.469 396.338 379.712 287.908 339.025 297.331 288.008 350.523 285.538 
259.266 258.969 288.635 305.424 337.366 329.082 369.299 343.632 394.576 
394.576 429.399 331.086 352.432 381.286 335.562 335.562 342.99 320.62 
342.563 302.192 319.77 344.304 323.416 347.009 335.355 360.642 355.266 
341.511 369.755 363.273 298.999 323.394 332.642 348.049 370.602 371.369 
321.614 361.685 371.61 397.422 352.625 336.38 328.019 339.805 419.809 
373.331 457.769 439.419 424.613 412.439 420.878 451.128 467.48 436.521 
435.017 289.534 304.158 329.262 288.222 310.604 319.022 403.556 433.45 
454.66 403.602 218.624 240.379 245.59 286.406 295.711 273.493 273.493 
309.878 316.675 328.08 385.848 354.987 358.596 390.459 449.737 433.386 
382.213 445.098 377.567 339.123 392.111 347.566 329.601 368.24 347.335 
310.386 345.37 301.381 289.409 291.07 325.068 311.275 332.282 337.851 
359.538 392.978 453.477 446.25 439.027 439.027 415.467 347.55 347.55 
290.536 338.135 338.135 353.763 332.706 371.735 326.704 361.395 364.635 
378.852 429.664 382.298 367.806 411.292 374.698 439.187 403.52 425.807 
360.376 371.533 344.287 348.067 321.877 424.136 348.276 379.191 543.431 
538.802 295.288 221.587 237.657 214.529 216.971 263.676 261.417 306.785 
299.268 293.071 283.057 269.251 296.79 306.286 335.349 350.513 335.84 
323.26 326.253 345.386 365.29 393.571 341.435 317.206 323.366 338.332 
379.047 406.764 437.664 443.397 442.292 502.011 557.837 471.368 547.697 
503.883 532.994 532.994 552.774 611.552 583.014 601.883 600.376 654.058 
538.094 388.1 331.176 310.18 301.951 286.667 303.94 345.585 334.681 
334.681 381.091 416.263 483.409 474.969 506.22 506.22 455.237 403.73 
336.582 314.458 398.351 418.966 410.866 405.878 411.894 381.537 398.506 
441.221 416.373 422.136 451.519 457.018 481.091 421.055 445.39 430.599 
451.302 473.148 468.985 388.741 359.287 383.553 354.163 379.19 414.759 
401.225 384.262 396.839 439.355 406.819 398.664 376.29 433.361 471.494 
328.72 369.866 412.068 396.089 420.426 413.506 400.956 430.409 327.928 
341.074 345.949 418.463 463.513 466.557 482.602 411.034 401.188 421.073 
402.317 467.815 313.488 469.637 476.242 343.161 323.429 309.377 361.759 
375.027 451.295 495.324 528.922 411.012 562.474 562.474 664.523 701.025 
591.911 569.619 419.49 432.615 411.24 386.084 288.565 308.462 308.462 
370.746 465.875 557.129 564.713 553.922 419.401 381.882 381.882 386.804 
384.592 384.592 373.463 401.957 443.86 401.523 401.523 387.276 361.36 
388.646 349.761 426.233 398.268 419.967 477.585 585.321 685.409 704.171 
635.875 703.636 701.26 657.288 606.816 507.611 536.864 507.921 526.742 
677.448 674.574 454.445 470.931 463.271 435.709 463.096 466.59 444.767 
490.09 461.711 465.475 465.475 475.098 423.225 401.738 417.212 376.066 
376.599 442.026 472.128 537.183 444.409 437.861 421.703 400.499 454.24 
396.156 458.979 464.818 379.16 421.179 365.561 342.094 329.424 310.648 
341.397 341.435 365.717 409.009 469.852 560.04 732.588 489.146 616.748 
362.195 333.296 371.227 442.491 579.689 546.654 519.304 441.674 441.674 
413.179 421.671 459.532 540.627 664.086 
FIELD FieldData 7
DY_minmax 1 455 double
0.458251 0.917139 0.875094 1 0.542137 0.530881 0.754483 0.28898 0.575692 
0.565052 0.230149 0.541151 0.820486 0.34737 0.525307 0.328054 0.354052 0.14664 
0.467538 0.199096 0.521441 0.273186 0.254405 0.206412 0.305033 0.197463 0.182901 
0.336582 0.39179 0.312315 0.257435 0.250847 0.622384 0.190752 0.158072 0.334877 
0 0.288119 0.227409 0.362243 0.278655 0.22215 0.377968 0.174691 0.117464 
0.461547 0.153587 0.0581413 0.0485459 0.41034 0.190435 0.198617 0.287861 0.316082 
0.317851 0.356081 0.397132 0.412216 0.448543 0.430563 0.425605 0.453204 0.334789 
0.304877 0.305134 0.336153 0.373384 0.141775 0.184798 0.165191 0.182222 0.262158 
0.263306 0.32376 0.296497 0.145972 0.229786 0.161421 0.146134 0.248638 0.142085 
0.0990076 0.098521 0.147163 0.174691 0.227065 0.213483 0.279425 0.237339 0.32087 
0.32087 0.377968 0.216767 0.251768 0.299078 0.224107 0.224107 0.236287 0.199608 
0.235587 0.169392 0.198214 0.238441 0.204192 0.242877 0.223769 0.265231 0.256415 
0.233862 0.280173 0.269544 0.164156 0.204156 0.21932 0.244581 0.28156 0.282819 
0.201237 0.26694 0.283213 0.325536 0.252084 0.225448 0.21174 0.231065 0.362243 
0.286036 0.424484 0.394398 0.37012 0.350159 0.363996 0.413596 0.440408 0.389646 
0.387179 0.148636 0.172616 0.213777 0.146486 0.183185 0.196988 0.335595 0.38461 
0.419388 0.33567 0.0323694 0.0680395 0.0765836 0.143508 0.158766 0.122336 0.122336 
0.181994 0.193139 0.211839 0.306559 0.255957 0.261876 0.31412 0.411314 0.384505 
0.300598 0.403708 0.292981 0.229946 0.316828 0.24379 0.214333 0.277688 0.24341 
0.182827 0.24019 0.168063 0.148432 0.151155 0.206901 0.184284 0.21873 0.22786 
0.26342 0.31825 0.417447 0.405597 0.393755 0.393755 0.355123 0.243763 0.243763 
0.15028 0.228327 0.228327 0.253951 0.219424 0.283418 0.209583 0.266465 0.271777 
0.295088 0.378402 0.300738 0.276977 0.348278 0.288277 0.394016 0.335536 0.372078 
0.264795 0.283087 0.238414 0.244612 0.201668 0.369339 0.244954 0.295644 0.564941 
0.557351 0.158072 0.037228 0.0635759 0.025654 0.0296584 0.106239 0.102536 0.176923 
0.164598 0.154437 0.138017 0.11538 0.160535 0.176105 0.223758 0.248622 0.224563 
0.203936 0.208844 0.240215 0.272851 0.319222 0.233737 0.194009 0.20411 0.228649 
0.295408 0.340854 0.391519 0.40092 0.399108 0.497026 0.588561 0.446783 0.571935 
0.500096 0.547829 0.547829 0.580261 0.676637 0.629844 0.660782 0.658311 0.746331 
0.55619 0.310252 0.216916 0.18249 0.168997 0.143936 0.172258 0.240542 0.222663 
0.222663 0.29876 0.356429 0.466526 0.452687 0.503928 0.503928 0.420333 0.33588 
0.22578 0.189505 0.327059 0.360861 0.34758 0.339402 0.349265 0.299491 0.327313 
0.397352 0.356609 0.366058 0.414238 0.423253 0.462726 0.364287 0.404187 0.379936 
0.413882 0.449701 0.442875 0.311302 0.263009 0.302796 0.254607 0.295642 0.353963 
0.331772 0.303959 0.324581 0.394292 0.340945 0.327573 0.290888 0.384465 0.446989 
0.212889 0.280354 0.349552 0.32335 0.363254 0.351909 0.331332 0.379624 0.211589 
0.233146 0.241138 0.360037 0.433904 0.438894 0.465203 0.347856 0.331711 0.364316 
0.333563 0.440956 0.187914 0.443944 0.454774 0.236567 0.204214 0.181174 0.267061 
0.288816 0.41387 0.486063 0.541151 0.34782 0.596165 0.596165 0.763491 0.823341 
0.644433 0.607881 0.36172 0.383241 0.348193 0.306946 0.147048 0.179672 0.179672 
0.281798 0.437776 0.587401 0.599837 0.582142 0.361574 0.300056 0.300056 0.308127 
0.3045 0.3045 0.286251 0.332972 0.401678 0.332261 0.332261 0.308901 0.266407 
0.311146 0.247388 0.372777 0.326923 0.362503 0.456977 0.633626 0.797737 0.828501 
0.716518 0.827623 0.823727 0.751628 0.66887 0.506209 0.554174 0.506718 0.537577 
0.784683 0.779971 0.419035 0.446067 0.433506 0.388315 0.43322 0.438949 0.403166 
0.477481 0.430949 0.437119 0.437119 0.452898 0.367845 0.332613 0.357985 0.29052 
0.291393 0.398672 0.448029 0.554697 0.402579 0.391843 0.36535 0.330582 0.418698 
0.323461 0.426469 0.436043 0.295593 0.36449 0.273295 0.234818 0.214044 0.183257 
0.233675 0.233737 0.273551 0.344535 0.444297 0.592174 0.875094 0.475932 0.685157 
0.267777 0.220392 0.282585 0.399434 0.624392 0.570227 0.525382 0.398095 0.398095 
0.351372 0.365297 0.427376 0.560344 0.762774 
WidthEq 1 455 double
3.20275 1.41068 1.31553 1.33733 1.97507 3.62993 2.00676 1.82643 2.78101 
4.62449 2.31025 3.69193 1.00253 5.73415 1.86994 1.95696 2.96011 2.55856 
2.83527 2.284 4.82078 6.11069 5.14214 6.1842 6.78573 8.32794 5.21328 
5.38777 3.08005 6.98178 8.45256 1.19537 2.87939 7.04701 8.17792 6.61069 
5.13792 5.79147 6.95792 4.47762 5.25656 5.56779 3.98253 5.55567 3.46173 
2.26467 1.21248 2.02594 3.42927 2.9483 3.95705 4.09878 3.53984 3.54322 
3.70582 3.69247 3.57645 3.70521 3.76644 3.9094 3.75815 3.83289 4.21688 
4.11643 4.1406 4.18848 4.05136 4.1871 4.11336 4.05074 3.93296 3.68994 
3.94662 3.79952 3.8507 4.49082 4.29491 4.70053 5.07116 4.56702 5.55206 
6.10985 6.40758 5.82186 5.55567 4.64897 4.44693 4.31594 4.27918 4.11067 
4.11067 3.98253 5.97318 5.46665 5.21573 5.35646 5.35646 5.2973 5.47256 
5.39767 5.51822 5.64207 5.2488 4.99566 4.94708 5.22563 5.09073 5.34818 
5.71604 5.42522 5.63409 6.22211 5.95377 6.25848 6.27091 6.09243 6.45477 
7.07732 6.11783 6.42223 6.60747 5.59902 5.99758 6.19824 6.33299 4.47762 
6.37658 5.79731 5.93919 5.59357 5.91317 6.32225 6.14576 5.97096 6.01055 
5.80275 7.08952 7.00994 6.50541 7.02928 7.08069 7.30292 6.28657 6.24682 
6.10056 6.53595 4.98798 5.87903 6.43159 5.91379 5.63294 5.48223 5.48223 
4.38945 4.00102 8.3802 5.62596 5.17353 4.27289 4.16401 3.8962 4.03517 
4.14467 3.91991 4.17206 4.24419 4.28663 5.00018 5.40864 5.22172 5.25471 
5.59572 5.47118 6.38156 5.68412 5.09917 4.15794 4.67836 4.27328 4.29898 
4.22685 4.06087 3.89121 3.97823 4.01821 4.01821 4.09134 4.31663 4.31663 
4.5176 4.2379 4.2379 4.15802 4.16769 3.93672 3.76498 3.48298 3.40333 
3.1841 2.85706 3.11504 3.38446 3.27549 3.79192 3.65349 6.56243 6.09266 
6.88356 6.63816 6.88525 6.18313 5.91563 5.07899 5.35278 5.2043 3.58604 
2.73068 8.17792 9.34567 9.34076 8.78421 7.34566 5.77521 4.72908 5.15258 
4.96489 5.44087 5.90151 6.68336 7.49537 7.94127 7.86024 7.62697 6.67676 
5.85317 5.59833 5.27727 5.39261 5.38923 6.45538 7.41741 6.65773 6.35939 
6.57294 6.1232 5.94533 5.77643 5.47417 4.61413 4.24059 3.8952 3.52596 
3.41929 2.7263 2.7263 2.4588 2.11925 2.15455 2.28316 2.38115 2.26528 
2.38483 2.4024 7.36676 7.92186 7.97749 2.87509 3.53232 3.2847 4.38116 
4.38116 4.1703 3.75117 3.40702 3.32675 2.83488 2.83488 3.04429 3.35292 
3.92743 4.56287 7.52783 6.83745 6.63348 6.51738 6.56059 6.74252 7.11737 
5.72786 6.06066 5.39399 5.33429 5.21351 5.0572 5.54907 5.35976 5.62626 
6.046 5.85463 5.62987 6.09765 6.171 6.06212 5.9606 4.58513 4.4579 
3.94976 4.14382 4.73568 5.56818 4.97571 5.20276 5.15611 4.87772 5.26177 
5.18573 4.90549 4.44815 3.45843 3.7293 3.02211 3.09087 3.17113 8.59651 
8.1991 8.19166 6.18505 5.31955 5.08912 4.8695 5.3656 5.36191 4.78909 
4.73284 4.13254 5.89982 4.92767 5.41839 5.97924 5.74819 5.32784 4.88639 
4.31456 3.9041 3.77596 3.69193 3.18502 2.36511 2.36511 1.65294 1.45557 
1.63414 1.74932 2.61619 2.33611 2.41223 2.2949 3.6043 5.48592 5.48592 
6.14246 2.69384 2.20842 2.14488 2.09639 2.77096 3.0548 3.0548 2.93118 
2.95428 2.95428 3.18004 3.12525 2.97446 3.35376 3.35376 3.29084 3.30718 
2.92604 2.56002 2.12486 2.24019 2.5314 2.20029 1.70565 1.42097 1.40669 
1.4301 1.46478 1.51412 1.70358 1.84462 1.86994 1.63252 1.60858 1.3681 
1.01765 1 5.84404 5.52674 5.29922 4.33735 4.26061 3.95828 3.55857 
3.35706 3.31171 3.21088 3.21088 3.06708 3.04936 2.95589 2.69653 2.63806 
2.58757 4.7257 4.29522 3.92697 3.58803 3.62732 3.89305 3.77972 3.32629 
3.59041 2.75216 2.74971 2.95612 2.77902 3.24549 3.39835 3.45513 3.52902 
3.55335 3.60492 3.35906 2.98459 2.50354 1.95589 1.31553 3.77534 2.74664 
4.71887 4.77174 4.19017 3.50831 2.06799 2.48313 2.89696 3.25247 3.25247 
3.11711 2.78523 2.41307 1.92949 1.50499 
rRFP 1 455 double
2665.16 2431.62 2419.22 2422.06 2505.17 2720.83 2509.3 2485.8 2610.2 
2850.44 2548.85 2728.91 2378.43 2995.05 2491.47 2502.81 2633.54 2581.21 
2617.27 2545.43 2876.02 3044.12 2917.9 3053.7 3132.09 3333.07 2927.17 
2949.91 2649.17 3157.64 3349.31 2403.56 2623.02 3166.14 3313.52 3109.28 
2917.35 3002.52 3154.53 2831.3 2932.81 2973.37 2766.78 2971.79 2698.91 
2542.91 2405.79 2511.8 2694.68 2632 2763.46 2781.93 2709.09 2709.53 
2730.72 2728.98 2713.86 2730.64 2738.62 2757.25 2737.54 2747.28 2797.32 
2784.23 2787.38 2793.62 2775.75 2793.44 2783.83 2775.67 2760.32 2728.65 
2762.1 2742.93 2749.6 2833.02 2807.49 2860.35 2908.65 2842.95 2971.32 
3044.01 3082.81 3006.48 2971.79 2853.63 2827.3 2810.23 2805.44 2783.48 
2783.48 2766.78 3026.2 2960.19 2927.49 2945.83 2945.83 2938.12 2960.96 
2951.2 2966.91 2983.05 2931.8 2898.81 2892.48 2928.78 2911.2 2944.75 
2992.69 2954.79 2982.01 3058.64 3023.67 3063.38 3065 3041.74 3088.96 
3170.09 3045.05 3084.72 3108.86 2977.44 3029.38 3055.53 3073.09 2831.3 
3078.77 3003.28 3021.77 2976.73 3018.38 3071.69 3048.69 3025.91 3031.07 
3003.99 3171.68 3161.31 3095.56 3163.83 3170.53 3199.49 3067.04 3061.86 
3042.8 3099.54 2897.81 3013.93 3085.94 3018.46 2981.86 2962.22 2962.22 
2819.81 2769.19 3339.88 2980.95 2921.99 2804.62 2790.43 2755.53 2773.64 
2787.91 2758.62 2791.48 2800.88 2806.41 2899.4 2952.63 2928.27 2932.57 
2977.01 2960.78 3079.42 2988.53 2912.3 2789.64 2857.46 2804.67 2808.02 
2798.62 2776.99 2754.88 2766.22 2771.43 2771.43 2780.96 2810.32 2810.32 
2836.51 2800.06 2800.06 2789.65 2790.91 2760.81 2738.43 2701.68 2691.3 
2662.73 2620.11 2653.73 2688.84 2674.64 2741.94 2723.9 3102.99 3041.77 
3144.84 3112.86 3145.06 3053.56 3018.7 2909.67 2945.35 2926 2715.11 
2603.64 3313.52 3465.7 3465.06 3392.53 3205.06 3000.4 2864.07 2919.26 
2894.8 2956.83 3016.86 3118.75 3224.57 3282.68 3272.12 3241.72 3117.89 
3010.56 2977.35 2935.51 2950.54 2950.1 3089.04 3214.41 3115.41 3076.53 
3104.36 3045.75 3022.57 3000.56 2961.17 2849.09 2800.41 2755.4 2707.28 
2693.38 2603.07 2603.07 2568.21 2523.96 2528.56 2545.32 2558.09 2542.99 
2558.57 2560.86 3207.81 3280.15 3287.4 2622.46 2708.11 2675.84 2818.73 
2818.73 2791.25 2736.63 2691.78 2681.32 2617.22 2617.22 2644.51 2684.73 
2759.6 2842.41 3228.8 3138.83 3112.25 3097.12 3102.75 3126.46 3175.31 
2994.23 3037.6 2950.72 2942.94 2927.2 2906.83 2970.93 2946.26 2980.99 
3035.69 3010.75 2981.46 3042.42 3051.98 3037.79 3024.56 2845.31 2828.73 
2762.51 2787.8 2864.93 2973.42 2896.21 2925.8 2919.72 2883.44 2933.49 
2923.58 2887.06 2827.46 2698.48 2733.78 2641.62 2650.58 2661.04 3368.07 
3316.28 3315.31 3053.81 2941.02 2910.99 2882.37 2947.02 2946.54 2871.89 
2864.56 2786.33 3016.64 2889.95 2953.9 3026.99 2996.88 2942.1 2884.57 
2810.05 2756.56 2739.86 2728.91 2662.85 2556 2556 2463.19 2437.47 
2460.74 2475.75 2588.72 2552.22 2562.14 2546.85 2717.49 2962.7 2962.7 
3048.26 2598.84 2535.58 2527.3 2520.98 2608.89 2645.88 2645.88 2629.77 
2632.78 2632.78 2662.2 2655.06 2635.41 2684.84 2684.84 2676.64 2678.77 
2629.1 2581.4 2524.69 2539.72 2577.67 2534.52 2470.06 2432.96 2431.1 
2434.15 2438.67 2445.1 2469.79 2488.17 2491.47 2460.53 2457.41 2426.07 
2380.4 2378.1 3009.37 2968.02 2938.37 2813.02 2803.02 2763.62 2711.53 
2685.27 2679.36 2666.22 2666.22 2647.48 2645.17 2632.99 2599.19 2591.57 
2584.99 2863.63 2807.53 2759.54 2715.37 2720.49 2755.12 2740.35 2681.26 
2715.68 2606.44 2606.12 2633.02 2609.94 2670.73 2690.65 2698.05 2707.68 
2710.85 2717.57 2685.53 2636.73 2574.04 2502.67 2419.22 2739.78 2605.72 
2862.74 2869.63 2793.84 2704.98 2517.28 2571.38 2625.31 2671.64 2671.64 
2654 2610.75 2562.25 2499.23 2443.91 
rGFP 1 455 double
4005.98 3543.53 3437.65 3555.49 3519.75 4371.12 3796.42 3159.05 4003.43 
4987.31 3257.65 4426.65 3174.96 4829.14 3444.89 3254.65 3701.8 3211.58 
3846.25 3205.49 4965.77 4707.33 4294.43 4482.35 5085.85 5133.12 4092.27 
4651.42 3822.44 5192.32 5482.07 2894.52 4139.53 4695.26 4888.75 5138.8 
3495.75 4643.4 4822.73 4353.65 4412.68 4335.6 4184 4170.74 3410.38 
3561.79 2828.62 2948.67 3257.46 3798.11 3720.48 3785.58 3799.38 3861.63 