# vtk DataFile Version 3.0
vtk output
ASCII
DATASET POLYDATA
POINTS 952 float
1.67751 1.617 0.679579 1.72991 0.887848 1.22219 2.10057 1.50716 0.602874 
0.736682 1.45176 0.356945 2.07355 1.7331 0.222287 0.370624 0.902459 0.970785 
0.986417 1.10088 0.779387 0.444146 1.75547 -0.205114 2.19003 1.44155 -0.0703398 
2.26748 0.563733 1.01653 2.27445 0.619765 0.922132 0.632934 1.60219 -0.73077 
0.068286 0.436102 0.842573 -0.243635 0.587037 0.588705 3.52453 1.19424 -0.43908 
3.98009 0.697799 0.00483727 3.53137 1.07829 -0.635571 0.329665 1.2192 -1.13001 
0.269343 1.43899 -1.23899 0.516986 -0.195664 0.992043 -0.466497 0.153737 0.0651354 
-0.327245 0.619467 -0.753206 2.76014 1.35369 -1.49033 2.7845 -0.394433 1.06276 
2.95962 -0.315812 0.930086 -0.548985 0.278059 -0.0658318 6.91336 0.454061 -0.371976 
2.11176 -0.656769 1.11375 7.54055 0.00822348 -0.0135312 0.836595 -0.854494 0.795476 
0.245176 -0.99824 0.305 7.35485 -0.326428 0.158657 0.0325194 0.219558 -1.33939 
4.37719 0.0528574 -1.35803 2.04408 -1.00896 0.792904 0.691336 -0.897662 0.737775 
1.29512 -0.917563 0.77052 3.80695 -0.662783 0.338063 4.03696 -0.585972 0.208367 
0.958686 -1.13472 0.744973 6.89078 -1.02692 0.410589 -0.330283 -0.624457 -0.243581 
-0.0651135 -0.0601333 -1.06399 0.623651 -1.24985 0.416925 6.63796 -1.19491 0.31659 
7.05214 -1.05746 0.215117 7.25164 -0.782723 -0.247966 7.28996 -0.474546 -0.76718 
0.0480176 -0.207718 -1.20733 3.54107 -1.30233 0.109746 6.55103 -1.26919 0.180639 
7.08684 -0.949278 -0.358985 7.17656 -0.670926 -0.828021 0.267444 -0.386937 -1.29751 
4.50787 -0.414179 -1.25709 2.21381 0.195922 -2.28192 7.36827 -1.04775 -0.781186 
4.56315 -0.993327 -0.934536 5.6936 -0.794258 -1.20606 0.274279 -0.502886 -1.494 
5.66042 -0.624154 -1.29667 4.03952 -0.271734 -2.01889 3.24613 -0.0944832 -2.18585 
1.66478 0.0420315 -2.41378 0.872762 -1.62292 0.000254516 6.98376 -1.23359 -0.663519 
6.98084 -0.961561 -1.12179 2.20309 -0.232091 -2.3445 3.07866 -1.78322 -0.124364 
6.04668 -1.53688 -0.593998 6.82385 -1.2701 -1.12424 6.74402 -1.11637 -1.25251 
3.15861 -0.720082 -2.30728 3.35564 -0.442066 -2.38407 0.643333 -1.59363 -0.832424 
4.32178 -1.26478 -1.39117 0.992772 -1.19073 -1.7467 4.02727 -0.973761 -1.88105 
3.257 -2.02055 -0.508416 3.20908 -1.96271 -0.605796 3.74601 -1.04271 -2.15635 
1.83533 -0.895339 -2.40214 2.12829 -2.08428 -0.816793 3.52835 -1.98688 -1.08792 
1.7893 -1.7889 -1.41919 2.35427 -1.90556 -1.7458 2.87127 -1.82776 -1.74693 
3.24449 -1.57644 -2.04018 3.35126 -2.07076 -1.59939 3.77584 -1.9066 -1.8765 
3.78254 -2.19453 -2.17508 3.80234 -2.05133 -2.02453 3.71766 -1.84896 -1.78487 
3.66008 -1.81177 -1.71685 3.60344 -1.79871 -1.68073 3.54578 -1.81886 -1.64671 
3.48679 -1.86988 -1.61873 3.42349 -1.95556 -1.6049 3.82749 -1.7952 -1.74498 
3.87986 -1.70962 -1.64251 3.93392 -1.65485 -1.58974 3.9887 -1.62585 -1.56611 
4.04361 -1.59586 -1.54413 4.09854 -1.54666 -1.511 4.15361 -1.47742 -1.46808 
4.20931 -1.40309 -1.43375 4.26597 -1.32736 -1.41629 2.78879 -1.83622 -1.72774 
2.72407 -1.85798 -1.73453 2.6676 -1.89384 -1.75628 2.61198 -1.92687 -1.76827 
2.55605 -1.93706 -1.76071 2.50069 -1.91333 -1.76677 2.43663 -1.89809 -1.76333 
2.28223 -1.96447 -1.70935 2.21982 -2.00492 -1.68465 2.16319 -2.02003 -1.67848 
2.10738 -2.02111 -1.66692 2.05078 -2.01404 -1.63523 1.99509 -1.9759 -1.60265 
1.9386 -1.91485 -1.56515 1.87337 -1.84576 -1.50731 3.27124 -2.06148 -1.61492 
3.20743 -2.05696 -1.62246 3.15135 -2.0474 -1.62398 3.09717 -2.02034 -1.62596 
3.04412 -1.96757 -1.63257 2.9903 -1.91576 -1.63753 2.93413 -1.8681 -1.67422 
3.36117 -2.0743 -1.50638 3.37374 -2.07572 -1.43144 3.39995 -2.06933 -1.36 
3.42301 -2.05615 -1.2855 3.46678 -2.02438 -1.19396 3.18617 -1.67909 -2.04133 
3.12969 -1.74358 -2.01968 3.08323 -1.75744 -1.96725 3.05186 -1.74846 -1.9001 
3.00469 -1.74566 -1.83705 2.94335 -1.77413 -1.78901 2.29169 -1.80687 -1.78622 
2.23833 -1.73403 -1.82178 2.20028 -1.68696 -1.86233 2.1898 -1.6542 -1.90782 
2.19125 -1.62612 -1.95513 2.19451 -1.5981 -2.00235 2.19607 -1.56365 -2.04587 
2.18767 -1.5225 -2.08616 2.16414 -1.47449 -2.12348 2.15563 -1.43333 -2.16377 
2.15516 -1.39245 -2.20363 2.14462 -1.34486 -2.24024 2.10717 -1.28365 -2.27076 
2.05782 -1.22204 -2.30192 2.00651 -1.16671 -2.33701 1.95449 -1.10467 -2.3689 
1.89881 -1.01502 -2.38927 2.06494 -2.05375 -0.864529 2.01399 -2.01638 -0.916545 
1.97639 -1.98317 -0.965167 1.96391 -1.94662 -1.00858 1.95142 -1.90535 -1.04908 
1.91397 -1.85687 -1.08716 1.86653 -1.82081 -1.13335 1.82728 -1.79983 -1.18796 
1.80567 -1.7979 -1.25408 1.78516 -1.79622 -1.32945 1.72491 -1.706 -1.43782 
1.66751 -1.63656 -1.43864 1.61473 -1.57852 -1.45894 1.56304 -1.54858 -1.50448 
1.51073 -1.55135 -1.5578 1.45682 -1.57329 -1.59332 1.4028 -1.58347 -1.61963 
1.34963 -1.57414 -1.6498 1.29563 -1.56521 -1.66477 1.24174 -1.54899 -1.67752 
1.18927 -1.50547 -1.70142 1.13557 -1.43284 -1.71342 1.07266 -1.33278 -1.71358 
3.60654 -2.00239 -1.04253 3.66761 -1.99097 -0.974792 3.72125 -1.93574 -0.888908 
3.77477 -1.85207 -0.807423 3.82864 -1.76709 -0.732987 3.88455 -1.68475 -0.69763 
3.94024 -1.61678 -0.667078 3.99605 -1.55426 -0.641875 4.05271 -1.48484 -0.628279 
4.10852 -1.42226 -0.603165 4.16433 -1.35969 -0.578057 4.22099 -1.29027 -0.564461 
4.2767 -1.22763 -0.539447 4.33071 -1.17032 -0.519972 4.37623 -1.11256 -0.530268 
4.40553 -1.0737 -0.566747 4.44009 -1.05951 -0.619733 4.46938 -1.07056 -0.688217 
4.51365 -1.08632 -0.758476 4.55554 -1.08859 -0.822406 4.56883 -1.05617 -0.877037 
3.45742 -1.99836 -1.00559 3.40587 -2.01041 -0.941692 3.37568 -2.02975 -0.889724 
3.34108 -2.04828 -0.839108 3.31167 -2.04996 -0.778189 3.26535 -2.01924 -0.699287 
2.20992 -2.0877 -0.807509 2.2763 -2.08843 -0.795502 2.33148 -2.10026 -0.768377 
2.38573 -2.10651 -0.754288 2.44051 -2.10925 -0.74975 2.49551 -2.11013 -0.748335 
2.55116 -2.10587 -0.755588 2.60776 -2.09388 -0.775851 2.6634 -2.08962 -0.783104 
2.71841 -2.09682 -0.785566 2.7733 -2.11762 -0.79412 2.82827 -2.15672 -0.815389 
2.88376 -2.19803 -0.847457 2.93958 -2.23034 -0.880166 2.9935 -2.25261 -0.871753 
3.04777 -2.24044 -0.848769 3.10246 -2.18053 -0.804663 3.15655 -2.08117 -0.725416 
3.26861 -0.746536 -2.37895 3.34136 -0.714431 -2.41861 3.37486 -0.604601 -2.41504 
1.90837 -0.773562 -2.41873 1.97186 -0.68009 -2.43117 2.03028 -0.608331 -2.43603 
2.08704 -0.525813 -2.41549 2.14474 -0.39739 -2.38521 1.75281 -0.8745 -2.36458 
1.6867 -0.87585 -2.3332 1.62965 -0.886786 -2.32922 1.57455 -0.89877 -2.33798 
1.51953 -0.891684 -2.33533 1.46378 -0.865143 -2.30742 1.40632 -0.839644 -2.24871 
1.34811 -0.826598 -2.18355 1.28976 -0.833641 -2.12807 1.2315 -0.85348 -2.08006 
1.17505 -0.87975 -2.03573 1.12857 -0.906349 -1.99086 1.09723 -0.933447 -1.94517 
1.05098 -0.963958 -1.90241 0.998792 -1.00733 -1.86411 0.969517 -1.08023 -1.81962 
3.81905 -0.946355 -2.18815 3.88263 -0.841299 -2.19591 3.94113 -0.702218 -2.17392 
3.99478 -0.506196 -2.1124 3.81057 -1.07148 -2.10795 3.86877 -1.07752 -2.08334 
3.9233 -1.06237 -2.05088 3.97567 -1.02784 -1.97854 3.66435 -1.04667 -2.14958 
3.59995 -1.0469 -2.1491 3.54366 -1.04534 -2.15165 3.48883 -1.04251 -2.15635 
3.43483 -1.02722 -2.16753 3.38242 -0.985333 -2.19449 3.32833 -0.917204 -2.22213 
3.25939 -0.828808 -2.25486 3.22146 -1.99125 -0.557734 3.19882 -1.93847 -0.399906 
3.14256 -1.8692 -0.298856 3.09807 -1.81942 -0.208507 3.31196 -1.93318 -0.452507 
3.3669 -1.85224 -0.40028 3.42166 -1.7617 -0.340041 3.47432 -1.63963 -0.245838 
3.51695 -1.48203 -0.0905701 3.04293 -0.683412 -2.36891 2.96515 -0.685901 -2.37913 
2.90723 -0.700026 -2.39879 2.85449 -0.717435 -2.45645 2.80204 -0.734044 -2.51549 
2.74801 -0.744282 -2.5417 2.69327 -0.722326 -2.53509 2.63842 -0.682182 -2.51556 
2.58368 -0.641175 -2.49751 2.52956 -0.614187 -2.49938 2.4764 -0.58584 -2.51803 
2.42228 -0.558796 -2.51999 2.36767 -0.510485 -2.49973 2.31346 -0.433521 -2.46968 
2.25949 -0.329383 -2.42738 0.890274 -1.08837 -1.67522 0.818385 -0.998098 -1.61823 
0.760299 -0.930078 -1.5673 0.703603 -0.880982 -1.51062 0.647874 -0.835275 -1.47145 
0.592142 -0.795939 -1.43607 0.535561 -0.769756 -1.39305 0.479956 -0.729381 -1.35941 
0.425113 -0.676558 -1.33223 0.37115 -0.603991 -1.30928 0.318918 -0.50484 -1.30211 
4.37336 -1.15237 -1.25651 4.42617 -1.06581 -1.13636 4.48657 -1.01548 -1.03257 
4.38024 -1.12392 -1.36734 4.43859 -0.976684 -1.33973 4.49492 -0.82301 -1.30845 
4.53742 -0.668881 -1.27792 4.5411 -0.53258 -1.26083 6.87058 -1.34279 -1.06955 
6.88506 -1.37612 -1.01342 6.88627 -1.37102 -0.944627 6.8969 -1.34008 -0.86131 
6.93444 -1.29301 -0.766514 0.585844 -1.61272 -0.80018 0.529321 -1.61773 -0.777165 
0.472472 -1.61268 -0.742058 0.41597 -1.57953 -0.696263 0.358518 -1.53591 -0.624543 
0.302367 -1.4784 -0.532714 0.257997 -1.4222 -0.438673 0.240645 -1.36695 -0.343076 
0.235289 -1.32483 -0.254383 0.233617 -1.27999 -0.163595 0.240945 -1.21557 -0.0566966 
0.256833 -1.1151 0.095519 0.694609 -1.64893 -0.797377 0.744065 -1.71054 -0.76621 
0.783556 -1.76545 -0.731801 0.807944 -1.79433 -0.683183 0.847596 -1.7973 -0.620182 
0.897746 -1.78913 -0.561446 0.948631 -1.77962 -0.519497 0.984953 -1.77737 -0.465285 
0.983662 -1.75988 -0.393163 0.955145 -1.72331 -0.309603 0.937998 -1.67445 -0.217777 
0.920732 -1.63831 -0.133512 0.890057 -1.62084 -0.0613209 0.646692 -1.58472 -0.890974 
0.648234 -1.57574 -0.949622 0.639817 -1.55371 -1.00125 0.61618 -1.51843 -1.04614 
0.60574 -1.46447 -1.07897 0.59338 -1.40409 -1.10813 0.55584 -1.33013 -1.1311 
0.506497 -1.25584 -1.1546 0.455093 -1.18889 -1.18024 0.402696 -1.14806 -1.20544 
0.347933 -1.13889 -1.20629 0.291329 -1.15087 -1.18603 0.234807 -1.16219 -1.16689 
0.177201 -1.1759 -1.1292 0.11897 -1.17565 -1.07151 0.0606483 -1.14448 -0.993356 
0.00234352 -1.0815 -0.896193 -0.055841 -1.0058 -0.791465 -0.112215 -0.936521 -0.69042 
-0.158702 -0.882462 -0.59763 -0.191393 -0.822803 -0.499753 -0.247286 -0.7368 -0.383361 
3.41397 -0.326739 -2.37528 3.47036 -0.186903 -2.3497 3.51593 -0.0283229 -2.29765 
3.54391 0.110946 -2.21306 3.58465 0.205311 -2.11086 3.63509 0.265568 -2.02379 
3.68828 0.307961 -1.96467 3.74134 0.316747 -1.92149 3.79532 0.288663 -1.91778 
[...]
POINT_DATA 952
SCALARS DY_raw double
LOOKUP_TABLE default
224.391 335.579 242.016 408.383 271.343 303.026 288.625 342.66 0 
170.271 160.361 248.556 463.991 413.464 203.275 257.42 140.13 236.67 
162.58 365.946 337.226 206.573 216.79 328.002 128.213 306.941 452.563 
423.905 241.812 359.433 318.656 208.607 262.893 265.986 229.165 339.709 
230.4 282.441 197.649 337.788 308.571 260.919 245.074 326.746 202.445 
169.128 239.931 159.068 205.377 241.528 196.711 257.374 254.021 210.272 
323.291 218.491 137.581 308.76 180.537 128.18 192.922 258.549 319.719 
128.761 250.568 221.217 202.987 284.929 221.361 150.254 248.751 169.143 
281.679 266.206 216.365 176.934 184.531 376.834 187.682 234.789 246.475 
170.64 278.164 214.417 270.049 201.652 232.86 206.745 210.204 162.257 
136.087 131.322 187.586 267.295 283.43 284.154 267.684 212.394 168.322 
196.278 220.627 203.023 205.575 245.758 187.204 233.012 214.786 242.208 
239.95 237.54 224.683 204.987 205.507 202.797 187.734 205.21 205.854 
190.59 190.59 195.437 213.403 235.093 225.598 249.13 233.586 240.67 
255.745 257.616 239.066 223.549 230.33 243.71 220.742 195.766 200.786 
190.508 199.965 221.608 244.932 257.897 215.511 250.017 250.128 214.063 
214.063 203.807 189.733 212.199 170.641 170.641 220.266 185.963 256.447 
268.023 197.987 171.829 158.973 270.895 254.629 241.228 214.973 248.729 
301.875 265.645 287.299 291.276 287.436 268.949 276.119 267.874 277.657 
263.538 248.661 241.507 243.234 238.513 233.472 213.791 232.629 205.991 
199.024 198.897 208.681 168.843 172.959 210.911 178.217 205.967 232.581 
236.407 250.403 310.45 324.099 339.674 339.559 280.32 285.961 250.74 
256.199 236.603 244.911 229.8 261.173 259.948 231.006 252.438 215.932 
250.069 233.167 223.015 237.257 240.169 240.169 215.244 211.4 211.4 
221.928 183.973 200.602 208.159 181.755 183.544 187.299 220.903 228.307 
224.235 214.53 221.466 175.297 208.682 225.017 229.257 237.7 198.899 
243.376 209.862 200.694 195.047 216.261 216.378 254.786 267.829 274.12 
260.286 229.342 211.579 207.517 192.735 174.89 253.079 225.379 238.946 
240.515 294.979 303.177 333.318 380.06 236.57 235.83 239.429 235.171 
232.774 229.379 246.661 275.274 225.183 223.563 239.578 216.217 181.813 
194.158 220.839 248.871 227.288 276.002 286.755 287.928 233.123 202.723 
202.723 209.767 205.118 235.668 232.337 224.454 249.161 204.846 206.835 
233.55 197.539 241.026 270.73 275.732 216.844 250.522 235.601 208.838 
226.869 232.636 216.402 218.236 253.806 251.885 229.093 193.218 216.359 
258.524 281.861 197.837 194.159 196.772 224.519 222.662 209.187 226.024 
226.787 211.295 217.143 191.682 197.837 207.026 224.772 237.308 256.428 
274.218 242.379 226.824 268.138 262.128 256.893 207.436 182.918 162.98 
170.932 190.55 259.296 252.193 241.157 191.413 177.089 167.261 146.421 
171.002 181.631 223.806 260.271 252.874 252.8 248.477 220.463 230.343 
199.172 166.625 182.961 197.555 232.78 229.116 216.756 213.597 211.943 
268.56 250.168 223.987 237.591 278.389 270.789 318.594 316.997 298.609 
240.481 258.01 275.749 277.698 311.258 339.709 249.221 250.484 182.527 
182.527 199.221 186.643 186.643 169.622 152.004 133.832 164.606 198.992 
218.966 218.966 246.007 250.747 245.732 228.928 198.715 186.15 145.255 
163.423 165.068 219.674 174.217 230.648 226.023 261.567 250.844 288.658 
297.651 250.393 238.521 255.77 213.561 165.556 219.611 207.566 237.209 
209.193 224.076 179.63 207.907 238.669 295.053 262.548 239.204 420.602 
445.81 340.221 443.591 336.117 336.117 274.269 204.355 174.443 172.079 
172.079 211.624 256.19 280.954 218.614 214.27 205.596 205.596 170.753 
178.668 193.791 191.107 222.74 217.559 210.121 241.799 242.149 205.226 
200.97 183.927 188.08 223.062 259.168 313.178 323.567 282.886 264.373 
237.886 207.223 189.56 211.521 221.769 251.674 299.399 149.699 192.113 
148.115 143.195 139.078 156.987 199.926 267.803 242.382 267.257 298.486 
255.485 230.607 212.104 251.252 196.918 206.422 267.728 123.854 147.166 
174.062 207.537 222.737 222.737 268.594 293.909 282.842 276.143 276.143 
288.079 236.913 256.687 243.291 222.403 212.895 231.194 229.635 262.671 
262.671 268.14 245.355 247.048 226.781 187.674 177.183 190.356 225.269 
309.81 302.768 252.345 273.32 244.862 218.694 218.694 236.814 236.814 
241.714 288.397 313.335 329.823 243.452 243.452 232.781 217.628 227.114 
261.289 267.897 241.881 268.206 182.828 179.131 225.436 249.955 251.547 
165.159 261.04 266.869 349.625 390.59 342.133 282.337 213.655 189.68 
197.703 218.079 207.005 241.691 268.665 256.559 254.231 246.29 230.201 
240.099 228.165 255.015 245.594 254.11 263.285 275.952 288.773 321.188 
362.113 378.565 315.862 310.179 292.57 298.141 279.855 268.819 260.096 
262.681 272.372 285.864 268.111 262.464 230.191 236.977 350.014 346.71 
318.58 286.629 235.367 211.015 229.449 250.293 210.13 240.802 175.562 
147.846 147.846 143.661 141.448 141.448 151.35 250.741 274.246 209.642 
209.642 278.541 295.506 308.908 230.857 202.606 202.697 194.624 225.295 
277.057 269.278 214.177 211.853 204.146 298.168 287.76 242.729 199.774 
260.595 200.724 242.524 212.165 263.771 269.386 316.407 370.763 293.073 
293.073 249.09 255.854 305.548 311.163 285.855 292.718 305.956 312.563 
289.185 240.368 216.56 188.484 193.756 173.437 194.561 201.263 211.059 
230.599 238.837 272.915 279.03 260.45 223.767 280.179 250.953 251.157 
290.596 275.449 278.461 295.614 262.506 261.492 250.325 221.858 220.89 
367.947 197.649 222.227 248.052 279.593 282.862 308.759 288.886 269.211 
299.58 266.093 283.597 301.313 219.92 263.319 259.906 242.438 273.007 
249.328 289.737 328.505 345.637 354.744 397.832 382.607 464.999 462.589 
430.907 430.907 381.715 277.891 212.712 194.534 201.719 203.797 224.638 
213.083 235.545 243.425 263.732 283.449 249.15 255.738 242.037 243.44 
225.181 253.473 275.636 293.883 368.592 354.051 404.695 306.327 255.335 
250.038 275.182 301.601 279.365 264.724 279.107 288.773 277.891 299 
296.438 269.017 287.844 280.259 307.741 261.586 246.019 260.212 279.354 
299.714 274.69 243.874 266.182 235.268 200.799 209.552 205.557 227.966 
207.271 254.212 293.67 337.218 381.815 384.773 439.05 325.341 325.341 
213.134 213.134 226.4 238.011 250.367 239.409 224.915 237.811 216.916 
216.916 234.535 259.293 288.053 307.612 313.094 275.756 225.409 200.089 
222.494 241.68 252.541 292.329 337.533 315.678 281.083 299.927 288.103 
260.516 300.393 313.589 370.059 382.188 398.92 398.92 362.791 407.554 
345.539 304.802 255.172 246.4 237.853 226.598 260.493 309.5 312.129 
339.447 333.358 264.898 248.042 272.316 322.388 328.289 304.198 330.214 
310.741 387.019 419.664 372.238 467.727 417.784 373.813 324.503 319.74 
319.699 289.016 246.88 241.323 254.737 245.4 175.399 253.446 274.549 
249.836 214.994 233.626 219.601 214.442 244.652 222.311 250.64 263.013 
256.863 291.563 315.319 307.712 326.762 293.298 286.294 286.294 235.359 
209.986 209.986 257.646 282.948 313.75 312.705 312.705 301.91 349.043 
317.335 372.611 332.633 275.663 271.343 364.575 369.16 403.985 462.076 
435.235 451.525 326.859 321.71 352.474 457.057 415.423 415.423 395.565 
346.782 368.7 331.767 302.141 322.481 290.255 263.123 263.123 311.326 
170.271 255.959 289.537 323.39 275.382 275.382 261.997 291.93 327.72 
112.912 290.224 307.194 353.531 331.338 337.607 362.186 337.468 340.477 
363.225 320.716 331.446 320.438 320.438 340.455 394.592 397.046 436.408 
409.279 368.157 469.248 420.464 460.348 421.307 337.362 326.522 370.138 
403.818 358.082 268.725 249.525 201.732 197.705 225.225 339.416 363.284 
358.638 358.078 365.429 328.476 329.45 329.45 355.652 341.208 280.673 
286.528 286.528 278.454 272.67 249.721 217.962 211.537 181.118 174.423 
190.755 287.781 314.611 371.962 384.821 330.982 298.873 
FIELD FieldData 7
DY_minmax 1 952 double
0.478193 0.715142 0.515753 0.870292 0.57825 0.645769 0.615081 0.730233 0 
0.362859 0.341741 0.529689 0.988796 0.881121 0.433193 0.54858 0.298628 0.50436 
0.346469 0.779855 0.718652 0.440221 0.461995 0.698995 0.273231 0.654112 0.964443 
0.903371 0.515318 0.765975 0.679079 0.444555 0.560243 0.566835 0.488365 0.723944 
0.490999 0.601902 0.421204 0.719849 0.657585 0.556036 0.52227 0.696318 0.431425 
0.360424 0.511309 0.338985 0.437672 0.514713 0.419206 0.548481 0.541337 0.448103 
0.688954 0.46562 0.293194 0.657989 0.384737 0.27316 0.41113 0.550985 0.681343 
0.274398 0.533978 0.471429 0.432579 0.607204 0.471735 0.320202 0.530104 0.360456 
0.600276 0.567304 0.461089 0.377058 0.393248 0.80306 0.399964 0.500352 0.525254 
0.363645 0.592786 0.456936 0.575493 0.429734 0.49624 0.440587 0.44796 0.345782 
0.290011 0.279856 0.399758 0.569625 0.604009 0.605552 0.570453 0.452626 0.358705 
0.418281 0.47017 0.432657 0.438094 0.523728 0.398944 0.496564 0.457724 0.516162 
0.51135 0.506214 0.478815 0.43684 0.43795 0.432175 0.400073 0.437317 0.43869 
0.40616 0.40616 0.416489 0.454776 0.501 0.480765 0.530914 0.497788 0.512884 
0.54501 0.548998 0.509466 0.476399 0.490849 0.519362 0.470417 0.417191 0.427889 
0.405986 0.42614 0.472262 0.521967 0.549597 0.459269 0.532804 0.53304 0.456183 
0.456183 0.434326 0.404335 0.45221 0.363648 0.363648 0.469401 0.396299 0.546505 
0.571175 0.421923 0.366179 0.338781 0.577296 0.542631 0.514073 0.458123 0.530059 
0.643317 0.566108 0.612255 0.620729 0.612545 0.573149 0.588429 0.570859 0.591706 
0.561618 0.529915 0.514669 0.518348 0.508287 0.497545 0.455603 0.495748 0.43898 
0.424134 0.423862 0.444714 0.359816 0.368588 0.449466 0.379793 0.438931 0.495646 
0.503799 0.533626 0.66159 0.690678 0.723868 0.723625 0.597381 0.609402 0.534343 
0.545978 0.504218 0.521921 0.489719 0.556578 0.553967 0.49229 0.537963 0.460167 
0.532914 0.496894 0.475261 0.50561 0.511817 0.511817 0.458701 0.450509 0.450509 
0.472945 0.392059 0.427497 0.443601 0.387332 0.391145 0.399147 0.470759 0.486539 
0.477861 0.457178 0.471959 0.37357 0.444715 0.479526 0.488563 0.506554 0.423867 
0.51865 0.44723 0.427693 0.415658 0.460866 0.461116 0.542966 0.570763 0.584168 
0.554686 0.488743 0.450889 0.442234 0.410731 0.372703 0.539329 0.480297 0.50921 
0.512553 0.628621 0.646091 0.710323 0.809935 0.504147 0.50257 0.510239 0.501166 
0.496058 0.488822 0.525652 0.586627 0.479879 0.476428 0.510557 0.460773 0.387456 
0.413763 0.470624 0.530362 0.484366 0.588178 0.611094 0.613595 0.4968 0.432016 
0.432016 0.447028 0.437121 0.502224 0.495126 0.478326 0.53098 0.436541 0.44078 
0.49771 0.420969 0.513643 0.576943 0.587604 0.462109 0.533879 0.502081 0.445047 
0.483473 0.495763 0.461168 0.465076 0.540879 0.536785 0.488213 0.411761 0.461076 
0.550933 0.600665 0.421605 0.413766 0.419335 0.478465 0.474507 0.445792 0.481673 
0.4833 0.450284 0.462747 0.408487 0.421604 0.441187 0.479004 0.505719 0.546465 
0.584377 0.516525 0.483377 0.57142 0.558612 0.547457 0.442061 0.389811 0.347321 
0.364268 0.406076 0.552577 0.53744 0.513923 0.407914 0.377388 0.356445 0.312033 
0.364416 0.387068 0.476946 0.554655 0.538892 0.538735 0.529521 0.469823 0.490877 
0.42445 0.355089 0.389902 0.421004 0.49607 0.488262 0.461921 0.455191 0.451664 
0.572319 0.533125 0.477332 0.506324 0.593265 0.577071 0.678946 0.675542 0.636357 
0.512481 0.549838 0.58764 0.591794 0.663311 0.723942 0.531107 0.533798 0.388977 
0.388977 0.424554 0.397749 0.397749 0.361475 0.32393 0.285205 0.350787 0.424066 
0.466631 0.466631 0.524258 0.534359 0.523672 0.487861 0.423476 0.396697 0.309549 
0.348266 0.351771 0.46814 0.371268 0.491526 0.48167 0.557417 0.534566 0.61515 
0.634314 0.533604 0.508304 0.545063 0.455114 0.352812 0.468007 0.442338 0.505509 
0.445804 0.477522 0.382804 0.443064 0.508621 0.628778 0.559508 0.50976 0.896332 
0.950052 0.725034 0.945323 0.716289 0.716289 0.584485 0.435494 0.37175 0.366713 
0.366713 0.450985 0.545958 0.598732 0.465882 0.456624 0.438138 0.438138 0.363887 
0.380755 0.412981 0.407263 0.474674 0.463633 0.447781 0.51529 0.516035 0.437351 
0.428281 0.391962 0.400811 0.475361 0.552305 0.667404 0.689544 0.602849 0.563398 
0.506951 0.441606 0.403966 0.450767 0.472605 0.536335 0.63804 0.319019 0.409406 
0.315643 0.305158 0.296385 0.33455 0.426055 0.570707 0.516532 0.569542 0.636095 
0.544455 0.49144 0.452007 0.535436 0.419645 0.4399 0.570547 0.263941 0.31362 
0.370938 0.442275 0.474668 0.474668 0.572393 0.626341 0.602757 0.588479 0.588479 
0.613915 0.504878 0.547017 0.51847 0.473956 0.453695 0.49269 0.489367 0.559771 
0.559771 0.571424 0.522868 0.526476 0.483286 0.399946 0.37759 0.405661 0.480064 
0.660226 0.645219 0.537763 0.582463 0.521817 0.466051 0.466051 0.504667 0.504667 
0.515109 0.614594 0.667738 0.702876 0.518814 0.518814 0.496072 0.46378 0.483995 
0.556824 0.570908 0.515465 0.571565 0.38962 0.38174 0.48042 0.532671 0.536064 
0.351964 0.556295 0.568716 0.745076 0.832373 0.72911 0.601679 0.455314 0.404221 
0.421319 0.464742 0.441141 0.51506 0.572544 0.546745 0.541783 0.524861 0.490573 
0.511668 0.486235 0.543455 0.523378 0.541527 0.561078 0.588073 0.615394 0.684473 
0.771689 0.806748 0.673123 0.661013 0.623487 0.635359 0.59639 0.572871 0.554282 
0.559791 0.580444 0.609195 0.571363 0.559329 0.490553 0.505014 0.745905 0.738864 
0.678915 0.610827 0.501583 0.449686 0.488972 0.533393 0.447802 0.513166 0.374134 
0.315069 0.315069 0.30615 0.301435 0.301435 0.322538 0.534346 0.584437 0.446761 
0.446761 0.593589 0.629743 0.658303 0.491972 0.431767 0.431962 0.414757 0.480119 
0.590429 0.573851 0.456425 0.451474 0.43505 0.635417 0.613237 0.517271 0.425733 
0.555346 0.427757 0.516835 0.452137 0.562114 0.574081 0.674284 0.790121 0.624559 
0.624559 0.530829 0.545242 0.651145 0.66311 0.609177 0.623802 0.652013 0.666092 
0.616273 0.51224 0.461505 0.401672 0.412908 0.369606 0.414623 0.428905 0.44978 
0.491422 0.508978 0.5816 0.594633 0.555036 0.476862 0.597081 0.534798 0.535232 
0.61928 0.587001 0.59342 0.629974 0.559418 0.557256 0.533461 0.472795 0.470733 
0.78412 0.421204 0.473582 0.528616 0.595832 0.602799 0.657987 0.615637 0.573707 
0.638425 0.567063 0.604366 0.642119 0.468665 0.561152 0.553878 0.516652 0.581797 
0.531336 0.61745 0.700067 0.736576 0.755983 0.847808 0.815362 0.990946 0.98581 
0.918292 0.918292 0.81346 0.592205 0.453303 0.414565 0.429876 0.434306 0.478718 
0.454094 0.501964 0.518755 0.56203 0.604049 0.530955 0.544995 0.515798 0.518786 
0.479877 0.540169 0.587399 0.626285 0.785495 0.754507 0.862432 0.652804 0.544137 
0.532848 0.586432 0.642732 0.595346 0.564145 0.594795 0.615396 0.592205 0.637189 
0.63173 0.573294 0.613415 0.597251 0.655818 0.557459 0.524284 0.554529 0.595322 
0.638712 0.585384 0.519712 0.567252 0.501373 0.427916 0.44657 0.438055 0.485811 
0.441709 0.541744 0.625831 0.718635 0.813675 0.819977 0.935645 0.693325 0.693325 
0.454203 0.454203 0.482475 0.507217 0.533549 0.510197 0.479309 0.506792 0.462262 
0.462262 0.49981 0.552571 0.613861 0.655542 0.667225 0.587656 0.480362 0.426403 
0.47415 0.515037 0.538183 0.622973 0.719306 0.672731 0.599007 0.639166 0.613968 
0.555178 0.640158 0.668281 0.788621 0.814469 0.850126 0.850126 0.773132 0.868525 
0.736367 0.649554 0.543789 0.525094 0.50688 0.482896 0.555129 0.659566 0.665169 
0.723384 0.71041 0.564517 0.528595 0.580325 0.687032 0.699607 0.648268 0.703708 
0.662211 0.824764 0.894333 0.793265 0.996758 0.890327 0.796621 0.691538 0.681387 
0.681301 0.615914 0.526118 0.514275 0.542863 0.522964 0.373787 0.540111 0.585082 
0.532418 0.458167 0.497873 0.467984 0.45699 0.52137 0.473761 0.534132 0.560499 
0.547393 0.62134 0.671966 0.655756 0.696352 0.625037 0.610112 0.610112 0.501566 
0.447494 0.447494 0.549062 0.602981 0.668622 0.666395 0.666395 0.643391 0.743834 
0.676262 0.79406 0.708863 0.587457 0.57825 0.776935 0.786705 0.860921 0.984716 
0.927515 0.96223 0.696559 0.685586 0.751145 0.97402 0.885295 0.885295 0.842976 
0.739016 0.785724 0.707018 0.643884 0.687229 0.618553 0.560733 0.560733 0.663458 
0.362859 0.545465 0.617023 0.689165 0.586859 0.586859 0.558333 0.622123 0.698394 
0.240623 0.618486 0.654651 0.7534 0.706103 0.719463 0.771844 0.719167 0.72558 
0.774057 0.683468 0.706334 0.682876 0.682876 0.725533 0.840902 0.846132 0.930016 
0.872202 0.784567 1 0.896037 0.981034 0.897834 0.718941 0.695841 0.78879 
0.860563 0.763097 0.57267 0.531756 0.429904 0.421323 0.47997 0.723319 0.774183 
0.764283 0.763089 0.778755 0.700004 0.702081 0.702081 0.757918 0.727139 0.598134 
0.610612 0.610612 0.593404 0.581079 0.532173 0.464491 0.4508 0.385974 0.371707 
0.406511 0.613281 0.670458 0.792676 0.82008 0.705345 0.636918 
WidthEq 1 952 double
4.11273 3.01738 2.21593 2.00452 3.0889 3.74149 2.77117 3.86251 1.03376 
3.06776 1.79676 4.63795 2.97771 4.45777 2.97902 2.47067 2.09648 5.20146 
1 4.35537 6.68065 7.90815 4.98196 3.65397 5.02476 5.88677 2.12945 
3.81814 2.03671 5.25801 5.54268 5.59392 5.12916 6.91129 7.66925 5.79872 
6.97933 6.75139 5.85345 3.35503 5.01989 6.3102 7.29375 5.81421 5.00066 
6.93705 5.22921 6.23399 7.49603 6.88293 4.79769 4.46708 5.82978 5.29681 
5.17466 8.09181 6.01466 2.69148 4.49675 3.94812 2.83068 7.96975 5.94462 
4.77428 6.92574 4.86598 4.70164 5.56608 5.92661 3.36756 2.85173 3.22697 
6.17779 6.67039 6.06434 5.40757 7.38023 3.06132 6.85674 7.0625 4.66823 
6.27914 5.33179 6.55085 9.21543 6.16195 5.07339 6.20563 6.26253 4.24079 
1.72698 2.58829 5.26601 5.3571 5.46307 5.53137 5.66787 6.40216 5.47029 
5.70798 5.46299 5.13473 4.87686 4.54939 5.21582 4.99953 5.29629 4.47091 
4.06218 3.77873 3.72818 4.63386 5.2186 5.8089 6.91965 6.66238 6.6241 
7.81176 7.81176 8.59451 9.30948 9.53664 5.85058 5.12238 5.15074 4.75984 
4.38113 4.71791 5.23826 5.82082 5.55468 5.21399 5.97969 7.00204 6.49482 
7.31533 6.97646 6.05546 5.44506 5.22138 5.76244 4.75375 4.22792 4.65405 
4.65405 4.991 5.37085 5.18519 5.95385 5.95385 5.04999 5.12603 4.2635 
3.5206 4.16963 5.12499 5.94662 5.27315 5.21999 5.01667 4.75236 4.47274 
4.11951 5.43793 6.36423 7.34256 8.2144 8.69656 7.58364 6.36728 5.74148 
4.57975 4.4931 4.49605 4.86442 4.75018 5.31708 6.14012 6.07895 6.55685 
6.58408 6.0639 5.57069 5.90312 6.4347 6.52118 5.71477 5.16179 4.95629 
4.69572 4.51189 4.17137 3.95552 3.83398 3.63692 3.88157 3.5045 3.14936 
2.76047 2.54531 2.65015 6.35231 5.54398 5.53641 6.509 6.18318 7.27992 
5.67831 5.94845 6.12846 5.59584 5.41435 5.41435 5.39104 5.33944 5.33944 
5.1778 5.26654 4.99431 4.95977 5.23826 5.01345 5.18684 4.90496 6.46602 
6.72624 6.71719 6.53179 6.05886 5.00806 4.49127 4.6932 5.76244 5.54277 
4.82066 4.69233 4.49266 4.85807 4.87338 5.54137 5.03407 4.65614 4.46604 
4.74314 4.50275 4.65283 5.34023 6.19327 7.21945 4.60568 4.96786 5.60897 
6.66238 4.34302 4.28838 3.71331 3.05888 4.6437 4.5105 4.64952 5.10802 
5.49631 6.20302 6.29881 5.96228 7.24381 6.66282 5.95602 6.44427 6.63968 
6.5813 6.61436 6.45567 7.27853 5.9883 5.6329 5.32056 5.52319 5.24174 
5.24174 5.10776 5.37572 5.08627 5.26158 5.27071 5.26306 5.91757 6.1081 
6.15343 7.42634 6.57912 5.96751 5.65534 5.93201 6.00091 6.22485 6.09052 
6.28271 6.1871 5.9394 4.87059 4.18015 3.48754 4.32458 4.80152 5.25192 
5.00266 5.30751 3.4075 3.70017 4.42776 4.59471 5.30743 6.06529 5.81969 
5.77854 6.66334 6.81246 7.74842 8.01125 7.04475 6.53406 6.14586 5.8819 
6.00483 5.45255 5.12768 3.42429 3.34425 3.52921 4.54573 5.53389 6.72955 
7.29827 7.38319 6.08791 6.55459 6.81464 6.45845 6.5679 6.62628 6.44062 
6.1255 5.77297 5.30464 5.0238 5.07948 4.56131 4.57322 4.38513 4.83214 
5.47751 6.93 6.97602 8.12426 7.8469 8.06023 8.05344 7.12836 7.36379 
6.28184 5.48552 4.67919 5.17136 6.08409 6.25896 6.14681 6.2105 6.87249 
7.68952 7.71562 7.71049 6.2466 5.84718 5.56321 2.85887 2.52835 2.85399 
2.85399 2.81667 3.08916 3.08916 3.2622 3.77412 4.17128 4.00841 4.08393 
4.2314 4.2314 3.98866 4.06218 4.11908 4.382 4.63543 4.40409 3.9262 
4.08106 4.40061 3.65797 3.17581 2.9102 3.06602 2.87166 3.2515 3.48728 
3.98144 4.61116 5.11394 4.59089 4.77811 3.47858 3.28039 3.20322 3.0146 
2.97797 2.5909 2.69487 2.37871 2.04819 1.86845 2.11344 2.28475 1.56412 
1.44936 1.69114 1.27832 1.43962 1.43962 1.56281 1.7061 1.9337 2.4577 
2.4577 3.03217 2.91429 2.79388 6.7352 6.13646 6.30194 6.30194 6.85796 
7.15029 6.80141 6.92574 6.30942 6.6917 6.67422 6.35814 6.18823 5.87459 
6.44201 7.48133 7.75564 7.01517 5.74905 4.88051 4.57253 5.46638 5.79733 