# vtk DataFile Version 3.0
vtk output
ASCII
DATASET POLYDATA
POINTS 849 float
0.899779 -0.251952 1.26216 0.994779 -0.687017 1.07429 0.303564 -0.609393 1.06026 
0.284082 -0.782181 1.0641 1.84634 -0.966532 0.695861 0.478734 1.23426 0.618438 
0.566835 -1.29528 0.681341 -0.322174 -0.0231032 0.634856 2.05358 -0.871776 0.497116 
2.03071 -0.764222 0.494105 0.70998 -1.25165 0.482709 0.493689 -1.20403 0.477752 
0.38611 -1.22694 0.476416 2.71527 -0.00566984 0.287651 0.270611 -1.20093 0.273665 
2.41765 -0.974062 0.105818 0.189922 1.4895 -0.126488 -0.306122 -1.38558 0.0679153 
1.41115 1.66721 -0.376119 -0.116134 -1.19103 -0.453697 5.51155 0.904817 -0.485632 
3.08399 0.225057 -0.715613 4.28807 -0.204568 -0.680323 2.90226 0.231022 -0.715251 
1.94463 1.82586 -0.770768 -0.254233 -0.965951 -0.74171 -0.661394 0.596228 -0.786758 
7.28128 0.105108 -0.968693 6.78131 -0.635765 -0.86318 4.66825 0.751481 -0.896918 
0.600026 1.81493 -0.994231 7.0449 0.519472 -1.1163 6.672 -0.551183 -1.03019 
4.48107 0.854043 -1.16949 4.38108 0.703451 -1.10089 2.94232 -0.727254 -1.09148 
0.133844 -1.26924 -1.12771 -0.119368 -0.748572 -1.20778 0.114487 -1.16654 -1.33063 
5.86221 -1.29885 -1.49317 3.12681 -0.249452 -1.50001 7.48484 0.135199 -1.91865 
7.32236 -0.26361 -1.72604 4.41882 1.00951 -1.84131 0.816119 -1.5342 -1.70956 
7.1927 -0.653769 -1.95229 6.61998 1.32658 -1.877 2.80383 -0.753251 -2.17377 
1.32661 -1.54349 -1.90045 7.3581 0.427027 -2.109 5.81327 1.43022 -2.09379 
6.31983 -1.21631 -2.02069 6.22368 -1.293 -2.02052 5.12013 -1.21138 -2.1086 
6.62321 -1.04486 -2.21961 5.60162 1.37954 -2.29637 6.0006 -1.2899 -2.22461 
4.25435 -0.481379 -2.27492 3.09023 0.149469 -2.37739 2.61594 -0.288798 -2.70857 
1.02402 1.75363 -2.38592 0.996077 -1.28781 -2.31264 2.61327 -0.948949 -2.49252 
2.05292 1.68612 -2.56628 1.93391 1.71698 -2.56912 1.5684 -1.05908 -2.50822 
7.25071 0.258068 -2.64036 2.87218 0.224854 -2.71653 2.44864 -0.427485 -2.70815 
2.27923 -0.688421 -2.7048 0.773162 -0.917383 -2.79242 0.0946137 -0.198121 -2.7551 
5.82084 -1.02644 -2.83443 4.90946 0.799365 -3.02813 2.56566 0.884735 -2.93801 
1.19564 -0.59314 -3.12634 5.4303 0.921574 -3.28872 1.38593 0.903325 -3.35938 
6.55746 -0.136833 -3.44333 5.45542 0.021923 -3.46655 1.53811 0.199376 -3.53972 
1.59523 0.195179 -3.53861 1.65755 0.166518 -3.53682 1.72195 0.12808 -3.53476 
1.78454 0.0977023 -3.52551 1.84375 0.0823893 -3.50187 1.90582 0.0527395 -3.463 
1.96959 0.0150916 -3.42392 2.03192 -0.0149271 -3.39986 2.09126 -0.0304105 -3.38362 
2.15362 -0.0605366 -3.35956 2.21782 -0.0996784 -3.2982 2.28884 -0.141852 -3.17735 
2.40423 -0.198582 -2.97386 5.50921 0.0333799 -3.46588 5.563 0.044837 -3.46522 
5.61679 0.0562939 -3.46455 5.67057 0.0677509 -3.46388 5.72436 0.0792079 -3.46321 
5.77815 0.0906649 -3.46254 5.83194 0.102122 -3.46188 5.88575 0.113472 -3.46121 
5.93997 0.122934 -3.46048 5.99677 0.120659 -3.46684 6.05895 0.0935266 -3.47991 
6.12179 0.0641478 -3.50773 6.18186 0.0477828 -3.53592 6.24486 0.0181166 -3.57115 
6.30772 -0.0113699 -3.59898 6.36768 -0.0276528 -3.61976 6.43017 -0.057959 -3.60311 
6.49395 -0.0969547 -3.54175 6.60299 -0.0869653 -3.43632 6.65309 -0.0594235 -3.41388 
6.70279 -0.0313427 -3.36923 6.74754 0.0196023 -3.31779 6.79229 0.0705466 -3.26637 
6.84199 0.0986274 -3.22172 6.89156 0.126888 -3.16966 6.93618 0.178012 -3.11083 
6.98082 0.229029 -3.05199 7.03082 0.255295 -2.99988 7.08342 0.269726 -2.95483 
7.13644 0.280903 -2.88747 7.19129 0.281322 -2.78277 6.51459 -0.201348 -3.41287 
6.47146 -0.265505 -3.36761 6.42817 -0.329374 -3.31494 6.38463 -0.391643 -3.26974 
6.33939 -0.444576 -3.24702 6.29087 -0.481266 -3.23957 6.24341 -0.522902 -3.23198 
6.19423 -0.557346 -3.20978 6.14612 -0.598085 -3.16518 6.09682 -0.633697 -3.1133 
6.05118 -0.68609 -3.06837 6.00804 -0.748899 -3.04537 5.96537 -0.813713 -3.02972 
5.92197 -0.879035 -2.99926 5.87489 -0.948133 -2.93172 1.43427 0.930191 -3.35177 
1.46746 0.979929 -3.33016 1.48297 1.0386 -3.28685 1.51265 1.10268 -3.2286 
1.55194 1.16913 -3.16282 1.59302 1.23596 -3.09702 1.63433 1.30263 -3.03862 
1.67579 1.36901 -2.98763 1.71777 1.43344 -2.944 1.76169 1.48827 -2.89268 
1.80863 1.52847 -2.83354 1.85216 1.58384 -2.76001 1.89335 1.64934 -2.67194 
5.37651 0.910117 -3.28939 5.32272 0.89866 -3.29006 5.2688 0.887383 -3.28332 
5.21462 0.876464 -3.26178 5.16005 0.866085 -3.21803 5.10525 0.855891 -3.16439 
5.04932 0.844803 -3.11076 4.98667 0.827991 -3.06699 1.14185 -0.604597 -3.12701 
1.08809 -0.616161 -3.12767 1.03459 -0.629433 -3.12088 0.983314 -0.654001 -3.09895 
0.937128 -0.704432 -3.04914 0.891903 -0.766883 -2.97678 0.839889 -0.836297 -2.88708 
4.8752 0.706517 -3.12529 4.86015 0.635374 -3.20535 4.8418 0.572344 -3.25848 
4.83022 0.512902 -3.28195 4.81331 0.45288 -3.2882 4.81109 0.396195 -3.28687 
4.80897 0.33953 -3.28553 4.79373 0.280071 -3.28435 4.79161 0.223407 -3.28302 
4.78939 0.166722 -3.28168 4.77212 0.107038 -3.27312 4.75784 0.0484062 -3.24972 
4.72634 -0.0130646 -3.19691 4.68455 -0.0759931 -3.12201 4.64021 -0.136982 -3.02497 
4.59367 -0.188119 -2.92821 4.54357 -0.222556 -2.83192 4.49442 -0.260608 -2.75034 
4.44226 -0.284026 -2.67658 4.39047 -0.309234 -2.60278 4.34367 -0.358761 -2.51347 
4.29894 -0.419306 -2.40163 2.4923 -0.364889 -2.71631 2.66305 -0.141381 -2.89659 
2.70789 -0.0480345 -3.00923 2.75045 0.0215544 -3.01757 2.79163 0.0886393 -2.95179 
2.83204 0.156567 -2.84156 2.5771 0.830958 -2.93651 2.58853 0.777181 -2.935 
2.59984 0.723584 -2.92609 2.61112 0.670188 -2.90978 2.62405 0.617352 -2.88604 
2.64712 0.566261 -2.87698 2.68706 0.518347 -2.88253 2.72231 0.469021 -2.90294 
2.76413 0.42151 -2.90847 2.79873 0.37308 -2.89186 2.83776 0.326424 -2.84558 
2.85992 0.27659 -2.7847 4.82715 0.854155 -2.92963 4.75649 0.903149 -2.8209 
4.70184 0.951872 -2.69952 4.67243 1.00541 -2.57042 4.64342 1.05709 -2.43878 
4.59227 1.09179 -2.30466 4.53495 1.09509 -2.16248 4.47744 1.07039 -2.00727 
5.72793 -0.978926 -2.83722 5.65561 -0.947673 -2.83924 5.59756 -0.945171 -2.84774 
5.54315 -0.953179 -2.86332 5.48752 -0.955129 -2.87908 5.43034 -0.951522 -2.86534 
5.37906 -0.978242 -2.80631 5.32816 -1.0089 -2.71013 5.27873 -1.04783 -2.59395 
5.22753 -1.08234 -2.46308 5.17625 -1.13734 -2.29962 5.86264 -1.09825 -2.75785 
5.90564 -1.15226 -2.66685 5.92959 -1.20144 -2.54667 5.95392 -1.2484 -2.39688 
0.108044 -0.251473 -2.75357 0.131245 -0.302745 -2.75192 0.17115 -0.350457 -2.75006 
0.207906 -0.398841 -2.74824 0.261366 -0.443667 -2.74621 0.324726 -0.486592 -2.75147 
0.388346 -0.529875 -2.77153 0.442694 -0.575756 -2.81392 0.482141 -0.625018 -2.86392 
0.532597 -0.671727 -2.90636 0.571113 -0.720358 -2.92673 0.571592 -0.776356 -2.92536 
0.586314 -0.826938 -2.90412 0.633818 -0.860578 -2.86788 0.696117 -0.879427 -2.82927 
0.77821 -0.997366 -2.72864 0.797534 -1.05704 -2.66015 0.833955 -1.10495 -2.58919 
0.857813 -1.15422 -2.5184 0.883627 -1.20307 -2.45006 0.934126 -1.24666 -2.38143 
2.34245 -0.731166 -2.70265 2.39589 -0.775789 -2.69322 2.43424 -0.823211 -2.66916 
2.48703 -0.866937 -2.62271 2.54933 -0.908222 -2.56133 2.32158 -0.623187 -2.70564 
2.36393 -0.557953 -2.70648 2.40629 -0.492719 -2.70731 2.23367 -0.738181 -2.71181 
2.18305 -0.763656 -2.7269 2.13048 -0.779533 -2.74966 2.07934 -0.80304 -2.75741 
2.03145 -0.842682 -2.74987 1.98223 -0.87691 -2.72768 1.93421 -0.916373 -2.71275 
1.88279 -0.939413 -2.70568 1.8293 -0.952685 -2.69889 1.77554 -0.965598 -2.67729 
1.72345 -0.987632 -2.63321 1.67438 -1.02431 -2.5813 1.62229 -1.04634 -2.53722 
2.51956 -0.382379 -2.70058 2.93638 0.187164 -2.59344 3.00676 0.158497 -2.48035 
7.29987 0.213154 -2.60876 7.32579 0.164414 -2.54361 7.35168 0.120579 -2.41399 
7.40665 0.104366 -2.19665 7.29769 0.337098 -2.37713 1.99087 1.71307 -2.56061 
1.86692 1.76026 -2.44536 1.80275 1.79154 -2.3435 1.74449 1.79724 -2.27797 
1.68727 1.80016 -2.2494 1.62757 1.81564 -2.23601 1.57115 1.81613 -2.2296 
1.51656 1.80844 -2.23037 1.46079 1.80803 -2.26099 1.40217 1.82187 -2.30682 
1.34709 1.8191 -2.35218 1.29574 1.79744 -2.37479 1.24729 1.76133 -2.38218 
1.1935 1.74988 -2.38285 1.13448 1.76299 -2.3842 1.07824 1.76309 -2.38519 
2.6592 -0.893313 -2.40413 2.71989 -0.840577 -2.29763 2.56803 -1.01012 -2.3288 
2.52306 -1.07042 -2.20214 2.4768 -1.12202 -2.12018 2.42788 -1.15942 -2.06826 
2.38171 -1.20974 -2.01598 2.33514 -1.25817 -1.96374 2.28348 -1.28221 -1.91961 
2.23012 -1.29701 -1.89796 2.1787 -1.32005 -1.89089 2.13055 -1.35798 -1.89081 
2.07924 -1.3811 -1.89116 2.02587 -1.39455 -1.89177 1.9725 -1.408 -1.89238 
1.92119 -1.43111 -1.89272 1.87303 -1.46905 -1.89265 1.82172 -1.49216 -1.89299 
1.76834 -1.5055 -1.8936 1.71457 -1.51707 -1.89427 1.66076 -1.52842 -1.89494 
1.60657 -1.53799 -1.89566 1.5503 -1.53779 -1.89665 1.49088 -1.52277 -1.89806 
1.43461 -1.52257 -1.89906 1.38042 -1.53214 -1.89978 2.78135 -0.418756 -2.56171 
2.84632 -0.498381 -2.45044 2.86146 -0.557836 -2.36425 2.85149 -0.633955 -2.27809 
1.05241 -1.29093 -2.26711 1.114 -1.31882 -2.2283 1.17602 -1.3585 -2.18178 
1.22676 -1.40234 -2.12795 1.25255 -1.45098 -2.05221 1.27824 -1.49965 -1.97647 
0.951901 -1.35053 -2.20815 0.907204 -1.41253 -2.07403 0.861857 -1.47363 -1.9029 
2.81157 -0.31118 -2.31183 2.91453 -0.316299 -1.98381 2.97719 -0.315832 -1.75299 
3.03917 -0.283102 -1.60448 3.13876 0.232059 -2.27972 3.16958 0.301837 -2.19936 
3.17137 0.360648 -2.14641 3.16152 0.415494 -2.12321 3.15017 0.469496 -2.1173 
3.14051 0.523652 -2.11879 3.13885 0.57951 -2.12017 3.14221 0.636645 -2.11409 
3.11735 0.688187 -2.09354 3.10514 0.743041 -2.05063 3.10582 0.80085 -2.00013 
3.07855 0.852705 -1.95 3.05656 0.905478 -1.90721 3.04219 0.96029 -1.8495 
3.02735 1.01542 -1.77699 3.00067 1.06864 -1.68241 2.94917 1.11679 -1.58073 
2.8954 1.16507 -1.45687 2.85418 1.21653 -1.31063 2.79804 1.26347 -1.1423 
2.73461 1.29668 -0.973778 2.67529 1.30266 -0.819337 2.61858 1.29672 -0.679386 
2.56205 1.29038 -0.546836 2.50397 1.29175 -0.421904 2.44495 1.29798 -0.304529 
2.39249 1.27422 -0.201119 2.33906 1.25544 -0.10527 2.28384 1.24596 -0.0244839 
2.22669 1.24596 0.0486147 2.16858 1.25093 0.114172 2.11677 1.22627 0.180549 
[...]
POINT_DATA 849
SCALARS DY_raw double
LOOKUP_TABLE default
258.135 353.163 283.042 411.544 481.999 335.545 312.872 268.701 302.49 
281.834 220.751 276.381 233.448 517.982 201.352 325.661 291.302 283.277 
287.725 423.54 493.612 387.035 660.05 211.637 409.22 307.224 336.458 
839.531 615.189 614.324 326.183 416.886 288.53 571.42 531.424 372.043 
313.061 304.643 258.881 478.783 434.693 747.245 546.385 472.646 335.481 
609.841 561.086 424.266 336.864 496.332 880.336 446.904 589.076 456.042 
402.11 496.365 432.369 538.451 337.298 361.292 268.919 307.797 320.331 
309.37 193.773 227.659 567.076 324.11 347.696 257.957 290.617 274.675 
427.547 478.298 288.848 347.612 488.369 221.535 565.541 392.353 256.463 
287.55 296.486 296.486 296.141 306.107 334.033 382.432 357.318 354.433 
257.513 255.773 281.489 330.054 392.353 454.599 454.599 484.109 543.378 
543.378 560.832 631.579 631.579 656.024 749.095 717.541 654.347 646.455 
521.189 510.221 481.873 488.25 555.107 506.275 462.277 414.587 460.003 
430.597 460.764 490.5 442.225 486.701 505.888 508.313 555.666 617.015 
700.624 693.041 817.844 658.325 630.53 630.53 568.855 483.249 514.47 
617.006 493.043 397.523 360.663 371.778 254.301 250.776 263.7 281.438 
299.83 340.288 357.567 374.581 362.145 319.061 254.608 259.609 227.871 
488.369 415.136 415.136 393.77 396.828 434.959 463.246 499.889 301.006 
287.813 287.813 342.53 368.937 332.32 313.364 458.214 410.081 438.07 
447.022 447.022 410.969 442.973 442.973 404.411 449.447 449.447 413.634 
371.557 316.837 401.558 378.275 514.474 427.917 480.169 539.056 445.815 
437.4 359.67 332.889 308.612 306.805 325.465 333.847 311.014 323.202 
323.202 355.712 375.495 393.098 383.224 375.533 350.272 319.977 337.267 
324.746 474.043 426.021 414.655 357.518 375.309 386.661 403.14 434.174 
442.514 440.8 448.749 376.958 376.958 362.304 419.263 486.923 455.294 
457.53 472.388 444.419 463.989 476.151 435.286 274.675 257.929 246.919 
257.721 270.819 283.555 276.295 280.706 273.061 247.07 236.097 236.097 
224.506 253.179 282.446 279.126 285.192 256.302 271.006 276.525 288.519 
257.957 249.461 258.637 270.726 292.367 256.592 284.291 351.033 203.367 
190.898 197.047 220.924 220.924 242.533 234.24 269.734 243.013 235.186 
267.056 291.935 266.603 368.463 340.532 338.216 567.076 586.794 610.509 
656.145 554.317 234.22 252.396 264.118 337.387 294.332 299.976 299.976 
321.075 321.075 313.855 284.221 284.221 289.904 276.255 276.255 280.944 
370.539 371.305 359.92 417.595 362.493 353.394 364.837 364.791 400.063 
453.949 452.859 452.859 404.466 358.653 379.322 347.528 312.091 312.091 
300.146 346.803 304.429 304.429 313.524 318.871 324.75 324.75 357.778 
410.082 416.481 434.228 312.792 301.903 321.527 344.446 285.639 310.759 
324.124 273.172 296.865 441.076 505.447 455.146 415.591 329.859 348.854 
360.047 338.692 383.85 347.278 344.991 396.493 374.619 380.711 433.435 
378.401 378.401 437.274 279.57 363.067 319.354 246.835 282.696 283.316 
288.87 297.825 320.346 324.045 322.236 365.348 279.809 338.064 319.354 
260.107 309.48 297.611 284.613 306.378 286.032 288.459 314.354 297.95 
313.69 340.643 379.297 357.891 373.319 387.451 343.799 373.809 420.061 
405.761 412.262 453.762 400.895 353.841 343.182 300.605 287.656 287.656 
281.888 294.661 298.802 370.192 418.887 442.686 422.408 401.639 412.472 
622.78 649.272 663.891 542.167 574.315 469.357 499.193 499.193 499.615 
499.615 517.759 457.876 414.744 430.138 374.731 407.28 419.323 454.251 
432.372 470.31 495.034 505.787 537.702 609.63 618.856 563.797 555.889 
567.782 432.369 494.206 567.441 457.633 445.408 496.365 537.56 768.798 
598.96 636.843 661.357 707.241 758.699 697.197 680.813 584.338 550.348 
532.004 407.289 439.444 418.695 403.5 435.883 435.883 450.263 449.633 
488.484 506.795 518.952 396.657 453.292 413.025 407.348 407.348 549.849 
506.651 480.072 432.558 446.417 446.417 438.221 432.426 463.789 421.411 
415.099 422.169 686.971 678.854 695.358 557.799 677.842 510.611 549.484 
486.148 417.366 433.746 451.673 620.927 691.731 695.801 648.547 550.014 
591.827 623.347 382.591 397.198 441.93 417.81 469.116 445.495 365.459 
335.481 376.617 456.464 400.422 483.968 436.342 430.96 434.673 508.848 
518.59 510.417 492.173 445.032 438.501 421.788 433.112 445.544 502.417 
536.859 557.21 585.369 606.639 649.781 666.031 696.042 690.254 706.039 
504.147 504.147 451.38 438.126 483.157 452.041 481.665 562.957 534.496 
516.346 651.073 564.732 586.071 648.74 585.958 491.299 477.013 523.678 
399.981 440.163 614.596 730.072 771.558 582.135 628.902 330.282 304.831 
288.023 288.023 267.167 228.143 252.197 257.397 238.844 250.564 536.673 
521.245 641.986 700.441 674.71 741.566 614.319 681.227 480.616 522.548 
453.92 396.568 429.803 398.112 391.101 522.916 540.6 518.809 458.202 
441.02 404.453 508.601 543.288 568.806 607.309 612.371 674.556 691.078 
604.846 606.219 606.219 537.728 665.633 665.633 670.019 829.185 779.627 
716.607 682.661 278.5 266.293 264.92 285.927 291.797 250.147 220.956 
251.352 229.743 286.487 249.279 298.406 321.786 349.107 349.287 357.503 
353.336 355.035 345.376 292.796 292.796 281.1 272.897 298.953 257.302 
322.306 312.987 355.482 316.518 387.896 405.265 419.154 453.23 439.984 
359.994 395.46 375.942 323.709 383.671 521.309 608.8 527.917 449.668 
438.363 481.708 390.276 394.901 394.901 433.836 479.511 479.511 518.579 
477.114 510.966 456.384 461.111 461.111 495.421 528.59 528.59 513.214 
507.299 546.913 593.906 631.498 621.35 544.53 594.934 635.098 660.29 
748.971 699.984 662.587 311.471 335.863 334.668 307.234 292.209 276.798 
277.02 620.505 614.394 537.11 490.839 490.839 516.13 540.602 540.602 
434.317 389.746 389.746 412.129 499.884 469.858 364.975 424.951 405.741 
444.877 445.175 385.033 359.018 371.651 393.649 364.366 433.28 380.048 
287.695 252.812 271.419 275.405 289.922 291.769 297.068 362.836 363.541 
499.709 393.642 351.581 377.32 313.121 293.578 316.862 291.768 320.711 
325.664 360.708 422.727 400.056 508.733 427.773 339.108 342.482 310.22 
331.068 334.853 271.351 299.584 313.51 299.622 310.209 311.83 311.83 
253.565 253.565 217.456 207.183 239.963 220.261 222.223 291.362 340.699 
361.769 380.772 380.772 371.469 293.619 255.622 225.799 167.152 165.512 
163.908 165.67 159.744 180.809 169.828 198.224 196.388 339.192 358.282 
293.418 294.3 334.458 409.769 355.226 300.727 307.669 272.698 300.26 
284.681 265.273 310.732 304.345 290.004 306.613 271.347 244.973 244.973 
240.464 298.542 351.15 431.233 460.181 488.336 425.155 425.155 405.067 
306.954 295.129 339.169 325.55 339.664 346.907 403.542 395.44 359.974 
270.908 255.672 216.565 239.598 227.237 240.75 229.155 254.946 286.814 
325.353 322.63 281.834 326.919 360.944 391.038 312.032 367.429 327.191 
338.136 338.136 361.469 437.077 455.205 451.872 499.195 490.861 428.524 
373.748 316.711 330.006 331.726 365.695 374.331 389.306 397.746 438.63 
418.543 350.967 350.967 
FIELD FieldData 7
DY_minmax 1 849 double
0.136542 0.268417 0.171106 0.349435 0.447209 0.243967 0.212503 0.151205 0.198095 
0.16943 0.0846617 0.161863 0.102282 0.497144 0.0577417 0.230251 0.182569 0.171432 
0.177606 0.366083 0.463325 0.315423 0.694299 0.0720142 0.346209 0.204666 0.245234 
0.943373 0.632042 0.630842 0.230975 0.356849 0.178722 0.571303 0.515797 0.294617 
0.212765 0.201083 0.137576 0.442746 0.381559 0.815303 0.536559 0.43423 0.243878 
0.624621 0.556961 0.36709 0.245798 0.467099 1 0.398505 0.595804 0.411186 
0.336343 0.467144 0.378335 0.52555 0.2464 0.279697 0.151508 0.205461 0.222854 
0.207644 0.0472237 0.0942484 0.565274 0.228098 0.26083 0.136295 0.181618 0.159495 
0.371643 0.442072 0.179163 0.260713 0.456049 0.0857505 0.563144 0.322803 0.134221 
0.177363 0.189763 0.189763 0.189284 0.203114 0.24187 0.309034 0.274183 0.270179 
0.135679 0.133264 0.168951 0.236347 0.322803 0.409184 0.409184 0.450137 0.532387 
0.532387 0.556608 0.654788 0.654788 0.688711 0.817871 0.774081 0.686385 0.675433 
0.501594 0.486374 0.447034 0.455884 0.548665 0.480897 0.419839 0.353658 0.416684 
0.375876 0.41774 0.459006 0.392013 0.453733 0.48036 0.483726 0.54944 0.634577 
0.750606 0.740081 0.913276 0.691904 0.653333 0.653333 0.567743 0.448944 0.49227 
0.634564 0.462535 0.329977 0.278825 0.294249 0.131222 0.126329 0.144265 0.16888 
0.194404 0.250549 0.274528 0.29814 0.280882 0.221092 0.131647 0.138587 0.0945434 
0.456049 0.35442 0.35442 0.324769 0.329013 0.381929 0.421184 0.472035 0.196036 
0.177728 0.177728 0.253661 0.290307 0.239492 0.213185 0.414201 0.347404 0.386246 
0.39867 0.39867 0.348636 0.393051 0.393051 0.339536 0.402034 0.402034 0.352335 
0.293942 0.218005 0.335576 0.303266 0.492276 0.372157 0.444669 0.526389 0.396994 
0.385316 0.277447 0.240281 0.206591 0.204083 0.229979 0.241612 0.209925 0.226838 
0.226838 0.271954 0.299408 0.323836 0.310134 0.29946 0.264405 0.222363 0.246357 
0.228981 0.436168 0.369526 0.353753 0.27446 0.29915 0.314904 0.337772 0.38084 
0.392414 0.390035 0.401066 0.301438 0.301438 0.281103 0.360147 0.454041 0.410149 
0.413252 0.433871 0.395057 0.422215 0.439093 0.382382 0.159495 0.136256 0.120977 
0.135968 0.154144 0.171818 0.161744 0.167864 0.157256 0.121186 0.105958 0.105958 
0.0898737 0.129663 0.17028 0.165672 0.17409 0.133999 0.154404 0.162062 0.178707 
0.136295 0.124505 0.137238 0.154015 0.184047 0.134401 0.17284 0.265461 0.0605371 
0.0432339 0.0517674 0.0849021 0.0849021 0.11489 0.103382 0.152639 0.115557 0.104695 
0.148922 0.183448 0.148293 0.289649 0.250889 0.247673 0.565274 0.592638 0.625549 
0.688879 0.547568 0.103354 0.128577 0.144845 0.246524 0.186773 0.194606 0.194606 
0.223887 0.223887 0.213867 0.172743 0.172743 0.180629 0.161687 0.161687 0.168195 
0.29253 0.293593 0.277793 0.357832 0.281364 0.268738 0.284617 0.284554 0.333502 
0.408282 0.40677 0.40677 0.339612 0.276036 0.304719 0.260597 0.21142 0.21142 
0.194842 0.25959 0.200787 0.200787 0.213408 0.220828 0.228987 0.228987 0.274821 
0.347406 0.356286 0.380915 0.212391 0.197281 0.224514 0.25632 0.174711 0.20957 
0.228118 0.157409 0.190289 0.390417 0.479749 0.409943 0.355052 0.236076 0.262437 
0.27797 0.248335 0.311002 0.260249 0.257077 0.328548 0.298192 0.306646 0.379814 
0.303441 0.303441 0.385142 0.166288 0.282162 0.221498 0.12086 0.170626 0.171487 
0.179194 0.191622 0.222876 0.228008 0.225497 0.285327 0.16662 0.247463 0.221499 
0.139278 0.207796 0.191325 0.173286 0.20349 0.175255 0.178624 0.214559 0.191795 
0.213638 0.251042 0.304684 0.274978 0.296389 0.316 0.255422 0.297067 0.361254 
0.34141 0.350432 0.408023 0.334656 0.269358 0.254566 0.19548 0.17751 0.17751 
0.169505 0.18723 0.192978 0.292049 0.359625 0.392652 0.364511 0.335689 0.350722 
0.642577 0.679341 0.699628 0.530706 0.575321 0.429664 0.47107 0.47107 0.471655 
0.471655 0.496834 0.413732 0.353876 0.375238 0.298348 0.343517 0.36023 0.408701 
0.378338 0.430987 0.465298 0.48022 0.52451 0.624328 0.637131 0.560723 0.549749 
0.566254 0.378335 0.464149 0.56578 0.413395 0.39643 0.467144 0.524313 0.845213 
0.60952 0.662093 0.696112 0.759788 0.831198 0.745849 0.723112 0.589229 0.54206 
0.516602 0.34353 0.388153 0.359358 0.338272 0.383211 0.383211 0.403167 0.402293 
0.456209 0.481619 0.49849 0.328775 0.40737 0.351491 0.343612 0.343612 0.541368 
0.481419 0.444534 0.378597 0.39783 0.39783 0.386456 0.378413 0.421937 0.363127 
0.354368 0.36418 0.731658 0.720393 0.743296 0.5524 0.718989 0.486915 0.540861 
0.452967 0.357514 0.380245 0.405124 0.640005 0.738263 0.743912 0.678335 0.541596 
0.599622 0.643364 0.309256 0.329526 0.391603 0.35813 0.42933 0.39655 0.285481 
0.243878 0.300965 0.411773 0.334 0.449942 0.383847 0.376379 0.381531 0.484468 
0.497987 0.486646 0.461328 0.395908 0.386844 0.36365 0.379365 0.396619 0.475544 
0.523341 0.551583 0.59066 0.620177 0.680048 0.702599 0.744246 0.736214 0.75812 
0.477945 0.477945 0.404718 0.386323 0.448816 0.405634 0.446745 0.559558 0.52006 
0.494874 0.681841 0.562021 0.591635 0.678603 0.591477 0.460115 0.440289 0.505049 
0.333389 0.38915 0.63122 0.791471 0.849044 0.586172 0.651073 0.236663 0.201344 
0.178018 0.178018 0.149076 0.0949202 0.128302 0.135517 0.109771 0.126035 0.523083 
0.501673 0.66923 0.750352 0.714643 0.807423 0.630835 0.723687 0.44529 0.50348 
0.408242 0.328652 0.374773 0.330795 0.321065 0.503991 0.528532 0.498292 0.414185 
0.39034 0.339594 0.484126 0.532262 0.567675 0.621107 0.628132 0.714429 0.737358 
0.617689 0.619594 0.619594 0.524546 0.702047 0.702047 0.708133 0.929016 0.860242 
0.772785 0.725676 0.164804 0.147863 0.145957 0.17511 0.183256 0.125457 0.0849466 
0.127129 0.0971402 0.175888 0.124252 0.192428 0.224873 0.262788 0.263037 0.274439 
0.268656 0.271014 0.25761 0.184643 0.184643 0.168411 0.157027 0.193187 0.135386 
0.225595 0.212663 0.271636 0.217563 0.316617 0.340721 0.359995 0.407285 0.388902 
0.277896 0.327114 0.300028 0.227542 0.310754 0.501761 0.623176 0.510932 0.402341 
0.386653 0.446804 0.31992 0.326339 0.326339 0.38037 0.443756 0.443756 0.497972 
0.44043 0.487408 0.411661 0.418221 0.418221 0.465835 0.511865 0.511865 0.490527 
0.482318 0.537293 0.602507 0.654676 0.640593 0.533985 0.603934 0.659671 0.694632 
0.817698 0.749716 0.69782 0.210559 0.244408 0.24275 0.204679 0.183828 0.162442 
0.16275 0.63942 0.630939 0.523689 0.459476 0.459476 0.494573 0.528535 0.528535 
0.381038 0.319184 0.319184 0.350246 0.472028 0.43036 0.284809 0.36804 0.341381 
0.395692 0.396106 0.312644 0.276542 0.294073 0.324602 0.283963 0.3796 0.305726 
0.177564 0.129154 0.154977 0.160508 0.180654 0.183217 0.190571 0.28184 0.282818 
0.471785 0.324591 0.266221 0.301941 0.212848 0.185728 0.21804 0.183216 0.223381 
0.230255 0.278887 0.364954 0.333492 0.484308 0.371956 0.248912 0.253594 0.208823 
0.237755 0.243006 0.154882 0.194062 0.213388 0.194115 0.208807 0.211057 0.211057 
0.1302 0.1302 0.0800895 0.0658334 0.111324 0.0839821 0.0867047 0.182653 0.25112 
0.28036 0.306732 0.306732 0.293821 0.185784 0.133055 0.0916682 0.01028 0.00800482 
0.00577842 0.00822415 0 0.0292332 0.0139936 0.0534007 0.0508525 0.249028 0.275521 
0.185505 0.18673 0.242459 0.346972 0.271279 0.195649 0.205282 0.156752 0.195001 
0.173381 0.146448 0.209533 0.200669 0.180769 0.203817 0.154877 0.118276 0.118276 
0.11202 0.192616 0.265623 0.376758 0.41693 0.456003 0.368323 0.368323 0.340446 
0.204291 0.187881 0.248997 0.230097 0.249683 0.259735 0.33833 0.327086 0.277869 
0.154268 0.133124 0.0788533 0.110817 0.093663 0.112415 0.096325 0.132116 0.176342 
0.229823 0.226044 0.16943 0.231996 0.279214 0.320977 0.211338 0.288214 0.232374 
0.247563 0.247563 0.279943 0.384869 0.410026 0.4054 0.471073 0.459507 0.372998 
0.296984 0.217831 0.23628 0.238667 0.285808 0.297792 0.318574 0.330286 0.387023 
0.359148 0.265369 0.265369 
WidthEq 1 849 double
1.23537 1.45019 1.76081 1.32652 1.81849 2.03077 1.20763 1.81999 2.44138 
2.26957 1.75715 1.35824 1.28235 1.5246 1.13122 2.80234 3.01994 1.02576 
2.18251 2.35093 1.73979 3.08934 2.01326 1.65842 1.54922 2.96491 1.829 
2.51285 2.12231 1.85273 2.462 2.89789 1.58387 2.52533 2.14481 4.85673 
2.13273 2.85722 1.93504 3.21718 3.94321 3.12476 3.85692 3.66524 2.37627 
3.40216 2.27962 3.59032 2.67034 4.49639 1.62125 2.12932 2.23315 3.59602 
4.03579 2.55007 3.26169 3.96246 4.43852 3.94427 2.54929 3.45176 3.00191 
3.17585 3.93467 1.62209 3.98254 3.8919 3.60152 3.28156 3.59829 3.13484 
4.22097 3.53053 3.34174 1.92497 2.6015 2.48752 2.64618 2.45249 3.56622 
3.94273 3.93109 3.93109 3.72003 3.35796 2.9531 2.63964 2.56624 2.44834 
2.99652 3.36166 3.51475 3.82775 2.45249 3.12947 3.12947 3.27072 3.27132 
3.27132 3.18615 2.89494 2.89494 2.79686 2.34247 2.30325 2.29259 2.06185 
2.19008 2.28482 2.57961 2.75878 2.6501 2.66305 2.87579 2.95591 3.06953 
3.10581 3.16171 3.14355 3.44798 3.34198 3.51661 3.64756 3.75294 2.47615 
2.08783 2.12767 1.87662 2.39037 2.69542 2.69542 2.91171 3.26646 3.01544 
2.55862 2.45472 2.59495 3.20342 3.94863 2.96571 3.55577 3.7344 3.70499 
3.59325 3.20865 3.23839 3.0068 3.28347 3.55431 3.85943 3.96594 4.06411 
2.6015 3.3043 3.3043 3.45299 3.45208 3.33023 3.30622 3.31528 2.77291 
2.98264 2.98264 2.90346 2.65464 2.81296 3.2448 3.52908 3.33023 3.02555 
2.85745 2.85745 2.92281 3.20349 3.20349 3.32509 3.49432 3.49432 3.58775 
3.56245 3.67534 3.52396 3.5442 3.04698 3.64085 3.6295 3.47922 3.95919 
4.00808 3.71038 4.203 3.87462 3.56899 3.37174 3.28738 3.59888 3.52889 
3.52889 2.96451 2.97768 2.66069 2.22388 2.30404 2.33888 2.74383 2.82875 
3.4972 3.59527 3.58511 3.40127 3.6299 3.82411 4.09147 4.13324 4.11266 
3.81407 3.46024 3.33608 3.3573 3.3573 3.28666 3.06794 2.84198 3.00817 
3.20631 3.49895 4.23065 4.11786 3.86376 3.51336 3.13484 3.65082 3.55503 
3.5809 3.18262 3.18564 3.13336 2.93721 3.00231 3.08622 3.45745 3.45745 
3.48682 3.67947 3.68539 3.61565 3.38303 3.42472 3.49044 3.55 3.45912 
3.28156 3.2903 3.4557 3.59856 2.99358 3.23335 3.24583 3.51444 2.71319 
2.4189 2.41182 2.03538 2.03538 2.01916 2.08241 2.05511 2.20224 2.29857 
2.21486 2.07595 1.80288 3.72152 3.96653 4.17235 3.98254 3.60546 3.58129 
3.31407 4.26534 4.18779 3.85745 3.57376 3.33576 3.18992 3.06199 3.06199 
2.88656 2.88656 2.93133 3.04975 3.04975 3.1139 3.17856 3.17856 3.10824 
3.08341 3.70804 3.32128 3.11554 3.12517 2.87756 2.80406 2.58148 2.49049 
2.26773 2.34727 2.34727 2.44615 2.47703 2.30973 2.40157 2.54631 2.54631 
2.59705 2.31565 2.77313 2.77313 2.80589 2.80406 2.70806 2.70806 3.87484 
3.93775 3.77641 3.60684 3.26461 2.95434 2.59168 2.48672 2.51126 2.67559 
3.3283 2.73364 2.56212 4.70421 4.17275 3.93901 4.06806 4.51782 4.18448 
3.85328 3.48429 3.33167 3.12958 3.00127 2.9158 2.76474 2.71049 2.6177 
2.8121 2.8121 2.72022 3.42399 3.24905 3.36233 3.90104 3.75114 3.75409 
3.69378 3.52883 3.55716 3.07396 2.83315 2.6229 2.6615 2.47974 2.47785 
2.374 2.31948 2.32869 2.24316 2.17925 2.11548 2.11206 2.07783 2.11385 
2.16616 2.11932 1.93055 2.01937 1.88502 1.7249 1.85263 1.72418 1.53824 
1.68252 1.66521 1.56724 1.56476 1.57829 1.52299 1.49749 1.4896 1.4896 
1.62484 1.68632 1.80364 4.3236 4.11575 3.87196 3.82285 3.65169 3.84301 
2.67581 2.80539 2.35446 2.05209 2.15332 2.13991 2.26751 2.26751 2.46416 
2.46416 2.52647 2.78417 2.90785 3.02123 3.76289 3.96998 4.06678 4.55635 
4.41535 4.25854 4.13726 4.11955 3.94855 3.42139 3.06676 3.12503 3.0771 
2.78201 3.26169 2.93926 2.20982 3.17771 3.12967 2.55007 2.569 2.00242 
3.03886 3.0132 2.62443 2.06031 1.94963 2.12031 2.15848 2.61994 3.03067 
3.38634 3.72144 3.37552 3.19838 3.20881 3.11869 3.11869 3.05404 2.98626 
3.17669 3.39014 3.76189 3.84401 3.37646 3.04725 2.74221 2.74221 2.82372 
2.42718 2.40823 2.20149 2.24351 2.24351 2.39095 2.4105 2.35142 3.0224 
3.35805 3.57476 3.26324 3.1243 2.88389 3.27267 2.97232 4.1827 3.77646 
3.64009 3.77679 3.61222 3.16599 4.26822 4.15166 3.92502 3.40452 4.12595 
4.05964 3.78186 2.21245 1.83381 1.62176 1.49025 1.69814 1.78627 2.13494 
2.37627 4.03517 4.0697 4.37309 3.35618 3.34665 3.14847 3.22032 3.03738 
3.1009 3.17106 2.84455 2.90939 3.10826 2.98262 3.14257 3.20162 3.00576 
2.5778 2.55732 2.33392 2.04902 1.9789 1.77262 1.65042 1.76156 1.84684 
2.69442 2.69442 2.88033 2.70275 2.64376 2.21133 2.08559 2.06396 1.81345 
1.82737 1.75612 1.93884 1.90534 1.75343 1.86983 1.99873 1.9088 1.82517 
1.91012 1.88401 3.14314 2.64532 2.60489 3.0763 3.24312 2.39832 2.29991 
2.3618 2.3618 2.34622 2.25334 2.28501 2.20287 2.10691 2.20895 2.72658 
3.51463 2.55902 2.44669 2.5769 2.68726 3.36015 3.0871 3.40478 3.0234 
3.21553 3.52649 3.43174 3.93189 4.30296 3.28615 2.98719 3.04897 3.29488 
3.24496 3.23645 3.35428 2.92378 2.54926 2.37063 2.30377 2.1336 2.14322 
2.08784 2.07757 2.07757 2.12378 1.98518 1.98518 2.09778 1.9644 2.16499 
2.30256 2.18849 2.9809 2.91007 2.70381 2.54899 2.43143 2.50901 2.54482 
2.46575 2.51261 2.33676 2.61885 2.5263 2.62088 2.31145 2.09365 2.06687 
1.85966 1.90073 1.77379 1.91489 1.91489 2.40837 2.53929 2.82775 2.21566 
2.78267 2.83179 1.98703 1.86616 1.98892 4.0919 3.38349 2.94189 2.62174 
2.52105 2.36692 2.38357 2.63333 2.55624 2.52275 2.24687 2.10967 2.50439 
2.10684 1.86385 1.90858 2.00859 2.00859 1.84983 1.81171 1.81171 1.62751 
1.57447 1.70337 1.63578 1.59641 1.59641 1.39448 1.22773 1.22773 1.12157 
1.0843 1 1.08681 1.22245 1.45698 1.53034 2.60234 2.42647 2.28032 