# vtk DataFile Version 3.0
vtk output
ASCII
DATASET POLYDATA
POINTS 625 float
0.575267 0.786462 1.95065 1.20439 0.438898 1.7566 2.35024 0.365307 1.8932 
2.3255 0.311047 1.67288 -0.201161 0.94317 1.26237 1.38134 1.6459 1.61642 
0.972088 -0.412568 0.795823 2.03038 -0.574816 0.950258 -0.328578 0.808521 1.01955 
2.24026 -0.446529 1.09403 2.71545 0.207642 1.29146 1.30946 2.11666 1.29191 
1.9402 1.89664 1.33019 -0.00420732 -0.460237 0.382209 1.80244 2.32205 0.987631 
-0.22138 -0.424071 -0.256796 -0.724207 0.572807 -0.255669 -0.761666 0.779987 -0.0807709 
-0.753236 1.26155 0.0193612 3.90092 0.41996 0.424499 0.477115 -0.991498 -0.486865 
3.31771 2.33158 0.572561 1.84633 -0.889103 -0.490392 -0.838309 0.643322 -0.570207 
-0.816409 0.811515 -0.630585 3.62827 1.42273 0.0836599 3.64616 1.53917 0.247231 
3.2409 2.05556 0.093848 3.18355 2.20017 0.089294 1.79896 -0.877233 -0.906012 
3.24766 1.01199 -0.325724 2.42356 2.73433 -0.0807159 0.195278 -0.501845 -1.24708 
2.67567 -0.571199 -1.00152 -0.300807 1.83283 -0.832736 3.40457 0.16839 -0.752931 
-0.352884 1.61108 -1.09112 3.05727 -0.174775 -1.00674 3.15609 -0.106754 -0.979668 
3.7347 1.20025 -0.788731 3.55893 1.49119 -0.803657 0.954151 -0.514976 -1.97287 
0.0606185 0.029643 -1.97921 -0.228605 1.15622 -1.85451 1.58817 2.68179 -1.36887 
1.71749 2.65686 -1.21962 2.9117 2.55709 -1.08199 0.515346 2.26792 -1.66467 
3.59072 1.79535 -1.42323 -0.116569 0.955646 -2.42996 1.58742 0.626806 -2.68372 
2.15932 1.22861 -2.48425 1.94488 1.52703 -2.45129 1.63373 1.87782 -2.42036 
1.58532 1.90391 -2.42141 1.53513 1.92696 -2.41569 1.47844 1.9385 -2.39794 
1.4119 1.93253 -2.36223 1.35142 1.93787 -2.32339 1.29291 1.946 -2.30658 
1.22759 1.93991 -2.33174 1.15779 1.92518 -2.36689 1.08426 1.90436 -2.38091 
1.00686 1.87752 -2.36617 0.928505 1.84921 -2.34424 0.851106 1.82237 -2.3295 
0.773706 1.79554 -2.31477 0.694403 1.76574 -2.28565 0.614241 1.73441 -2.24931 
0.536633 1.7037 -2.22016 0.470764 1.67262 -2.21239 0.420776 1.63493 -2.21151 
0.36529 1.59822 -2.20353 0.311588 1.55457 -2.17386 0.2437 1.51659 -2.13727 
0.178374 1.47923 -2.10786 0.137049 1.43286 -2.09236 0.104419 1.38178 -2.07668 
0.0611878 1.33245 -2.0468 -0.00577016 1.2926 -2.00539 -0.0762523 1.25196 -1.95699 
-0.140599 1.20298 -1.90695 1.99324 1.50084 -2.45027 2.04154 1.47456 -2.44927 
2.08982 1.44816 -2.45593 2.13198 1.4139 -2.47265 2.15293 1.3612 -2.49596 
2.15214 1.30112 -2.50079 1.53906 0.652992 -2.68474 1.49066 0.679082 -2.68578 
1.44141 0.703615 -2.68726 1.38663 0.718104 -2.68391 1.323 0.716667 -2.66975 
1.26341 0.723673 -2.63045 1.20751 0.737581 -2.58924 1.14894 0.745884 -2.56478 
1.08269 0.738678 -2.57504 1.0164 0.731377 -2.58532 0.959798 0.742465 -2.58291 
0.901238 0.750501 -2.56613 0.8322 0.738441 -2.5625 0.760292 0.716873 -2.56883 
0.697331 0.690322 -2.58263 0.648296 0.654113 -2.58894 0.592907 0.617355 -2.58096 
0.540805 0.572831 -2.55126 0.480748 0.528623 -2.5073 0.425883 0.479607 -2.45601 
0.365618 0.431521 -2.39762 0.318279 0.372444 -2.32453 0.275362 0.304988 -2.2297 
0.224307 0.239941 -2.12782 0.161927 0.185017 -2.04061 0.11764 0.130275 -1.9891 
0.0868999 0.0781734 -1.97338 -0.11557 0.994664 -2.34047 -0.140457 1.04114 -2.22236 
-0.18162 1.0925 -2.05711 3.51658 1.79562 -1.56771 3.45115 1.79523 -1.69083 
3.38866 1.79298 -1.78854 3.3297 1.79656 -1.86933 3.27721 1.81232 -1.94167 
3.21949 1.81834 -2.01671 3.16724 1.83456 -2.08892 3.13257 1.8839 -2.14438 
3.09446 1.92743 -2.18622 3.0498 1.95961 -2.2084 3.0024 1.98727 -2.21661 
2.95316 2.01181 -2.21809 2.89938 2.02787 -2.22191 2.83949 2.03253 -2.22888 
2.79109 2.05862 -2.22993 2.75242 2.1032 -2.21826 2.70121 2.12494 -2.19769 
2.63649 2.12238 -2.16103 2.58147 2.13821 -2.11168 2.53809 2.17548 -2.06401 
2.48671 2.19722 -2.03584 2.42764 2.20461 -2.01164 2.37688 2.22781 -1.97546 
2.32146 2.242 -1.94938 2.27542 2.27251 -1.9492 2.22214 2.2886 -1.97583 
2.17106 2.3091 -1.99363 2.11896 2.32919 -1.97352 2.06395 2.34475 -1.93185 
2.00531 2.35324 -1.89975 1.94269 2.3531 -1.90044 1.88535 2.36191 -1.92147 
1.82558 2.36649 -1.93607 1.7762 2.39137 -1.92224 1.74007 2.44217 -1.87082 
1.70707 2.49989 -1.79216 1.67121 2.55484 -1.68393 1.63112 2.61161 -1.5403 
3.58493 1.85114 -1.28034 3.55726 1.89997 -1.18245 3.51846 1.9427 -1.13814 
3.48864 2.00374 -1.11937 3.46369 2.07363 -1.1083 3.43507 2.13634 -1.10683 
3.39597 2.17892 -1.12612 3.35337 2.21435 -1.16261 3.31071 2.24967 -1.19912 
3.27068 2.29051 -1.21891 3.23666 2.34284 -1.2279 3.19567 2.3822 -1.24049 
3.15011 2.41299 -1.25544 3.10085 2.43779 -1.24924 3.04778 2.45668 -1.21426 
2.99369 2.47425 -1.16442 2.94598 2.50343 -1.11899 3.59421 1.6548 -1.11104 
1.5197 2.72419 -1.40227 1.44857 2.72635 -1.4265 1.37779 2.70558 -1.43506 
1.32273 2.66947 -1.42944 1.29844 2.62186 -1.44245 1.26011 2.58983 -1.48461 
1.2223 2.56749 -1.56284 1.16796 2.55411 -1.64142 1.10179 2.54115 -1.6986 
1.0284 2.52013 -1.71264 0.952693 2.49237 -1.69787 0.884919 2.45833 -1.67572 
0.833977 2.41916 -1.66763 0.779445 2.38394 -1.66685 0.729456 2.34625 -1.66596 
0.663587 2.31517 -1.6582 0.589791 2.29037 -1.65783 1.66301 2.68024 -1.28812 
-0.316123 1.17104 -1.69273 -0.397854 1.16107 -1.53785 -0.487099 1.12025 -1.38775 
-0.581558 1.06366 -1.22379 -0.669771 0.995484 -1.04105 -0.742047 0.9089 -0.839655 
1.01376 -0.486489 -1.95912 1.05287 -0.446903 -1.9458 1.09143 -0.405019 -1.93971 
1.14616 -0.36591 -1.95493 1.20368 -0.316339 -2.01337 1.28194 -0.266023 -2.11467 
1.37184 -0.216024 -2.23738 1.45888 -0.170464 -2.3385 1.53142 -0.129025 -2.39662 
1.58331 -0.0883777 -2.4119 1.63689 -0.0546296 -2.40549 1.68584 -0.018373 -2.39918 
1.74991 0.0136857 -2.40698 1.81523 0.0510496 -2.4364 1.86037 0.103337 -2.48068 
1.89767 0.161865 -2.53234 1.94205 0.216556 -2.58385 1.99871 0.262602 -2.62788 
2.04024 0.312854 -2.6578 2.07182 0.362505 -2.66629 2.11029 0.404436 -2.6602 
2.16989 0.432924 -2.64645 2.23111 0.46054 -2.63267 2.2791 0.495322 -2.61916 
2.33173 0.52759 -2.60556 2.37981 0.562319 -2.59205 2.44282 0.588964 -2.57823 
2.51466 0.610706 -2.56424 2.58726 0.630023 -2.55066 2.65538 0.640732 -2.53943 
2.7165 0.638373 -2.53183 2.78373 0.647421 -2.52106 2.85096 0.656469 -2.5103 
2.91108 0.652544 -2.49552 2.9754 0.657059 -2.4632 3.03603 0.655577 -2.40972 
3.08401 0.631079 -2.3474 3.13024 0.603629 -2.27829 3.18248 0.587674 -2.1984 
3.23223 0.567386 -2.11209 3.28877 0.560302 -2.01456 3.35024 0.56569 -1.92905 
3.40558 0.580404 -1.85769 3.44786 0.606305 -1.80101 3.49211 0.629141 -1.73708 
3.52295 0.659239 -1.67342 3.55465 0.690868 -1.61697 3.59996 0.719112 -1.57466 
3.63187 0.754622 -1.53263 3.65308 0.79193 -1.4764 3.67174 0.828623 -1.41299 
3.69125 0.86685 -1.3568 3.71257 0.908087 -1.315 3.7322 0.950243 -1.27322 
3.73858 0.993589 -1.21009 3.71981 1.04418 -1.124 3.69932 1.09236 -1.01768 
3.70609 1.13833 -0.906292 3.63609 1.40212 -0.863229 3.68549 1.31011 -0.858444 
3.7555 1.08082 -0.629416 3.7329 0.983035 -0.463783 3.70065 0.892101 -0.296113 
3.69546 0.802177 -0.134175 3.71656 0.735418 0.00740889 3.74864 0.683866 0.12307 
3.78551 0.639833 0.210409 3.82433 0.598679 0.283341 3.86373 0.556005 0.348419 
3.89796 0.498415 0.402116 3.46119 1.4566 -0.556814 3.39893 1.39297 -0.379873 
3.36879 1.32285 -0.291518 3.3625 1.25563 -0.268049 3.34669 1.20143 -0.273659 
3.32156 1.15427 -0.286683 3.28773 1.11183 -0.29989 3.25079 1.07107 -0.313163 
3.75044 1.24219 -0.574033 3.74774 1.27371 -0.391879 3.71913 1.3144 -0.239872 
3.67709 1.36375 -0.0846905 3.43793 0.118427 -0.924006 3.4354 0.0938479 -1.08191 
3.40232 0.079506 -1.20108 3.37032 0.0473333 -1.25515 3.32539 -0.00107741 -1.2253 
3.24875 -0.0522656 -1.12396 3.11688 -0.146287 -0.992989 3.12598 -0.073584 -0.809072 
3.12122 -0.0441627 -0.674011 3.12644 -0.00617884 -0.589257 3.1376 0.0432673 -0.55727 
3.19406 0.0828574 -0.574699 3.28583 0.122968 -0.645809 3.04823 -0.196726 -1.14209 
3.03815 -0.220107 -1.27024 3.02447 -0.245525 -1.38404 2.99839 -0.268227 -1.48367 
2.94289 -0.286968 -1.54062 2.86941 -0.315306 -1.52822 2.7926 -0.368487 -1.42223 
2.73035 -0.456518 -1.23506 2.97289 -0.241728 -0.833414 2.91186 -0.31534 -0.68124 
2.85814 -0.380944 -0.5722 2.79949 -0.4299 -0.513781 2.76092 -0.475768 -0.505435 
2.73709 -0.51702 -0.5425 2.72105 -0.547238 -0.637261 2.70463 -0.564308 -0.795462 
-0.340791 1.6633 -1.07115 -0.342305 1.7189 -1.03705 -0.333278 1.76281 -0.981075 
-0.317366 1.79899 -0.910522 3.45464 0.212139 -0.666127 3.4893 0.238409 -0.556998 
3.48772 0.266946 -0.419166 3.49713 0.282117 -0.259741 3.53873 0.282443 -0.109277 
3.59509 0.280765 0.0198537 3.65545 0.2849 0.120207 3.70893 0.296751 0.205979 
3.74853 0.318169 0.284261 3.79502 0.338927 0.355691 3.84448 0.370481 0.40685 
2.59557 -0.582063 -1.14908 2.52702 -0.587982 -1.26613 2.46055 -0.596966 -1.34287 
2.3921 -0.613424 -1.38328 2.32994 -0.638537 -1.4043 2.28016 -0.672347 -1.41785 
2.21711 -0.698845 -1.43165 2.14515 -0.720509 -1.438 2.07346 -0.737147 -1.42041 
2.00535 -0.748933 -1.3556 1.93699 -0.780265 -1.24145 1.87873 -0.823207 -1.08261 
0.134519 -0.494625 -1.14689 0.0792449 -0.477465 -1.05154 0.0299683 -0.448808 -0.945419 
-0.0300158 -0.438944 -0.814065 -0.0984651 -0.443386 -0.648651 -0.165185 -0.443703 -0.459285 
2.36978 2.71865 -0.152068 2.32013 2.68489 -0.165584 2.24844 2.64525 -0.106976 
2.16771 2.6117 -0.00255223 2.09489 2.59767 0.129809 2.02475 2.58924 0.278932 
1.94896 2.56684 0.44731 1.87107 2.5118 0.623944 1.82095 2.42655 0.805673 
1.7387 -0.87717 -1.01312 1.68392 -0.867167 -1.12507 1.63423 -0.847054 -1.21903 
1.57272 -0.847226 -1.27296 1.50454 -0.857752 -1.27653 1.44056 -0.859832 -1.26255 
1.37154 -0.871925 -1.26655 1.29977 -0.889443 -1.27966 1.22888 -0.904135 -1.26156 
1.16542 -0.903142 -1.1935 1.10928 -0.887902 -1.10629 1.0592 -0.862245 -1.03902 
0.998245 -0.858085 -1.00811 0.936076 -0.856488 -0.985509 0.869585 -0.862362 -0.949771 
0.81262 -0.849854 -0.893736 0.760813 -0.827418 -0.827349 0.689621 -0.841104 -0.763337 
0.608219 -0.877338 -0.690057 0.532621 -0.926866 -0.595867 1.81963 -0.914632 -0.743203 
1.83353 -0.912629 -0.60368 3.21244 2.1302 0.0863597 3.19199 2.26175 0.11452 
3.23189 2.29545 0.168673 3.26704 2.31625 0.261486 3.30117 2.32367 0.400981 
3.65404 1.47972 0.169958 -0.838227 0.722857 -0.62502 3.53352 1.34517 0.319524 
3.44674 1.29883 0.527274 3.3646 1.2673 0.682762 3.29938 1.26721 0.808824 
3.24922 1.2942 0.914497 3.19385 1.31119 1.00978 3.13596 1.32258 1.08072 
3.07552 1.32829 1.12727 3.01188 1.32685 1.14143 2.9561 1.33977 1.15195 
2.90316 1.3583 1.17163 2.84446 1.36696 1.21138 2.78248 1.36982 1.25715 
2.73536 1.4001 1.30289 2.68878 1.43049 1.32584 2.64119 1.45841 1.33291 
2.59835 1.4949 1.33474 2.56237 1.54418 1.34011 2.5186 1.57893 1.34146 
2.46566 1.59655 1.33807 2.40403 1.59826 1.33789 2.34828 1.61154 1.35611 
2.30058 1.64045 1.39387 2.26537 1.69236 1.43039 2.22943 1.74173 1.43578 
2.17882 1.76252 1.40285 2.1307 1.78763 1.36351 2.08436 1.8167 1.34047 
2.03691 1.84427 1.33223 1.98855 1.87046 1.33121 -0.794382 0.802251 -0.352512 
-0.79227 0.59504 -0.439321 -0.724612 0.637244 -0.145888 -0.741091 0.705168 -0.0883444 
-0.714971 1.22114 0.0237489 -0.697971 1.1625 0.0291878 -0.703228 1.09885 0.0459081 
-0.703968 1.03262 0.0550672 -0.711002 0.969674 0.0640787 -0.710728 0.90876 0.0515902 
-0.72443 0.85741 0.031589 -0.743201 0.816786 -0.017381 -0.691492 0.464664 -0.215109 
-0.666171 0.377111 -0.199254 -0.640846 0.304653 -0.22097 -0.613613 0.23789 -0.256509 
-0.580256 0.182209 -0.301672 -0.540897 0.13803 -0.336047 -0.508442 0.0809626 -0.373987 
-0.481643 0.0139387 -0.399466 -0.451996 -0.0474723 -0.415795 -0.415563 -0.0959158 -0.420931 
-0.381502 -0.148787 -0.427291 -0.345069 -0.19723 -0.432428 -0.317283 -0.261515 -0.434338 
-0.295209 -0.335565 -0.416137 -0.267896 -0.398341 -0.356803 -0.169707 -0.437181 -0.0772576 
-0.116129 -0.447333 0.0878946 -0.0606449 -0.454525 0.238651 1.71933 2.28634 1.04553 
1.63526 2.24915 1.11065 1.55024 2.21048 1.18294 1.46712 2.17476 1.24085 
1.38686 2.14349 1.27717 1.83016 2.26154 1.08562 1.8491 2.18402 1.16369 
1.8691 2.1079 1.22695 1.89707 2.04605 1.27895 1.91995 1.9741 1.31293 
0.0441489 -0.486422 0.383229 0.0915516 -0.514087 0.391446 0.137049 -0.54471 0.414049 
0.179689 -0.579771 0.458236 0.221425 -0.61622 0.509657 0.265 -0.649533 0.554328 
0.316902 -0.668201 0.580237 0.383036 -0.660666 0.598172 0.453991 -0.640577 0.611699 
0.51704 -0.614074 0.625498 0.566828 -0.580268 0.639041 0.629935 -0.553676 0.652866 
0.701826 -0.531839 0.666876 0.77497 -0.511269 0.683334 0.846715 -0.490512 0.707274 
0.91356 -0.46172 0.74492 -0.00934155 -0.384719 0.351307 -0.0020108 -0.317945 0.327876 
0.00134216 -0.251013 0.311579 0.0152536 -0.195784 0.317149 0.0263931 -0.145043 0.344314 
0.0220207 -0.0938799 0.400004 0.029141 -0.0529333 0.470373 0.0441886 -0.0182751 0.548127 
0.0635032 0.0160682 0.618752 0.0952418 0.0475549 0.675179 0.152812 0.0690277 0.710092 
0.218135 0.0791339 0.728449 0.278271 0.0751738 0.735598 0.339982 0.0739188 0.743512 
0.393907 0.0581309 0.747406 0.444034 0.0352517 0.74934 0.497909 0.0193692 0.753209 
0.558688 0.0163756 0.760641 0.612462 0.000305068 0.764458 0.660818 -0.0258802 0.765477 
0.703706 -0.0622736 0.763674 0.738753 -0.113303 0.757822 0.776172 -0.159905 0.753195 
0.811219 -0.210935 0.747344 0.85371 -0.248055 0.747881 0.899255 -0.280528 0.757407 
0.940291 -0.329263 0.775695 1.85602 1.85552 1.40973 1.77862 1.80673 1.50383 
1.71359 1.74925 1.60541 1.63707 1.70195 1.69231 1.557 1.66982 1.72848 
1.47517 1.65226 1.69879 1.25656 2.13016 1.18092 1.21328 2.16223 1.09027 
1.17351 2.20146 1.01681 1.13278 2.23948 0.958229 1.09103 2.2762 0.914499 
1.05195 2.31851 0.887521 1.02073 2.37519 0.85691 0.985534 2.42324 0.793505 
0.945885 2.46149 0.689352 0.89947 2.48651 0.566337 0.853625 2.51267 0.451259 
0.797734 2.51741 0.360951 0.743193 2.50439 0.290046 0.700058 2.48121 0.233818 
0.650041 2.47666 0.165253 0.600199 2.49276 0.0856996 0.545306 2.49883 -0.0118206 
0.493566 2.49017 -0.104345 0.453356 2.47125 -0.189812 0.398833 2.45797 -0.268398 
0.334661 2.44791 -0.33997 0.268583 2.4349 -0.397145 0.20843 2.41269 -0.432552 
0.160348 2.37796 -0.44606 0.104862 2.34126 -0.43808 0.0502072 2.29612 -0.40122 
-0.0214033 2.25218 -0.335855 -0.0944635 2.19905 -0.234441 -0.138605 2.1224 -0.103531 
-0.151531 2.02288 0.0573134 -0.149551 1.92245 0.235192 -0.138844 1.83429 0.424378 
-0.12773 1.74637 0.606037 -0.101289 1.68615 0.772549 -0.0576664 1.65652 0.909502 
-0.0107545 1.63153 1.0097 0.0422664 1.61705 1.09001 0.0930351 1.59806 1.16145 
0.146175 1.5835 1.23413 0.19241 1.55604 1.30324 0.240387 1.53155 1.36557 
0.300964 1.52997 1.41901 0.364399 1.53283 1.45088 0.418093 1.51721 1.47003 
0.470045 1.49864 1.49597 0.526044 1.48852 1.54705 0.578717 1.47248 1.60412 
0.635601 1.46402 1.65566 0.692971 1.45556 1.68439 0.759151 1.46294 1.7023 
0.825495 1.47034 1.71261 0.881049 1.45782 1.71739 0.935053 1.44627 1.72217 
0.992705 1.46238 1.72549 1.04353 1.49722 1.71651 1.10673 1.52244 1.68431 
1.17123 1.53242 1.64152 1.23571 1.55856 1.60968 1.29568 1.60092 1.60346 
1.32878 2.03745 1.30868 1.34525 1.95375 1.34703 1.35818 1.86328 1.41402 
1.36895 1.76166 1.50894 2.66234 0.226162 1.31874 2.6028 0.233263 1.35807 
2.5344 0.224421 1.4082 2.47205 0.227175 1.46914 2.41517 0.240139 1.53291 
2.36455 0.264786 1.5999 2.19228 -0.456962 0.99212 2.15854 -0.487999 0.931701 
2.11291 -0.534825 0.925563 -0.303163 0.753937 1.03456 -0.256572 0.720006 1.07951 
-0.203176 0.70391 1.14427 -0.15697 0.676298 1.21335 -0.109946 0.65032 1.28287 
-0.0512246 0.645879 1.35074 0.00928466 0.644476 1.41184 0.0646869 0.633241 1.46262 
0.126137 0.633594 1.52421 0.192169 0.642501 1.58817 0.25999 0.654449 1.64536 
0.330534 0.671029 1.68098 0.399767 0.692309 1.70215 0.451433 0.723101 1.72296 
0.473609 0.763877 1.76478 0.517654 0.782835 1.84314 -0.306385 0.863268 1.03374 
-0.27833 0.906252 1.0768 -0.248362 0.933849 1.15507 1.93498 -0.58158 0.983899 
1.85723 -0.584134 1.00168 1.79808 -0.573267 1.01514 1.74022 -0.563905 1.02656 
1.67102 -0.575738 1.03784 1.60293 -0.586086 1.03432 1.5437 -0.5805 1.02 
1.4848 -0.574901 0.990474 1.43195 -0.557714 0.971762 1.37818 -0.541918 0.960262 
1.31736 -0.53901 0.952805 1.26348 -0.523128 0.948937 1.21336 -0.500249 0.947003 
1.16004 -0.48338 0.938325 1.1003 -0.476369 0.911524 1.04195 -0.451072 0.863238 
2.25762 0.299274 1.62334 2.19141 0.291531 1.59773 2.12933 0.292403 1.59732 
2.05929 0.279011 1.60816 1.99014 0.267272 1.61947 1.93161 0.275669 1.64395 
1.87661 0.291232 1.68561 1.82148 0.306871 1.73492 1.76652 0.322527 1.77661 
1.70979 0.333971 1.79432 1.64717 0.333832 1.79363 1.58788 0.3396 1.78696 
1.52626 0.341035 1.7791 1.47322 0.358476 1.77566 1.42856 0.391564 1.77655 
1.38706 0.430535 1.77907 1.33082 0.442007 1.77398 1.27152 0.447767 1.76731 
2.3374 0.337438 1.78663 
LINES 47 717
30 53 54 55 56 57 58 59 60 61 62 63 64 65 66 67 68 69 70 71 72 73 74 75 76 77 78 79 80 81 43 
8 52 82 83 84 85 86 87 51 
29 50 88 89 90 91 92 93 94 95 96 97 98 99 100 101 102 103 104 105 106 107 108 109 110 111 112 113 114 42 
5 49 115 116 117 43 
40 48 118 119 120 121 122 123 124 125 126 127 128 129 130 131 132 133 134 135 136 137 138 139 140 141 142 143 144 145 146 147 148 149 150 151 152 153 154 155 44 
19 48 156 157 158 159 160 161 162 163 164 165 166 167 168 169 170 171 172 46 
3 48 173 40 
19 44 174 175 176 177 178 179 180 181 182 183 184 185 186 187 188 189 190 47 
3 45 191 44 
8 43 192 193 194 195 196 197 24 
60 41 198 199 200 201 202 203 204 205 206 207 208 209 210 211 212 213 214 215 216 217 218 219 220 221 222 223 224 225 226 227 228 229 230 231 232 233 234 235 236 237 238 239 240 241 242 243 244 245 246 247 248 249 250 251 252 253 254 255 39 
4 40 256 257 39 
10 40 268 269 270 271 272 273 274 275 30 
6 39 276 277 278 279 25 
8 35 280 281 282 283 284 285 38 
3 38 286 37 
8 38 287 288 289 290 291 292 35 
10 37 293 294 295 296 297 298 299 300 33 
10 37 301 302 303 304 305 306 307 308 33 
6 36 309 310 311 312 34 
14 33 324 325 326 327 328 329 330 331 332 333 334 335 29 
8 32 336 337 338 339 340 341 15 
11 31 342 343 344 345 346 347 348 349 350 14 
22 29 351 352 353 354 355 356 357 358 359 360 361 362 363 364 365 366 367 368 369 370 20 
4 29 371 372 22 
3 25 378 26 
32 25 380 381 382 383 384 385 386 387 388 389 390 391 392 393 394 395 396 397 398 399 400 401 402 403 404 405 406 407 408 409 12 
3 24 410 17 
4 16 412 413 17 
10 18 414 415 416 417 418 419 420 421 17 
17 16 422 423 424 425 426 427 428 429 430 431 432 433 434 435 436 15 
5 15 437 438 439 13 
7 14 440 441 442 443 444 11 
7 14 445 446 447 448 449 12 
18 13 450 451 452 453 454 455 456 457 458 459 460 461 462 463 464 465 6 
29 13 466 467 468 469 470 471 472 473 474 475 476 477 478 479 480 481 482 483 484 485 486 487 488 489 490 491 492 6 
8 12 493 494 495 496 497 498 5 
61 11 499 500 501 502 503 504 505 506 507 508 509 510 511 512 513 514 515 516 517 518 519 520 521 522 523 524 525 526 527 528 529 530 531 532 533 534 535 536 537 538 539 540 541 542 543 544 545 546 547 548 549 550 551 552 553 554 555 556 557 5 
6 11 558 559 560 561 5 
8 10 562 563 564 565 566 567 3 
20 3 606 607 608 609 610 611 612 613 614 615 616 617 618 619 620 621 622 623 1 
3 3 624 2 
24 39 258 259 260 261 262 263 264 265 266 267 19 323 322 321 320 319 318 317 316 315 314 313 35 
8 27 373 28 374 375 376 377 21 
5 24 379 23 411 16 
22 9 568 569 570 7 590 591 592 593 594 595 596 597 598 599 600 601 602 603 604 605 6 
22 0 586 585 584 583 582 581 580 579 578 577 576 575 574 573 572 571 8 587 588 589 4 

POINT_DATA 625
SCALARS DY_raw double
LOOKUP_TABLE default
677.517 1037.8 630.837 617.932 687.364 732.281 514.478 561.62 651.454 
533.75 569.159 793.648 757.292 641.901 686.311 696.996 585.34 688.647 
578.877 733.84 794.836 599.652 497.495 595.173 535.833 613.225 600.129 
591.577 462.804 430.049 755.111 538.898 489.483 512.82 650.781 572.702 
556.915 514.949 492.585 466.147 715.366 620.472 541.353 411.112 457.297 
488.109 672.718 1102.84 403.822 676.668 522.446 1034.1 772.425 621.352 
621.352 594.444 620.431 614.638 697.621 741.026 714.048 640.66 640.66 
587.976 621.333 655.234 586.08 586.178 606.981 612.645 606.764 553.228 
547.672 574.881 605.059 607.401 635.151 548.182 500.201 457.388 438.616 
405.071 772.425 709.205 709.205 696.631 686.306 837.446 483.676 502.817 
507.594 528.475 554.424 597.587 678.711 683.902 687.211 655.455 655.455 
595.61 620.402 590.672 586.003 590.884 590.884 626.71 636.617 681.79 
584.083 515.869 566.287 505.573 523.535 533.249 541.353 529.96 475.411 
474.51 412.01 417.025 476.078 645.951 659.722 752.62 767.124 677.253 
665.872 602.438 593.288 569.475 569.475 557.17 551.748 551.748 532.136 
535.024 563.884 592.51 612.289 596.19 564.096 564.096 533.261 473.676 
473.676 453.642 506.095 538.691 494.029 545.019 503.402 571.782 493.632 
536.044 523.328 481.612 445.829 439.566 442.224 409.975 436.659 383.215 
455.603 397.14 370.953 465.198 465.198 462.06 478.252 478.252 477.978 
552.979 593.426 582.805 424.015 436.631 477.688 540.519 540.519 596.263 
768.904 709.912 700.717 572.989 559.786 583.361 588.439 605.608 655.91 
739.315 768.703 466.863 410.266 401.665 466.009 481.943 487.913 521.604 
565.934 565.934 468.098 483.724 425.922 453.403 430.992 486.009 523.393 
535.139 537.859 538.065 538.065 560.227 585.896 560.077 539.625 516.028 
548.325 592.482 592.482 639.182 695.332 668.944 731.508 699.838 728.327 
763.467 720.134 723.843 638.925 577.269 576.351 526.528 539.337 458.641 
517.929 504.697 497.87 541.261 525.103 514.846 559.577 495.529 502.946 
500.847 479.322 514.085 513.103 580.316 633.156 639.286 546.043 579.088 
493.227 453.951 496.466 490.728 607.646 511.109 510.114 578.47 592.799 
675.57 664.976 735.135 741.099 670.491 692.566 696.22 720.535 723.187 
767.884 727.252 727.252 699.632 728.85 728.85 523.112 597.467 607.623 
599.118 586.455 602.347 570.455 551.432 581.057 548.061 495.813 494.965 
527.03 600.024 645.506 671.138 649.818 509.952 541.253 560.549 516.039 
494.59 482.409 448.611 482.666 585.865 603.975 625.351 660.835 688.934 
656.069 663.155 553.86 609.358 556.804 530.108 597.157 523.484 495.269 
492.081 587.122 614.874 729.656 797.567 801.096 865.651 869.624 767.466 
501.572 505.027 555.59 651.807 656.482 669.61 666.13 621.697 611.465 
543.921 486.992 442.73 470.545 488.789 528.643 559.481 508.452 549.138 
526.015 548.343 561.049 555.793 553.717 567.108 578.883 607.84 643.966 
536.415 574.329 578.095 652.347 706.574 794.427 640.871 640.871 580.151 
491.593 540.948 507.786 474.717 521.52 473.006 492.835 482.058 500.623 
538.035 696.044 421.021 433.959 511.29 425.958 433.172 419.69 472.65 
613.482 532.265 829.384 785.867 656.275 648.599 680.854 755.359 803.721 
815.505 828.763 828.763 826.234 852.055 967.833 868.309 868.309 770.844 
701.501 701.501 694.904 699.387 699.387 675.682 751.938 751.938 658.34 
658.34 598.594 609.305 686.41 707.32 605.299 629.33 659.215 754.937 
578.877 540.497 551.124 584.567 611.06 611.06 787.161 737.327 643.956 
689.542 725.746 721.397 683.856 706.416 699.744 620.258 688.644 659.125 
609.43 668.682 609.526 651.254 687.746 700.075 605.136 622.571 771.622 
865.492 777.307 699.955 691.069 725.751 743.597 792.984 777.727 648.564 
563.158 530.592 530.592 517.786 582.434 594.061 547.112 571.171 546.219 
570.886 591.218 586.331 638.597 657.055 615.63 530.733 544.756 577.475 
570.603 570.603 650.461 636.423 697.929 654.925 687.046 759.262 693.73 
729.412 693.251 714.963 731.822 678.458 676.21 676.21 676.294 676.344 
676.344 657.351 656.232 656.232 540.346 509.027 463.983 834.863 963.251 
757.008 711.414 728.811 757.692 715.142 635.734 579.364 630.157 618.273 
570.188 626.957 520.739 469.91 453.121 412.888 454.797 514.526 492.975 
513.384 493.13 513.608 496.926 482.941 570.295 559.463 554.285 570.544 
599.056 601.348 619.193 634.396 545.019 536.543 466.675 413.613 437.924 
453.768 491.429 515.918 457.906 534.572 543.313 602.792 618.752 661.453 
717.878 728.96 769.616 699.801 776.248 710.906 785.172 641.292 609.623 
562.848 571.739 569.898 609.093 668.053 726.301 749.041 798.613 787.729 
884.608 781.399 670.491 598.711 649.547 623.525 679.108 669.32 654.237 
683.785 517.677 517.634 508.206 697.21 680.365 743.915 715.551 760.794 
792.723 840.994 855.201 780.273 765.209 730.336 655.589 641.731 600.272 
658.735 645.465 627.492 621.537 649.322 587.099 623.204 632.288 653.958 
603.843 603.843 573.084 564.287 542.581 562.857 589.126 589.126 601.636 
601.901 602.246 569.461 663.712 638.061 652.575 652.575 677.282 684.102 
759.474 832.15 768.857 768.857 679.361 706.304 706.304 695.704 695.704 
694.103 732.845 853.783 652.542 
FIELD FieldData 7
DY_minmax 1 625 double
0.418871 0.911143 0.355091 0.337458 0.432325 0.493697 0.196104 0.260516 0.38326 
0.222437 0.270817 0.577546 0.527871 0.370208 0.430886 0.445486 0.292926 0.434078 
0.284096 0.495827 0.579169 0.31248 0.1729 0.30636 0.225282 0.331026 0.313132 
0.301448 0.1255 0.0807454 0.52489 0.229471 0.161952 0.193839 0.38234 0.275658 
0.254087 0.196748 0.166191 0.130068 0.470586 0.340928 0.232825 0.0548711 0.117976 
0.160076 0.412314 1 0.0449108 0.417711 0.206991 0.906086 0.548548 0.342131 
0.342131 0.305366 0.340872 0.332957 0.44634 0.505646 0.468785 0.368512 0.368512 
0.296527 0.342104 0.388425 0.293937 0.294071 0.322495 0.330234 0.322198 0.24905 
0.241459 0.278636 0.319868 0.323068 0.360984 0.242156 0.176597 0.1181 0.0924505 
0.0466168 0.548548 0.462167 0.462167 0.444988 0.43088 0.637388 0.154018 0.180171 
0.186699 0.215229 0.250684 0.309659 0.420502 0.427595 0.432116 0.388727 0.388727 
0.306958 0.340832 0.300211 0.293832 0.300501 0.300501 0.349451 0.362987 0.42471 
0.291209 0.198005 0.266893 0.183937 0.208479 0.221751 0.232825 0.217257 0.142725 
0.141494 0.0560981 0.0629506 0.143637 0.375741 0.394557 0.521487 0.541305 0.418511 
0.402959 0.316287 0.303786 0.271249 0.271249 0.254436 0.247028 0.247028 0.220231 
0.224177 0.26361 0.302722 0.329748 0.30775 0.263899 0.263899 0.221768 0.140354 
0.140354 0.112982 0.18465 0.229188 0.168165 0.237834 0.18097 0.274401 0.167621 
0.22557 0.208197 0.151198 0.102306 0.0937494 0.0973811 0.0533177 0.0897775 0.016755 
0.115661 0.0357808 0 0.128772 0.128772 0.124484 0.146608 0.146608 0.146233 
0.24871 0.303973 0.289462 0.0725007 0.0897383 0.145836 0.231686 0.231686 0.30785 
0.543736 0.463134 0.450569 0.27605 0.258011 0.290222 0.29716 0.320619 0.389348 
0.503308 0.543462 0.131046 0.0537147 0.0419631 0.129879 0.151651 0.159808 0.20584 
0.266411 0.266411 0.132734 0.154084 0.0751061 0.112655 0.0820343 0.157206 0.208285 
0.224334 0.228051 0.228332 0.228332 0.258613 0.293685 0.258408 0.230463 0.198222 
0.242351 0.302684 0.302684 0.366492 0.443212 0.407157 0.492641 0.449369 0.488294 
0.536308 0.4771 0.482168 0.366141 0.281898 0.280644 0.212569 0.23007 0.119813 
0.200819 0.18274 0.173411 0.232699 0.210622 0.196607 0.257725 0.170213 0.180347 
0.17748 0.148069 0.195567 0.194226 0.286062 0.358259 0.366634 0.239232 0.284383 
0.167068 0.113404 0.171494 0.163653 0.323403 0.191501 0.190141 0.283539 0.303118 
0.416211 0.401736 0.497597 0.505746 0.409271 0.439433 0.444426 0.477648 0.481271 
0.542342 0.486825 0.486825 0.449088 0.489009 0.489009 0.207901 0.309495 0.323372 
0.311751 0.294449 0.316163 0.272588 0.246596 0.287073 0.24199 0.170601 0.169444 
0.213255 0.312989 0.375133 0.410155 0.381025 0.18992 0.232688 0.259053 0.198237 
0.16893 0.152287 0.106107 0.152638 0.293644 0.318388 0.347595 0.396078 0.43447 
0.389566 0.399248 0.249914 0.325743 0.253937 0.21746 0.309072 0.208409 0.169859 
0.165502 0.295361 0.333279 0.49011 0.5829 0.587722 0.675925 0.681355 0.541772 
0.17847 0.183192 0.252278 0.383742 0.39013 0.408067 0.403312 0.342602 0.328622 
0.236334 0.158549 0.0980728 0.136076 0.161004 0.215458 0.257593 0.187871 0.243461 
0.211868 0.242375 0.259736 0.252555 0.249717 0.268015 0.284103 0.323669 0.373028 
0.226078 0.277881 0.283027 0.38448 0.458573 0.578609 0.368801 0.368801 0.285836 
0.164835 0.232271 0.18696 0.141778 0.205726 0.139439 0.166532 0.151808 0.177174 
0.228291 0.444185 0.0684099 0.0860877 0.191748 0.0751554 0.0850123 0.066591 0.138953 
0.331377 0.220408 0.626372 0.566914 0.389846 0.379359 0.42343 0.52523 0.591308 
0.60741 0.625525 0.625525 0.622069 0.657349 0.815541 0.679557 0.679557 0.546387 
0.451641 0.451641 0.442628 0.448753 0.448753 0.416363 0.520555 0.520555 0.392669 
0.392669 0.311035 0.325669 0.431022 0.459592 0.320196 0.353031 0.393865 0.524653 
0.284096 0.231654 0.246176 0.29187 0.328068 0.328068 0.568681 0.500592 0.373015 
0.435302 0.484768 0.478826 0.427532 0.458356 0.44924 0.340636 0.434074 0.393741 
0.325841 0.406799 0.325973 0.382987 0.432847 0.449692 0.319974 0.343796 0.54745 
0.675709 0.555217 0.449529 0.437388 0.484774 0.509158 0.576639 0.555792 0.379311 
0.262617 0.218121 0.218121 0.200625 0.288955 0.304842 0.240693 0.273566 0.239473 
0.273177 0.300957 0.29428 0.365693 0.390913 0.334312 0.218314 0.237474 0.28218 
0.272789 0.272789 0.381904 0.362723 0.446761 0.388003 0.431891 0.530563 0.441024 
0.489778 0.440369 0.470035 0.493069 0.420157 0.417085 0.417085 0.4172 0.417268 
0.417268 0.391317 0.389789 0.389789 0.231448 0.188656 0.127111 0.633859 0.80928 
0.527483 0.465186 0.488957 0.528417 0.470279 0.361782 0.284761 0.35416 0.337923 
0.272222 0.349789 0.204659 0.13521 0.11227 0.0572976 0.11456 0.196169 0.166723 
0.19461 0.166936 0.194916 0.172122 0.153015 0.272369 0.257569 0.250494 0.27271 
0.311666 0.314798 0.339181 0.359952 0.237834 0.226252 0.130789 0.0582882 0.0915056 
0.113154 0.164612 0.198072 0.118808 0.22356 0.235503 0.316772 0.338578 0.396923 
0.474017 0.48916 0.54471 0.449318 0.553771 0.464491 0.565964 0.369375 0.326105 
0.262193 0.274342 0.271826 0.32538 0.40594 0.485527 0.516597 0.584329 0.569458 
0.701827 0.560809 0.409271 0.311196 0.380654 0.345099 0.421045 0.407672 0.387063 
0.427435 0.200475 0.200416 0.187534 0.445778 0.422762 0.509592 0.470839 0.532656 
0.576281 0.642236 0.661647 0.559271 0.538688 0.49104 0.388909 0.369974 0.313327 
0.393208 0.375077 0.350519 0.342383 0.380347 0.295329 0.344661 0.357073 0.386681 
0.318208 0.318208 0.27618 0.26416 0.234503 0.262207 0.298099 0.298099 0.315192 
0.315553 0.316026 0.27123 0.400008 0.364961 0.384792 0.384792 0.41855 0.427868 
0.530852 0.630153 0.543672 0.543672 0.42139 0.458204 0.458204 0.443721 0.443721 