# vtk DataFile Version 3.0
vtk output
ASCII
DATASET POLYDATA
POINTS 1004 float
1.01766 0.471396 1.0894 3.06141 -0.217391 1.32357 0.440423 -0.152546 1.06621 
0.773433 0.541744 1.01153 2.69278 0.61694 1.04214 3.17943 -2.34012 1.31198 
0.329344 0.286897 0.824549 3.16661 0.0895448 0.495338 -0.269433 0.265543 0.0785103 
3.647 -1.11485 0.409905 0.237391 1.14178 -0.0557628 1.86984 1.38782 -0.0457663 
3.79178 -0.775256 0.181997 3.71126 -0.979331 0.198406 3.54339 -1.76882 0.0638631 
-0.414515 -0.646563 -0.178674 0.738813 -1.95483 0.0258453 1.95604 -2.31212 0.0809185 
3.49446 0.0901229 -0.100789 -0.0289388 -1.34295 -0.310681 2.20473 1.28393 -0.431745 
-0.342236 0.529541 -0.682465 -0.517534 -0.363681 -0.607206 -0.495879 -0.798536 -0.501552 
2.01807 -2.48183 -0.545529 3.83104 -0.3088 -0.460753 5.15814 -0.23797 -0.44125 
6.9919 0.518255 -0.472277 7.5674 -0.118466 -0.405043 0.424805 1.35775 -0.874393 
-0.282499 -1.30104 -0.787844 -0.110303 -1.49492 -0.633559 2.67301 1.06911 -0.805368 
3.68882 -0.156924 -0.744638 5.71789 0.15555 -0.665859 5.64285 -0.193392 -0.703526 
7.35172 0.754302 -0.686896 0.0579871 -1.69438 -0.813541 0.515703 -2.03507 -1.11891 
2.26583 -2.44362 -0.771679 7.45265 -0.164625 -0.804827 0.30849 -1.98481 -0.983919 
7.53366 0.611977 -1.07246 -0.588759 -0.75327 -1.37753 1.01617 -1.8649 -1.18156 
1.31567 -2.45278 -1.12398 5.88766 -0.552902 -1.26955 6.12911 -1.32867 -1.12961 
7.29089 0.867316 -1.30046 7.89742 0.159606 -1.22638 3.16684 -0.292102 -1.5461 
5.69165 0.827781 -1.52881 7.57581 -0.0841641 -1.41196 0.881288 -1.96207 -1.57724 
2.83168 -1.95787 -1.53979 3.41133 -1.53646 -1.56565 7.54542 0.750191 -1.75377 
7.37082 -1.07995 -1.52905 0.44642 -2.04389 -1.77929 3.2457 -0.486974 -1.8621 
6.16408 -0.358831 -2.23665 6.95205 -0.780896 -1.83126 7.7077 -0.403204 -1.78293 
6.63509 0.304987 -2.29189 7.22503 -1.05512 -1.93569 6.42624 -0.0100721 -2.44484 
7.67178 0.0497451 -2.22513 6.79481 0.493715 -2.48205 7.00995 -0.974686 -2.48244 
7.55512 0.27549 -2.44809 1.76716 -1.79921 -2.57846 6.68542 0.638123 -2.6977 
2.16443 -0.969409 -2.84464 6.29419 0.0682706 -2.85592 7.30398 0.114875 -2.97431 
0.657753 -1.12356 -3.0611 1.33447 -1.60354 -3.00571 1.67839 -1.03126 -3.04943 
7.33617 0.0136262 -2.98956 7.35704 -0.0632837 -2.98239 7.3624 -0.122818 -2.94233 
7.382 -0.182682 -2.87966 7.41489 -0.233617 -2.80016 7.45838 -0.260603 -2.70769 
7.50145 -0.285639 -2.59309 7.53323 -0.331987 -2.46196 7.54944 -0.383606 -2.31579 
7.54217 -0.425348 -2.1635 7.53993 -0.454344 -2.01224 7.57592 -0.458887 -1.89214 
7.63804 -0.435444 -1.81863 7.25169 0.215584 -2.88999 7.21185 0.302567 -2.80173 
7.17727 0.381111 -2.71511 7.13992 0.44913 -2.62762 7.09605 0.497722 -2.55837 
7.04946 0.536387 -2.51062 6.98795 0.533196 -2.48922 6.92232 0.517547 -2.48168 
6.86104 0.511906 -2.48237 1.6129 -1.04756 -3.04927 1.55595 -1.04223 -3.05084 
1.49981 -1.03587 -3.05993 1.43908 -1.04315 -3.08278 1.38365 -1.04004 -3.12875 
1.32756 -1.03862 -3.17459 1.26261 -1.05761 -3.20393 1.19631 -1.07496 -3.19625 
1.13542 -1.07761 -3.18232 1.07312 -1.08279 -3.16076 1.01666 -1.07522 -3.15508 
0.959275 -1.06795 -3.13453 0.893245 -1.0824 -3.11222 0.824965 -1.09804 -3.08242 
0.753076 -1.1034 -3.06847 1.36951 -1.65123 -2.90414 1.41418 -1.67756 -2.82658 
1.46356 -1.69498 -2.77203 1.51298 -1.7123 -2.71749 1.55893 -1.73943 -2.66958 
1.59966 -1.78182 -2.6353 1.64707 -1.8103 -2.62443 1.70232 -1.81792 -2.60782 
0.614016 -1.18489 -2.95243 0.584384 -1.23496 -2.85934 0.559834 -1.27966 -2.7815 
0.526213 -1.31867 -2.71922 0.47126 -1.33918 -2.66642 0.410907 -1.34195 -2.62273 
0.343108 -1.35733 -2.57063 0.272215 -1.38025 -2.51791 0.204353 -1.39549 -2.46583 
0.142847 -1.39564 -2.42238 0.0800174 -1.39812 -2.37132 0.0234398 -1.38476 -2.32153 
-0.0294033 -1.36194 -2.2725 -0.0807645 -1.33638 -2.23113 -0.128433 -1.30145 -2.1905 
-0.170408 -1.25311 -2.15839 -0.217606 -1.22003 -2.1399 -0.267652 -1.19518 -2.12819 
-0.314667 -1.16265 -2.11708 -0.355757 -1.11308 -2.0925 -0.398351 -1.0653 -2.05291 
-0.436222 -0.999614 -1.97266 -0.476167 -0.92758 -1.83351 -0.528252 -0.855424 -1.62519 
0.618598 -1.03779 -3.06941 0.579836 -0.973799 -3.0758 0.533394 -0.939992 -3.07968 
0.482982 -0.917985 -3.0826 0.432556 -0.896121 -3.0855 0.385605 -0.864444 -3.08176 
0.343951 -0.817312 -3.06441 0.297033 -0.780484 -3.02394 0.25064 -0.741319 -2.97622 
0.21296 -0.681078 -2.93763 0.176197 -0.620542 -2.91393 0.134032 -0.574708 -2.89647 
0.0929824 -0.525034 -2.87189 0.0463472 -0.489515 -2.84617 -0.000430332 -0.453346 -2.81308 
-0.0415166 -0.403765 -2.78849 -0.0844952 -0.358979 -2.76352 -0.124629 -0.309009 -2.75383 
-0.167321 -0.265522 -2.7436 -0.208447 -0.216042 -2.71901 -0.256647 -0.178416 -2.64889 
-0.309582 -0.145703 -2.52635 -0.364532 -0.113035 -2.36667 -0.422513 -0.0873357 -2.199 
-0.479546 -0.0672238 -2.05313 -0.511406 -0.0135345 -1.93204 -0.520516 0.05295 -1.83394 
-0.538844 0.127066 -1.7367 -0.546107 0.19709 -1.63888 -0.517913 0.255057 -1.51701 
-0.502296 0.31912 -1.38103 -0.5068 0.392577 -1.22644 -0.486895 0.456417 -1.06309 
-0.427053 0.501848 -0.880003 7.38982 0.168389 -2.80878 7.46966 0.220245 -2.63329 
6.2361 -0.46016 -2.57454 6.29792 -0.518589 -2.82242 6.35747 -0.539734 -2.95058 
6.42451 -0.525721 -2.99446 6.4945 -0.499005 -3.00289 6.56122 -0.478569 -2.99596 
6.62154 -0.473327 -2.98038 6.68219 -0.466238 -2.95751 6.73252 -0.487349 -2.94724 
6.76952 -0.544249 -2.94895 6.80177 -0.615192 -2.96439 6.83304 -0.686627 -2.96493 
6.8645 -0.754527 -2.94346 6.89888 -0.809737 -2.88339 6.93845 -0.848481 -2.78748 
6.97388 -0.902683 -2.64815 6.0616 -0.486853 -2.5012 5.98066 -0.558929 -2.66884 
5.9083 -0.597363 -2.70878 5.83702 -0.624159 -2.67737 5.76922 -0.640252 -2.63265 
5.7074 -0.644232 -2.61119 5.64017 -0.662922 -2.59596 5.5691 -0.689621 -2.56524 
5.49835 -0.715421 -2.49741 5.43627 -0.742351 -2.39955 5.38849 -0.775334 -2.30832 
5.32802 -0.80427 -2.25489 5.26348 -0.822419 -2.2471 5.2073 -0.815438 -2.24881 
5.1551 -0.79606 -2.23666 5.10306 -0.772191 -2.19514 5.05149 -0.745131 -2.13902 
5.00429 -0.707013 -2.08379 4.96724 -0.644465 -2.03796 4.93663 -0.572861 -2.00768 
4.91787 -0.504408 -1.98432 4.92316 -0.447002 -1.98183 4.93224 -0.392265 -1.99392 
4.93876 -0.338308 -2.02829 4.97379 -0.296074 -2.06851 5.00608 -0.254074 -2.12364 
5.04121 -0.215131 -2.17846 5.09625 -0.194655 -2.23126 5.15657 -0.191977 -2.27494 
5.22366 -0.178395 -2.3269 5.29014 -0.166645 -2.37871 5.34725 -0.177656 -2.42126 
5.39964 -0.197582 -2.4408 5.4517 -0.21631 -2.44558 5.50742 -0.225772 -2.4511 
5.56949 -0.220131 -2.46527 5.63 -0.220485 -2.49381 5.69307 -0.214354 -2.52288 
5.75373 -0.215357 -2.5588 5.81599 -0.210264 -2.58036 5.87237 -0.218038 -2.58602 
5.92739 -0.223928 -2.54791 5.98623 -0.226828 -2.47485 6.05331 -0.274396 -2.36388 
6.34383 0.0230758 -2.65017 2.23056 -0.951178 -2.84496 2.29012 -0.944642 -2.84439 
2.34586 -0.920283 -2.84545 2.38933 -0.879842 -2.84073 2.43798 -0.838291 -2.82113 
2.48129 -0.792162 -2.77229 2.53997 -0.750248 -2.70047 2.60766 -0.710664 -2.6134 
2.67563 -0.672379 -2.54107 2.73466 -0.631907 -2.48399 2.7792 -0.588919 -2.44229 
2.83387 -0.559505 -2.38432 2.89129 -0.548262 -2.30982 2.95134 -0.533292 -2.22073 
3.00619 -0.533816 -2.14524 3.06133 -0.53564 -2.08451 3.12219 -0.523958 -2.0323 
3.18137 -0.513519 -1.9577 7.07384 -1.01934 -2.37563 7.12794 -1.04084 -2.25368 
7.17706 -1.04979 -2.10567 6.71967 0.588437 -2.59597 6.75941 0.548599 -2.52476 
7.60431 0.188858 -2.37257 7.64096 0.116075 -2.29851 7.55774 0.361767 -2.4482 
7.54001 0.43983 -2.42566 7.52217 0.513487 -2.35317 7.5262 0.583281 -2.21296 
7.53768 0.659844 -2.0038 6.97304 -0.866409 -2.15801 6.7355 0.457955 -2.43729 
6.68887 0.400221 -2.36803 6.36979 -0.1182 -2.2809 6.33121 -0.188352 -2.18149 
6.2762 -0.25834 -2.17504 7.61161 0.0303891 -2.02379 7.57662 0.00120014 -1.82108 
7.56362 -0.0365657 -1.6172 7.7171 0.0149235 -2.22119 7.75307 -0.0425594 -2.20799 
7.78443 -0.109708 -2.17916 7.8144 -0.176007 -2.12068 7.84201 -0.239719 -2.04015 
7.85645 -0.297103 -1.94558 7.83489 -0.341625 -1.86769 7.77747 -0.373934 -1.8139 
6.58585 0.199974 -2.26314 6.5173 0.110736 -2.3217 7.1908 -0.969943 -1.78024 
7.15658 -0.889801 -1.66152 7.11914 -0.826153 -1.60339 7.07239 -0.794474 -1.617 
7.01755 -0.782365 -1.70094 7.2742 -1.066 -1.82966 7.3228 -1.07427 -1.69411 
7.67522 -0.325718 -1.71601 7.64247 -0.246933 -1.63433 7.60928 -0.166199 -1.53053 
6.89888 -0.681739 -1.74186 6.85425 -0.608921 -1.66732 6.80631 -0.57066 -1.62452 
6.75645 -0.54682 -1.62511 6.70959 -0.519987 -1.65813 6.66524 -0.486771 -1.69167 
6.61285 -0.469889 -1.69417 6.56679 -0.433915 -1.67591 6.51466 -0.414343 -1.66378 
6.45472 -0.419632 -1.68678 6.40086 -0.414112 -1.74849 6.35127 -0.394575 -1.858 
6.28508 -0.366211 -2.02406 6.16649 -0.398575 -1.93426 6.14984 -0.432815 -1.68748 
6.115 -0.465257 -1.52145 6.05392 -0.492866 -1.41789 5.9771 -0.520765 -1.34254 
3.20843 -0.394418 -1.70239 3.29673 -0.506295 -1.85196 3.34748 -0.524317 -1.82708 
3.39779 -0.54039 -1.78007 3.44778 -0.555265 -1.71829 3.49696 -0.571179 -1.649 
3.54248 -0.59636 -1.57896 3.58259 -0.636253 -1.51516 3.62836 -0.662835 -1.45987 
3.67726 -0.682489 -1.41258 3.72302 -0.70908 -1.35729 3.76311 -0.749057 -1.29349 
3.80778 -0.775387 -1.21592 3.85212 -0.800511 -1.1236 3.89059 -0.838491 -1.01539 
3.93033 -0.873992 -0.914799 3.96259 -0.927235 -0.842554 3.98063 -0.988116 -0.799653 
3.9731 -1.04215 -0.77273 3.95444 -1.09196 -0.746395 3.93412 -1.14172 -0.727527 
3.91374 -1.19205 -0.716051 3.89182 -1.24237 -0.712045 3.86069 -1.2891 -0.708534 
3.81707 -1.33095 -0.705694 3.79514 -1.38126 -0.701689 3.78745 -1.43773 -0.704305 
3.75336 -1.4839 -0.70834 3.72559 -1.53134 -0.697261 3.71385 -1.58148 -0.641013 
3.71659 -1.63325 -0.532281 3.70028 -1.67603 -0.372638 3.64918 -1.71747 -0.169169 
0.485451 -2.03803 -1.45392 7.59277 0.71393 -1.58355 7.61345 0.66994 -1.41566 
7.59135 0.634405 -1.24685 7.4782 0.809683 -1.6909 7.4192 0.848133 -1.59874 
7.35956 0.868913 -1.46537 3.35364 -1.57579 -1.6005 3.30791 -1.618 -1.61254 
3.24765 -1.65277 -1.6032 3.17951 -1.68327 -1.57953 3.11922 -1.71743 -1.56282 
[...]
POINT_DATA 1004
SCALARS DY_raw double
LOOKUP_TABLE default
173.043 200.622 195.985 238.569 168.297 215.054 195.592 228.816 158.98 
182.753 263.253 180.596 251.744 231.155 184.878 156.978 179.421 257.636 
155.828 172.733 253.129 143.747 177.855 148.559 174.954 150.481 179.089 
201.389 152.427 212.613 196.578 187.836 192.806 196.079 116.379 147.98 
226.838 141.069 174.554 156.219 147.542 221.668 182.751 140.598 179.012 
225.86 155.706 108.079 139.638 143.415 182.713 189.018 163.156 154.118 
205.352 209.925 158.406 175.5 156.852 158.756 132.13 154.3 123.218 
195.509 158.114 133.244 157.406 174.242 152.578 142.016 134.336 209.603 
210.618 160.555 140.869 179.89 189.067 200.095 150.776 149.231 132.441 
138.421 151.779 156.969 150.668 146.643 145.378 152.66 148.332 141.11 
127.576 161.767 162.06 160.931 152.059 146.819 155.251 149.431 161.142 
174.242 187.831 187.831 219.502 244.532 223.08 252.489 232.463 232.463 
231.607 231.607 217.715 229.474 212.906 222.661 196.005 197.659 167.252 
150.967 154.618 147.313 141.557 142.409 134.336 166.907 161.442 162.882 
152.927 154.241 142.09 133.074 139.26 147.958 130.823 143.107 159.369 
164.481 170.985 167.441 167.441 160.098 141.314 141.314 135.24 132.578 
130.253 138.941 140.858 187.804 184.408 176.209 177.444 188.561 188.561 
209.504 184.263 190.466 173.288 161.081 155.097 153.92 151.729 160.504 
161.869 186.081 183.917 185.563 172.929 167.63 161.611 137.321 139.569 
143.13 161.689 163.518 161.496 176.326 158.485 132.889 139.529 147.072 
147.393 146.496 126.414 151.04 167.445 167.173 182.835 182.835 183.99 
174.447 182.388 167.543 160.033 146.323 146.323 162.405 160.457 160.397 
158.823 146.512 171.635 166.552 194.199 194.2 169.558 167.568 185.367 
204.111 176.665 202.46 210.337 203.686 203.686 206.87 193.107 198.336 
182.19 177.942 160.816 157.799 156.05 167.926 161.034 186.025 164.074 
178.751 177.108 183.375 182.998 210.949 211.074 210.076 230.627 230.627 
223.951 228.108 209.579 232.699 194.542 185.66 204.241 199.982 184.458 
150.756 193.474 179.395 164.959 153.676 167.457 165.204 163.69 164.354 
169 157.129 141.666 130.914 132.499 140.446 143.298 154.01 150.333 
145.564 145.958 158.217 171.368 203.374 169.562 144.194 152.03 145.747 
142.699 143.555 141.759 150.456 178.249 161.084 180.263 151.846 177.572 
148.141 170.568 167.656 166.323 157.492 149.527 141.859 141.313 141.024 
127.73 125.674 135.623 182.433 171.932 153.726 164.774 179.343 169.774 
165.543 136.863 145.643 160.397 164.22 153.095 166.198 180.88 189.896 
213.936 208.166 221.58 217.415 217.415 212.53 189.927 178.548 161.733 
140.038 156.995 192.554 169.347 160.43 146.158 182.005 139.531 128.167 
132.96 124.706 142.194 157.639 147.172 158.986 152.121 145.084 165.51 
143.036 145.92 155.623 161.811 160.194 153.732 153.943 163.998 171.541 
171.541 173.615 178.34 178.34 176.142 159.719 159.719 138.292 149.755 
156.828 158.311 161.806 156.481 153.891 149.693 163.293 173.567 177.015 
153.194 215.991 204.286 197.076 197.076 166.973 187.939 156.794 169.444 
169.444 182.658 144.009 143.065 158.082 157.183 167.217 164.535 172.557 
178.336 163.434 163.434 166.279 190.883 182.833 189.956 179.135 187.626 
165.147 174.902 165.711 161.19 184.177 171.125 178.459 192.425 178.319 
174.582 174.582 139.66 147.569 151.687 141.902 136.2 135.106 150.652 
184.075 147.102 146.181 183.846 188.958 220.199 194.14 159.752 161.201 
162.298 157.739 179.161 173.759 161.652 184.543 159.394 175.381 175.381 
169.302 164.396 153.566 131.827 125.081 196.341 212.171 227.493 212.33 
213.866 204.694 200.478 190.112 181.783 189.099 191.254 197.469 226.118 
215.162 214.838 246.337 236.752 229.472 266.314 256.624 293.795 315.984 
272.971 298.369 272.689 239.526 178.313 153.515 141.301 169.778 177.002 
218.813 220.672 223.697 277.436 272.677 257.501 246.256 246.256 253.436 
281.887 281.887 271.119 275.164 249.373 254.088 276.584 248.091 238.379 
236.46 218.446 218.446 197.911 197.371 197.371 203.736 199.963 177.217 
178.413 163.783 163.783 167.336 180.19 190.359 201.252 211.69 193.556 
197.53 178.522 160 160 158.886 168.872 150.16 171.069 169.305 
169.305 223.54 191.374 222.721 227.948 227.948 200.466 141.255 148.472 
146.879 153.061 136.159 164.839 164.928 166.72 193.077 193.001 201.121 
201.121 196.176 179.173 167.074 149.605 155.59 145.327 145.327 156.57 
204.184 204.184 198.816 199.213 241.898 205.895 205.895 196.955 172.909 
184.23 184.245 158.194 186.957 161.954 153.006 166.29 162.788 170.234 
150.781 153.468 163.042 172.582 173.361 184.89 180.847 186.74 129.572 
128.873 133.461 133.461 144.277 169.667 159.48 166.539 158.69 159.462 
150.34 161.818 149.333 147.833 158.606 158.499 185.803 191.191 190.44 
148.754 189.756 114.217 115.706 129.16 145.155 155.745 169.958 147.51 
147.719 149.349 145.405 147.31 166.829 192.404 158.433 144.625 184.781 
197.825 199.282 177.065 177.065 172.578 168.872 178.32 186.979 205.402 
163.12 174.429 158.2 151.043 182.492 175.343 164.396 183.903 208.622 
210.888 157.254 163.117 199.239 210.704 200.051 182.148 168.771 148.773 
163.277 170.106 180.78 152.094 150.428 173.634 194.459 209.265 209.265 
189.258 210.427 227.167 248.14 214.93 210.974 234.303 218.102 184.797 
174.984 176.634 179.859 166.157 156.917 171.563 177.355 182.877 164.471 
157.332 191.926 185.656 143.99 149.383 164.182 188.55 173.57 182.355 
202.868 183.747 170.804 169.674 138.497 143.272 240.761 235.579 240.316 
231.125 228.741 154.236 140.33 135.62 118.219 164.948 164.354 171.231 
162.728 177.195 170.635 143.3 160.824 184.692 186.673 153.734 162.188 
163.092 157.444 160.494 178.512 178.512 215.231 235.7 240.668 245.694 
230.456 169.547 155.085 181.756 177.283 169.239 183.263 183.383 180.202 
184.493 183.147 200.887 195.105 238.724 156.376 162.077 165.064 180.036 
192.635 198.924 204.814 204.814 211.355 208.031 208.031 199.14 199.14 
185.54 172.074 168.384 170.774 170.913 169.748 150.201 154.658 171.355 
250.539 207.596 194.339 186.899 169.014 171.391 204.735 165.637 160.893 
186.158 167.522 174.528 174.528 151.858 163.639 178.496 197.623 183.49 
183.49 191.876 168.762 182.623 201.766 174.565 180.828 180.828 172.577 
184.36 217.732 231.352 254.206 243.12 227.98 204.974 220.716 185.495 
224.259 196.925 172.225 186.807 186.159 181.421 200.05 200.05 195.796 
177.912 185.618 177.738 148.208 163.936 173.096 174.402 186.536 205.651 
206.759 207.217 232.686 189.176 216.048 160.573 219.111 204.582 170.78 
176.436 176.67 176.38 205.117 212.262 171.253 159.955 170.867 180.143 
134.011 149.167 158.18 147.263 138.827 162.127 172.947 198.268 195.139 
217.868 195.746 218.205 234.254 220.799 285.519 174.741 177.525 185.398 
184.346 194.175 180.385 180.385 170.796 177.408 165.494 165.402 167.033 
158.846 169.458 192.062 183.103 185.372 194.384 215.266 229.92 235.348 
233.213 220.963 226.464 183.394 161.648 171.044 182.278 198.95 216.805 
167.749 160.95 176.869 179.126 153.804 175.341 184.2 195.077 208.793 
215.705 222.567 206.926 189.033 171.479 181.299 189.684 186.375 194.196 
218.979 220.525 247.648 230.867 238.294 267.711 213.186 234.813 224.322 
205.854 205.854 212.375 209.417 209.417 224.828 212.108 235.302 219.726 
204.276 212.337 206.652 194.487 204.231 203.471 218.967 207.492 200.501 
152.702 175.529 187.06 197.996 160.995 159.324 170.745 154.331 149.733 
159.331 145.156 139.866 134.973 137.232 148.468 195.985 198.585 200.735 
193.246 220.201 213.798 186.107 186.107 181.668 165.59 177.175 189.436 
186.052 204.866 260.871 246.414 257.909 261.827 237.18 269.545 236.736 
207.511 156.013 179.471 181.779 209.271 189.397 190.408 199.613 193.451 
195.592 162.407 150.082 154.015 144.073 147.266 147.266 141.08 161.875 
165.408 158.286 177.838 194.462 219.815 232.471 215.598 217.617 210.571 
210.571 242.574 214.792 246.288 256.967 221.131 215.67 190.408 177.49 
194.906 207.546 235.35 178.449 178.449 162.803 169.065 169.065 170.672 
170.672 169.267 170.863 184.773 194.439 200.399 200.399 197.515 198.709 
198.709 208.261 208.261 207.533 208.463 222.294 203.315 202.315 179.871 
192.845 187.092 187.092 200.684 222.417 222.417 212.3 212.3 212.498 
189.994 189.994 196.911 180.804 165.203 
FIELD FieldData 7
DY_minmax 1 1004 double
0.31247 0.44512 0.422818 0.62764 0.289638 0.514536 0.420928 0.580729 0.244826 
0.359172 0.746368 0.348798 0.691013 0.591982 0.369391 0.235198 0.343145 0.719353 
0.229664 0.310975 0.697675 0.171558 0.335615 0.194701 0.321659 0.203949 0.341548 
0.448808 0.213308 0.502796 0.425669 0.383621 0.407526 0.423267 0.0399196 0.19192 
0.571219 0.158676 0.319738 0.231548 0.189813 0.54635 0.359165 0.156411 0.341179 
0.566511 0.229079 0 0.151795 0.169958 0.358982 0.389306 0.264912 0.221443 
0.467873 0.489869 0.242065 0.324286 0.23459 0.243747 0.115681 0.222317 0.0728145 
0.420526 0.24066 0.121039 0.237257 0.318235 0.214031 0.163231 0.126293 0.48832 
0.4932 0.2524 0.157714 0.3454 0.389544 0.442586 0.205367 0.197933 0.117177 
0.145941 0.210192 0.235151 0.204847 0.185487 0.179404 0.214429 0.193611 0.158874 
0.0937741 0.258232 0.25964 0.254212 0.211539 0.186335 0.226888 0.198898 0.255228 
0.318235 0.383596 0.383596 0.535932 0.656324 0.553142 0.694596 0.59827 0.59827 
0.594156 0.594156 0.527335 0.583893 0.504204 0.551126 0.422914 0.43087 0.284615 
0.206284 0.223848 0.18871 0.161023 0.165122 0.126293 0.282956 0.256671 0.263596 
0.215713 0.222031 0.163588 0.120222 0.149976 0.191813 0.109392 0.168478 0.246699 
0.271287 0.302567 0.285521 0.285521 0.250202 0.159857 0.159857 0.130641 0.117837 
0.106654 0.14844 0.157661 0.383465 0.367131 0.327695 0.333635 0.38711 0.38711 
0.487841 0.366435 0.396269 0.313647 0.254931 0.22615 0.22049 0.209952 0.252158 
0.258722 0.37518 0.364769 0.372688 0.311918 0.28643 0.257481 0.14065 0.151461 
0.16859 0.257858 0.266653 0.256929 0.328261 0.242447 0.119333 0.151269 0.187552 
0.189092 0.184782 0.0881894 0.206635 0.285544 0.284236 0.359566 0.359566 0.365122 
0.319223 0.357416 0.286016 0.249891 0.183948 0.183948 0.2613 0.251931 0.25164 
0.244069 0.184854 0.305696 0.281245 0.414228 0.414232 0.295704 0.286136 0.371744 
0.461903 0.329892 0.453959 0.491847 0.459858 0.459858 0.475171 0.408973 0.434126 
0.356466 0.336033 0.253656 0.239145 0.230735 0.287856 0.254705 0.37491 0.269329 
0.339923 0.332023 0.362166 0.360351 0.494792 0.495396 0.490593 0.589444 0.589444 
0.557332 0.577326 0.488204 0.599408 0.415878 0.373156 0.462525 0.44204 0.367375 
0.205269 0.410739 0.343021 0.273587 0.219315 0.285599 0.274763 0.267482 0.270673 
0.293022 0.235924 0.16155 0.109832 0.117457 0.15568 0.169399 0.220923 0.203235 
0.180295 0.182192 0.241157 0.30441 0.458357 0.295726 0.173705 0.211397 0.181179 
0.166516 0.170634 0.161993 0.203828 0.337509 0.254949 0.347193 0.210513 0.334252 
0.192691 0.300564 0.286555 0.280148 0.237669 0.199357 0.162476 0.159851 0.158459 
0.0945146 0.0846272 0.132481 0.357632 0.307123 0.219553 0.272696 0.342772 0.296744 
0.276396 0.138446 0.180679 0.251644 0.270029 0.216522 0.279542 0.350164 0.393529 
0.509161 0.481405 0.545925 0.525891 0.525891 0.502396 0.393678 0.338948 0.258068 
0.153715 0.23528 0.406316 0.294692 0.251802 0.183154 0.355576 0.151278 0.0966205 
0.119674 0.0799709 0.164088 0.238376 0.188029 0.244853 0.211833 0.177987 0.276235 
0.168137 0.182011 0.228681 0.258443 0.250665 0.219586 0.220601 0.268961 0.305243 
0.305243 0.315217 0.337947 0.337947 0.327374 0.248382 0.248382 0.14532 0.200453 
0.234473 0.24161 0.258418 0.232805 0.220351 0.200155 0.265571 0.314991 0.331572 
0.216994 0.519043 0.462746 0.428063 0.428063 0.283272 0.384119 0.234313 0.295157 
0.295157 0.358714 0.172818 0.168279 0.240506 0.236182 0.284446 0.271546 0.310129 
0.337928 0.266251 0.266251 0.279936 0.398276 0.359559 0.393818 0.341768 0.382609 
0.27449 0.321411 0.277201 0.255457 0.366023 0.303243 0.33852 0.405694 0.337845 
0.319869 0.319869 0.151898 0.189939 0.209746 0.162684 0.135258 0.129995 0.204768 
0.365533 0.187693 0.183264 0.36443 0.389017 0.539285 0.413942 0.248542 0.255509 
0.260788 0.238859 0.341893 0.315914 0.257677 0.367783 0.246816 0.323714 0.323714 
0.294475 0.270877 0.218787 0.114221 0.0817772 0.424529 0.500672 0.574366 0.501435 
0.508821 0.464706 0.444428 0.394568 0.354505 0.389697 0.400062 0.429956 0.567756 
0.515058 0.513496 0.665005 0.618903 0.583888 0.761093 0.714485 0.893275 1 
0.793112 0.915272 0.791754 0.632246 0.337817 0.21854 0.159794 0.296765 0.331511 
0.532616 0.541557 0.556107 0.814588 0.791698 0.7187 0.664617 0.664617 0.69915 
0.835998 0.835998 0.784205 0.803658 0.679609 0.702285 0.810488 0.673442 0.626726 
0.617497 0.530854 0.530854 0.43208 0.429484 0.429484 0.460097 0.441952 0.332544 
0.338296 0.267928 0.267928 0.28502 0.346847 0.395757 0.448151 0.498358 0.411133 
0.430247 0.338819 0.249733 0.249733 0.244374 0.292407 0.202404 0.302974 0.294491 
0.294491 0.555353 0.400637 0.551414 0.576556 0.576556 0.44437 0.15957 0.194286 
0.186622 0.216358 0.135058 0.273007 0.273436 0.282054 0.408829 0.408466 0.447521 
0.447521 0.423733 0.341953 0.283757 0.199731 0.228519 0.179156 0.179156 0.233233 
0.462252 0.462252 0.436433 0.438342 0.643655 0.470485 0.470485 0.427484 0.311826 
0.366275 0.366348 0.241046 0.379391 0.259129 0.216093 0.279988 0.263144 0.298957 
0.205392 0.218312 0.264363 0.31025 0.313997 0.369451 0.350004 0.378351 0.103375 
0.100015 0.122081 0.122081 0.174108 0.296228 0.247233 0.281184 0.24343 0.247143 
0.203271 0.258479 0.198426 0.191209 0.243029 0.242512 0.373844 0.399759 0.396147 
0.195641 0.392855 0.0295203 0.0366836 0.101396 0.17833 0.229267 0.297628 0.189656 
0.190661 0.198505 0.179531 0.188694 0.282581 0.405593 0.242195 0.175782 0.368925 
0.431666 0.438676 0.331816 0.331816 0.31023 0.292404 0.337848 0.379499 0.468113 
0.264741 0.319132 0.241075 0.206649 0.357915 0.323533 0.270878 0.364702 0.483598 
0.494501 0.236523 0.264726 0.43847 0.493614 0.442374 0.35626 0.291919 0.19573 
0.265493 0.298343 0.349682 0.211705 0.203691 0.315311 0.415477 0.486695 0.486695 
0.390461 0.49228 0.5728 0.673677 0.513938 0.494913 0.607125 0.529195 0.369004 
0.321805 0.329738 0.345254 0.279346 0.234902 0.305347 0.333207 0.35977 0.271239 
0.236902 0.403293 0.373136 0.172725 0.198668 0.269845 0.387057 0.315001 0.357257 
0.455922 0.363954 0.301696 0.296262 0.146305 0.169275 0.638186 0.613259 0.636043 
0.591838 0.58037 0.222008 0.155121 0.132466 0.0487698 0.273533 0.270674 0.30375 
0.262853 0.332441 0.300885 0.169409 0.253694 0.368499 0.378028 0.219593 0.260256 
0.264603 0.237437 0.252107 0.338776 0.338776 0.515388 0.613841 0.637735 0.661912 
0.588618 0.295651 0.226094 0.354377 0.332861 0.294169 0.361624 0.362203 0.346901 
0.367543 0.361069 0.446394 0.418585 0.628386 0.232303 0.259721 0.27409 0.346105 
0.406703 0.436954 0.465284 0.465284 0.496746 0.480759 0.480759 0.437992 0.437992 
0.372576 0.307806 0.290057 0.301556 0.302221 0.296619 0.202599 0.22404 0.304351 
0.685214 0.478662 0.414899 0.379115 0.293089 0.304523 0.464904 0.276847 0.254028 
0.375549 0.28591 0.319612 0.319612 0.210569 0.267236 0.338695 0.430693 0.362718 
0.362718 0.403052 0.291877 0.358547 0.450623 0.319791 0.349915 0.349915 0.310227 
0.366904 0.527417 0.592928 0.702853 0.64953 0.576712 0.466051 0.541772 0.37236 
0.558812 0.42734 0.308531 0.378673 0.375556 0.352764 0.442369 0.442369 0.421909 
0.335889 0.372952 0.33505 0.193012 0.268665 0.312723 0.319003 0.377369 0.469311 
0.474639 0.476841 0.599344 0.390067 0.519318 0.252489 0.534051 0.46417 0.301583 
0.328789 0.329913 0.328518 0.466741 0.50111 0.303856 0.249514 0.302003 0.346618 
0.12473 0.197629 0.240978 0.188469 0.147893 0.259963 0.312009 0.433799 0.418748 
0.528071 0.421666 0.529694 0.606885 0.542169 0.853465 0.320634 0.334025 0.371893 
0.366836 0.41411 0.347781 0.347781 0.30166 0.333465 0.276156 0.275717 0.283562 
0.244181 0.295224 0.403949 0.360853 0.371768 0.415116 0.515557 0.586039 0.612149 
0.601878 0.542958 0.56942 0.362256 0.25766 0.302854 0.356887 0.437078 0.52296 
0.287003 0.254303 0.330869 0.341725 0.219928 0.323519 0.366133 0.418448 0.484423 
0.517669 0.550675 0.475443 0.389378 0.304943 0.35218 0.39251 0.376593 0.414211 
0.533415 0.54085 0.671309 0.590594 0.62632 0.767813 0.50555 0.609576 0.559117 
0.470287 0.470287 0.501652 0.487422 0.487422 0.56155 0.500368 0.611927 0.537007 
0.462696 0.50147 0.474122 0.415612 0.462479 0.458826 0.53336 0.478162 0.444536 
0.214629 0.324425 0.379886 0.432488 0.25452 0.246481 0.301415 0.222465 0.200347 
0.246514 0.178335 0.152892 0.129353 0.140218 0.194265 0.422818 0.435321 0.445664 
0.409642 0.539295 0.508494 0.375305 0.375305 0.353952 0.276622 0.332343 0.391319 
0.375041 0.465535 0.73491 0.665374 0.720664 0.739512 0.620959 0.776634 0.618826 
0.478255 0.230553 0.343387 0.354487 0.486723 0.391127 0.395993 0.440266 0.410626 
0.420928 0.261308 0.202029 0.220944 0.173125 0.188482 0.188482 0.158728 0.258752 
0.275744 0.241489 0.33553 0.41549 0.537437 0.598312 0.517155 0.526866 0.492975 
0.492975 0.646903 0.513277 0.664767 0.716134 0.543765 0.517499 0.395992 0.333857 
0.417626 0.478423 0.612158 0.33847 0.33847 0.263217 0.293333 0.293333 0.301062 
0.301062 0.294305 0.301982 0.368886 0.415379 0.444047 0.444047 0.430178 0.435919 
0.435919 0.481864 0.481864 0.478362 0.482834 0.549359 0.458073 0.453265 0.345308 
0.407712 0.380043 0.380043 0.445419 0.54995 0.54995 0.50129 0.50129 0.502242 
0.394001 0.394001 0.427273 0.349796 0.274757 
WidthEq 1 1004 double
4.09243 3.69684 3.30473 1.97414 3.04782 1.86808 3.13457 2.16374 4.21096 
4.04972 2.46037 2.79263 2.52803 3.0521 4.86705 5.25989 5.6884 3.06784 
5.25592 5.67327 2.25042 6.77313 4.48296 5.2431 4.94861 5.43627 3.45079 
4.91998 5.48391 3.91866 4.5362 5.07649 5.29993 4.46029 4.08698 3.80738 
4.38734 4.54599 5.9453 5.86821 6.35362 3.41749 5.95666 5.51727 3.8199 
2.05361 4.1751 3.52998 6.41763 5.20169 5.27815 1 6.58228 4.69131 
3.45391 3.09061 5.57434 4.02882 4.69104 5.75386 5.11381 3.94217 6.78187 
3.2799 4.93473 5.59565 5.56583 3.92344 4.85975 4.94619 3.38142 1.52687 
2.58439 5.0166 3.48663 2.96097 2.10559 2.35932 3.51102 3.51977 3.59992 
3.78986 4.14429 4.23096 4.78653 5.23583 5.51876 5.84623 6.57139 6.74401 
7.07642 3.55584 3.86806 4.11392 4.3767 4.62145 4.69968 4.88424 4.65667 
3.92344 2.78201 2.78201 2.55181 2.24833 2.40105 2.1488 2.29124 2.29124 
2.3225 2.3225 2.46317 2.31111 2.46343 2.37176 2.6767 2.28544 3.23241 
4.08572 4.13455 4.42736 4.28172 4.19881 3.38142 2.83899 2.78959 3.17516 
3.61851 4.20607 4.59953 4.60411 4.57344 4.4699 4.46901 4.24646 3.90162 
3.85113 3.65634 3.53145 3.53145 3.5111 3.57818 3.57818 3.79722 3.83817 
3.8177 4.32003 4.99658 3.03891 2.94011 3.13854 3.23127 3.11526 3.11526 
3.01683 3.07923 3.00568 2.95414 3.18795 3.06284 3.20704 3.36815 3.27747 
3.36567 3.21171 3.1381 3.0839 2.99463 2.93038 3.1835 3.93674 4.30539 
4.70179 4.61371 4.50488 4.37922 4.21132 4.51756 5.03176 5.27982 5.74321 
6.59177 3.96807 4.92798 3.48033 3.37416 3.22209 3.09628 3.09628 3.506 
3.65393 3.56086 3.75627 3.7459 3.73282 3.73282 3.6109 3.65143 3.88448 
4.39854 3.30307 3.20359 3.10852 2.84269 2.8867 3.02232 3.09162 3.11058 
3.01982 3.1769 2.96256 3.0405 3.13624 3.13624 3.03417 2.85753 2.85666 
2.81924 2.70598 2.8512 2.99494 3.1236 3.16203 3.1787 2.84493 2.98114 
2.77195 2.73131 2.73291 2.78756 2.94554 2.98533 3.09687 2.79055 2.79055 
2.81587 2.6984 2.80284 2.53799 2.91678 3.13399 3.20264 3.48291 3.78811 
6.02755 3.19205 3.56971 3.84269 4.00204 3.82599 3.6769 3.61884 3.88138 
3.8972 4.25846 4.61724 5.02099 5.46666 5.45226 5.7069 5.70285 5.82851 
5.8013 5.1018 4.95761 4.73186 2.27816 3.53244 5.1953 5.28428 4.69461 
4.40387 4.31965 4.20241 5.24543 3.8436 3.48505 3.1687 5.37846 5.18808 
5.49267 5.72831 6.11568 6.98451 5.37271 5.35167 5.80223 5.91302 5.61818 
6.09396 6.4158 6.80385 3.61348 4.34601 5.18566 4.20028 3.73266 3.72936 
3.7802 5.45536 4.85767 7.09512 6.98995 7.24808 3.86484 3.82926 3.60681 
3.23086 3.09766 2.69956 2.64549 2.64549 2.71392 3.31769 3.99689 4.80742 
5.40375 4.92797 4.00364 4.06879 4.43737 4.68389 5.39923 5.63952 5.47634 
5.47365 5.18178 4.96214 4.79252 4.94102 4.77306 4.84325 4.97035 4.7429 
4.77221 4.69282 4.61157 4.52175 4.31245 3.88655 3.76111 3.63937 3.37067 
3.37067 3.23658 3.0135 3.0135 2.97344 3.02943 3.02943 3.24377 3.37965 