# vtk DataFile Version 3.0
vtk output
ASCII
DATASET POLYDATA
POINTS 654 float
1.78751 -0.200302 1.10917 1.1604 -0.0563287 1.13139 1.93077 0.140839 0.840803 
1.49982 0.434894 0.937949 1.24298 0.561259 0.917652 1.05862 0.816447 0.898146 
0.950052 0.595736 0.897796 0.179349 0.255588 0.708109 0.129778 0.0398789 0.861777 
0.0622805 -0.219209 0.79838 1.78827 0.211049 0.762701 1.46801 -1.44061 0.791708 
1.19448 -1.60757 0.779145 0.612496 -1.46732 0.670701 0.0355393 -0.461691 0.670277 
0.0322209 0.143021 0.651909 0.0279974 0.912655 0.628533 -0.0241737 0.417482 0.640046 
-0.0922741 0.268342 0.57331 4.60209 -0.103977 0.752458 4.15517 -0.459534 0.60075 
4.89025 -0.272849 0.57554 1.76898 -1.61547 0.415291 1.76808 -1.45055 0.410282 
1.3311 -1.83863 0.393855 0.347221 -1.81132 0.262979 4.78967 0.380032 0.348975 
0.520626 -1.85074 0.141639 -0.251097 -1.25174 0.0740699 4.3634 0.37078 0.121361 
3.37817 -0.131328 0.0731289 2.88299 0.0848959 0.0348199 2.60765 0.247778 0.0122385 
1.57658 -1.90395 0.0105847 1.33713 1.72269 -0.113677 0.309131 -1.99276 -0.268692 
2.86443 -0.699041 -0.631604 2.39415 -1.53738 -0.749897 1.23294 2.3512 -1.14175 
2.16713 -1.65506 -1.32236 -0.657606 1.44537 -1.63704 -0.931735 1.38835 -1.65294 
0.968683 2.2797 -1.9987 -0.356178 -1.14235 -1.74049 -0.5228 1.54415 -2.03235 
2.45568 1.23035 -2.03205 2.2877 1.83384 -2.06096 1.31996 -1.85675 -2.01235 
-0.237663 1.92502 -2.22596 0.883886 2.25104 -2.56469 -0.342053 1.2646 -2.81435 
0.0174756 1.1981 -3.2571 1.48734 1.62645 -3.30917 1.37727 1.68061 -3.31787 
0.299245 1.41604 -3.3792 0.572526 0.624 -3.53836 0.627703 0.571473 -3.53324 
0.682715 0.528821 -3.52843 0.735828 0.501308 -3.52419 0.779056 0.458568 -3.52013 
0.807684 0.405509 -3.52412 0.8524 0.350299 -3.54187 0.90851 0.294388 -3.58114 
0.966911 0.238378 -3.62769 1.02446 0.184633 -3.6595 1.07958 0.141981 -3.65468 
1.13225 0.115691 -3.61338 1.18451 0.0763097 -3.56428 1.2382 0.0363627 -3.53736 
1.29418 0.0104591 -3.54783 1.35066 -0.0209437 -3.56554 1.40569 -0.0464033 -3.56124 
1.4589 -0.0861285 -3.52693 1.51164 -0.125732 -3.48522 1.56477 -0.152143 -3.45131 
1.61799 -0.191969 -3.41699 1.67025 -0.23135 -3.36789 1.72233 -0.257419 -3.3192 
1.77399 -0.29942 -3.29235 1.81629 -0.352603 -3.30288 1.83377 -0.408016 -3.32238 
1.84561 -0.462678 -3.31255 1.85792 -0.515985 -3.25818 1.83992 -0.568617 -3.17607 
1.83886 -0.621121 -3.09287 1.87103 -0.673379 -3.00755 1.90454 -0.725402 -2.91472 
1.91407 -0.777153 -2.80859 1.92417 -0.829014 -2.70984 1.96077 -0.879426 -2.63172 
2.01052 -0.918501 -2.57537 2.06205 -0.930494 -2.51972 2.11315 -0.930461 -2.45703 
2.16377 -0.930095 -2.38695 2.21398 -0.939393 -2.30919 2.26379 -0.963493 -2.22357 
2.31256 -0.970186 -2.1237 2.36122 -0.956909 -2.02443 2.40978 -0.926561 -1.92569 
2.45937 -0.909859 -1.84131 2.50943 -0.89338 -1.76434 2.55942 -0.863486 -1.68776 
2.60854 -0.846564 -1.596 2.65622 -0.828975 -1.48208 2.70289 -0.797629 -1.35377 
2.74889 -0.781017 -1.21208 2.7947 -0.771403 -1.04976 2.84044 -0.748685 -0.852579 
0.615517 0.677268 -3.60404 0.63477 0.730584 -3.66381 0.651148 0.78433 -3.70892 
0.677458 0.838826 -3.73114 0.677742 0.893578 -3.7402 0.654178 0.948379 -3.74336 
0.651475 1.00356 -3.73776 0.660897 1.05928 -3.71655 0.628697 1.11537 -3.67575 
0.576183 1.17153 -3.62882 0.532198 1.22754 -3.58878 0.514021 1.28317 -3.56191 
0.495784 1.33691 -3.53499 0.450295 1.37962 -3.49465 0.384324 1.39951 -3.44007 
0.51764 0.623592 -3.54188 0.462754 0.623184 -3.54539 0.407867 0.622887 -3.54891 
0.352495 0.624739 -3.54509 0.296108 0.63895 -3.52687 0.238149 0.680894 -3.4873 
0.179758 0.734974 -3.44069 0.123758 0.790776 -3.40141 0.0809777 0.84611 -3.38354 
0.0643338 0.901188 -3.37884 0.0499915 0.956057 -3.3814 0.020463 1.011 -3.38 
-0.0021946 1.06709 -3.36334 -0.0159787 1.12794 -3.32149 0.265223 1.49901 -3.30962 
0.215909 1.56533 -3.23308 0.16827 1.62391 -3.1488 0.134963 1.67925 -3.07091 
0.0865134 1.72443 -2.99369 0.0272293 1.75473 -2.90188 -0.0363191 1.79944 -2.77363 
-0.10235 1.84525 -2.60845 -0.169732 1.87832 -2.4207 0.231372 1.34776 -3.37656 
0.169576 1.28898 -3.35896 0.102231 1.2388 -3.31722 1.43237 1.64194 -3.31317 
-0.0592962 1.24139 -3.12718 -0.126183 1.27878 -3.02121 -0.188497 1.28291 -2.94117 
-0.256952 1.26395 -2.8757 -0.407308 1.35116 -2.62064 -0.440947 1.42121 -2.4244 
-0.47062 1.48341 -2.22767 -0.40188 1.19911 -2.71969 -0.438089 1.14129 -2.65345 
-0.481416 1.08621 -2.62488 -0.522584 1.03112 -2.61844 -0.548009 0.97595 -2.61842 
-0.576757 0.920761 -2.61861 -0.588935 0.86592 -2.61031 -0.591618 0.811374 -2.594 
-0.594777 0.757051 -2.5703 -0.60732 0.702432 -2.55461 -0.634992 0.647701 -2.53989 
-0.64801 0.593305 -2.51681 -0.651908 0.539426 -2.47832 -0.652154 0.485575 -2.43959 
-0.641381 0.431355 -2.41499 -0.614641 0.376803 -2.40421 -0.60426 0.321904 -2.40189 
-0.611892 0.266872 -2.40073 -0.624198 0.211578 -2.40729 -0.595458 0.15614 -2.42606 
-0.555799 0.100332 -2.45897 -0.539877 0.0445726 -2.48597 -0.537539 -0.0103859 -2.48417 
-0.539137 -0.0644723 -2.45295 -0.543135 -0.118351 -2.41445 -0.556153 -0.172748 -2.39138 
-0.58335 -0.227701 -2.38405 -0.594944 -0.282763 -2.38314 -0.596568 -0.337751 -2.3816 
-0.596266 -0.392725 -2.37993 -0.594039 -0.447685 -2.37813 -0.582207 -0.502347 -2.3683 
-0.554379 -0.556441 -2.34261 -0.533135 -0.609907 -2.29509 -0.507098 -0.663112 -2.23983 
-0.495713 -0.716651 -2.19294 -0.483005 -0.770857 -2.16822 -0.456054 -0.825407 -2.15742 
-0.444332 -0.880071 -2.1476 -0.443419 -0.934364 -2.12364 -0.444295 -0.987769 -2.07011 
-0.435284 -1.0402 -1.98627 -0.401149 -1.09154 -1.87115 0.924172 2.26295 -2.28472 
-0.298419 1.87252 -2.13175 -0.357276 1.81914 -2.0671 -0.413176 1.76442 -2.04676 
-0.465249 1.70883 -2.05587 -0.504953 1.65311 -2.0716 -0.519057 1.59825 -2.06344 
-0.273387 1.98469 -2.06668 -0.266907 2.04377 -1.93436 -0.249579 2.10169 -1.83846 
-0.211846 2.15716 -1.76343 -0.16291 2.20035 -1.70217 -0.111059 2.21615 -1.65477 
-0.0580936 2.22142 -1.62182 -0.00517249 2.23474 -1.58911 0.0471903 2.26342 -1.54947 
0.0996271 2.27879 -1.50944 0.153487 2.2935 -1.49157 0.208699 2.32085 -1.49627 
0.264944 2.33251 -1.51528 0.320769 2.3344 -1.52661 0.375655 2.33492 -1.5231 
0.429591 2.33577 -1.5048 0.482577 2.33717 -1.47173 0.535554 2.3404 -1.43872 
0.588951 2.35339 -1.4134 0.644163 2.38053 -1.4181 0.702543 2.38924 -1.46807 
0.767439 2.37454 -1.5808 0.85138 2.33121 -1.76569 1.06187 2.21642 -2.09775 
1.13434 2.16815 -2.18966 1.19585 2.13809 -2.26055 1.2538 2.09619 -2.29864 
1.30843 2.05783 -2.28656 1.35899 2.04843 -2.21619 1.4036 2.06451 -2.08756 
1.43196 2.11059 -1.92375 1.42278 2.16864 -1.75528 1.38742 2.22787 -1.60338 
1.36428 2.28491 -1.46549 1.34012 2.32959 -1.34215 1.29187 2.34656 -1.23437 
1.37836 -1.80518 -2.06955 1.43538 -1.76283 -2.10429 1.49011 -1.73461 -2.10162 
1.54288 -1.69231 -2.0698 1.59517 -1.65171 -2.03052 1.64856 -1.63667 -2.00527 
1.70295 -1.63196 -1.99449 1.75728 -1.61737 -1.984 1.81053 -1.57732 -1.95951 
1.86235 -1.53661 -1.91285 1.91384 -1.52091 -1.85802 1.96496 -1.51876 -1.79391 
2.01678 -1.5312 -1.70259 2.07867 -1.57815 -1.54273 1.36281 -1.90544 -1.81506 
1.40706 -1.95287 -1.63999 1.4541 -1.98971 -1.50962 1.50432 -2.00114 -1.43179 
1.55685 -2.0036 -1.39121 1.60991 -2.01422 -1.35778 1.66161 -2.03738 -1.30178 
1.71222 -2.03488 -1.23176 1.76221 -2.00519 -1.15519 1.81364 -1.9794 -1.10068 
1.86551 -1.94662 -1.05377 1.91835 -1.91935 -1.02148 1.97198 -1.87537 -1.00303 
2.02944 -1.82062 -1.03959 2.09391 -1.75208 -1.15038 1.27104 -1.82096 -2.11311 
1.22033 -1.80758 -2.18359 1.16727 -1.79492 -2.21709 1.11271 -1.76828 -2.22882 
1.05775 -1.75483 -2.23276 1.00279 -1.74139 -2.23669 0.947751 -1.71453 -2.24103 
0.892788 -1.70108 -2.24497 0.837826 -1.68764 -2.2489 0.782791 -1.66078 -2.25325 
0.727828 -1.64733 -2.25718 0.672866 -1.63378 -2.26112 0.618294 -1.60521 -2.27291 
0.56469 -1.58041 -2.29938 0.511943 -1.53897 -2.34114 0.458665 -1.48734 -2.37582 
0.403489 -1.43481 -2.38094 0.346941 -1.39149 -2.36359 0.290954 -1.36365 -2.35318 
0.236792 -1.32349 -2.37271 0.183116 -1.28548 -2.39959 0.128154 -1.27204 -2.40352 
0.0713575 -1.26952 -2.37754 0.0136212 -1.26838 -2.33673 -0.0445994 -1.26519 -2.28858 
-0.104784 -1.24931 -2.21124 -0.16748 -1.20719 -2.09772 -0.231601 -1.16442 -1.96203 
-0.294634 -1.1472 -1.84035 2.34063 1.77925 -2.05592 2.38006 1.72457 -2.05174 
2.38434 1.66963 -2.04982 2.37156 1.61456 -2.04899 2.38709 1.5597 -2.04634 
2.39746 1.5048 -2.04403 2.40151 1.44985 -2.04212 2.41382 1.39497 -2.03968 
2.44114 1.34019 -2.03628 2.45334 1.28531 -2.03385 -0.570212 1.49413 -1.92993 
-0.606195 1.45679 -1.79745 0.990992 2.36466 -1.9003 0.987039 2.40273 -1.84972 
0.966881 2.36494 -1.88701 -0.401432 -1.19451 -1.63787 -0.423399 -1.24548 -1.50407 
-0.434028 -1.29343 -1.33252 -0.431839 -1.33084 -1.14561 -0.402125 -1.35312 -0.964807 
-0.359119 -1.39112 -0.804952 -0.315108 -1.43956 -0.659576 -0.281823 -1.49035 -0.529677 
-0.272301 -1.5421 -0.423541 -0.262231 -1.59497 -0.354479 -0.234669 -1.64884 -0.321386 
-0.209007 -1.70329 -0.310674 -0.165834 -1.75602 -0.306317 -0.112639 -1.79858 -0.301622 
-0.0577201 -1.82405 -0.297328 -0.00267396 -1.85284 -0.292927 0.0522894 -1.8665 -0.288985 
0.107332 -1.8819 -0.284986 0.163794 -1.92126 -0.280177 0.228141 -1.96448 -0.274744 
-0.877335 1.39102 -1.6421 -0.823464 1.40379 -1.62417 -0.769676 1.43171 -1.6067 
-0.714381 1.44381 -1.61094 -0.615765 1.49288 -1.43527 -0.573374 1.52677 -1.24049 
-0.529633 1.57329 -1.06828 -0.483033 1.61666 -0.940344 -0.432981 1.63507 -0.863424 
-0.380072 1.65042 -0.830781 -0.326296 1.68048 -0.813371 -0.272975 1.70732 -0.788475 
-0.221162 1.75008 -0.741878 -0.169825 1.79306 -0.687879 -0.118404 1.82079 -0.633428 
-0.0665251 1.85152 -0.586465 -0.0150184 1.86368 -0.53154 0.036588 1.85759 -0.476051 
0.0887084 1.84429 -0.427751 0.142087 1.86051 -0.402533 0.195969 1.87135 -0.384539 
0.249421 1.87414 -0.358912 0.301469 1.87405 -0.311014 0.353097 1.8641 -0.255407 
0.405283 1.83877 -0.206742 0.458335 1.82815 -0.17331 0.511333 1.8274 -0.140178 
0.563382 1.8271 -0.0922724 0.61501 1.81704 -0.0366628 0.666732 1.79 0.0194523 
[...]
POINT_DATA 654
SCALARS DY_raw double
LOOKUP_TABLE default
426.665 360.793 350.915 535.179 383.766 304.926 245.035 274.237 370.683 
403.675 222.233 406.7 349.917 300.053 424.664 261.947 414.902 296.906 
253.88 486.849 261.325 450.22 500.227 329.876 418.181 379.275 877.134 
336.529 413.706 555.953 304.898 388.353 310.227 424.966 214.541 283.598 
370.669 643.668 449.6 339.326 292.951 155.352 224.704 305.031 282.793 
238.318 119.457 274.303 285.64 139.564 219.207 221.636 257.888 228.17 
217.989 285.522 285.522 307.089 333.849 356.863 375.365 346.682 382.103 
355.145 319.18 323.42 363.961 338.067 377.523 364.752 282.694 282.862 
273.078 258.215 294.97 253.163 271.101 275.419 311.747 335.444 327.785 
296.655 314.576 218.415 197.43 211.692 184.419 208.318 213.053 215.698 
223.542 242.877 259.541 275.145 269.05 284.468 276.507 298.215 302.869 
256.134 267.956 269.152 265.426 258.891 282.194 328.941 312.641 357.653 
248.902 225.741 239.761 266.743 266.743 296.466 297.576 335.075 282.648 
287.493 253.069 256.278 211.217 200.893 194.78 277.78 261.955 243.644 
243.644 236.729 230.179 254.018 275.981 272.088 290.952 270.812 239.189 
193.612 192.958 212.26 243.656 257.472 232.101 204.858 224.623 231.781 
335.777 325.101 216.006 196.813 216.859 251.233 215.754 280.152 227.825 
211.413 241.741 292.141 242.167 257.76 271.029 315.175 287.346 266.879 
276.697 276.697 263.422 274.139 274.139 297.848 317.425 351.939 335.195 
356.876 345.693 332.677 332.677 380.941 401.73 401.73 359.416 359.416 
330.584 262.615 289.437 295.667 304.843 304.843 319.413 331.979 331.979 
291.116 306.655 334.532 329.788 329.788 308.44 266.642 266.642 272.175 
201.043 247.982 192.692 301.237 322.675 353.781 314.153 242.238 253.474 
248.453 274.682 330.852 287.63 264.981 280.531 250.307 256.738 273.822 
237.223 238.018 232.477 232.477 245.608 239.63 235.533 235.55 256.676 
255.057 255.057 232.296 228.302 215.08 225.392 239.691 233.323 221.539 
248.874 272.814 284.614 280.517 241.222 278.549 321.133 341.659 400.197 
271.745 296.283 268.512 310.882 303.614 303.614 251.099 282.462 229.694 
264.122 296.072 298.204 324.706 423.442 289.249 270.169 305.563 337.748 
342.418 352.137 382.654 392.196 433.062 494.451 528.085 543.779 517.512 
449.115 377.674 254.966 234.294 249.171 249.171 301.455 343.303 343.303 
381.577 381.577 345.276 333.066 310.25 296.683 272.902 267.533 262.248 
335.064 339.286 358.421 313.019 250.502 237.406 260.994 223.653 228.332 
277.323 307.728 306.685 287.754 151.442 178.449 178.449 182.952 185.678 
185.678 195.19 195.19 206.483 209.947 262.782 265.78 227.009 220.278 
227.009 266.712 274.706 296.855 330.649 410.294 366.492 376.453 359.99 
374.885 364.276 397.138 370.603 323.076 286.497 284.425 284.425 296.102 
303.126 296.986 267.299 155.352 248.216 270.476 270.476 346.348 325.695 
353.935 331.149 348.604 346.376 358.19 281.264 290.183 281.035 263.453 
250.191 283.879 290.487 262.036 237.657 237.657 264.862 258.804 313.638 
360.22 409.536 374.48 396.589 354.136 274.832 282.328 262.925 271.068 
308.375 330.756 330.756 362.998 362.998 367.8 326.752 384.971 375.155 
361.239 391.083 377.042 368.934 368.934 281.614 271.409 318.522 415.147 
512.248 390.838 431.023 395.51 434.41 425.667 446.409 433.676 375.926 
373.307 416.914 320.564 313.321 279.863 372.998 398.889 454.04 452.813 
348.11 310.017 293.234 308.063 311.169 285.944 285.944 318.197 338.835 
290.032 284.022 320.821 314.337 320.25 320.25 324.287 354.231 335.759 
370.547 441.568 267.005 294.733 294.733 375.043 373.635 365.438 371.332 
273.473 271.361 267.341 267.341 278.635 325.24 302.155 359.43 337.848 
332.359 290.771 302.884 302.884 316.096 326.792 361.269 408.229 419.354 
419.354 367.988 367.988 346.816 306.417 338.551 341.786 260.75 268.02 
237.81 402.298 419.992 442.792 350.914 349.042 372.138 388.353 316.137 
415.818 365.991 354.966 381.847 291.796 282.937 298.623 305.694 308.282 
295.169 295.169 283.79 279.24 295.312 333.204 389.464 387.76 315.851 
315.851 293.332 271.198 284.411 545.636 476.124 476.124 468.245 436.65 
436.65 682.184 413.889 395.638 395.629 406.751 415.801 372.877 385.318 
385.318 353.848 325.123 294.719 283.06 238.446 247.172 281.569 349.314 
396.873 404.269 331.708 309.307 351.5 336.275 343.61 361.762 500.227 
270.015 311.471 360.242 417.935 431.95 422.556 393.73 409.222 247.178 
273.776 320.07 294.222 298.044 271.17 302.38 313.816 313.816 324.375 
273.158 278.475 316.181 359.566 380.629 428.568 462.538 260.569 288.222 
255.395 225.97 229.059 194.915 196.113 259.733 232.738 267.321 276.504 
276.504 267.948 265.69 287.974 289.719 318.455 336.379 423.325 465.14 
495.918 496.716 484.85 468.149 439.583 423.211 423.832 380.313 400.747 
280.096 272.283 283.618 275.098 300.914 253.969 253.969 267.223 312.755 
312.755 314.38 353.674 309.873 275.123 346.364 323.83 358.358 436.879 
430.231 439.111 322.172 328.084 341.611 363.702 393.732 393.732 366.875 
347.994 345.947 398.256 387.013 424.523 442.003 284.267 366.49 414.325 
380.221 357.774 376.093 324.681 328.929 380.175 350.828 350.828 316.485 
354.943 384.791 386.886 424.672 342.522 283.482 306.855 365.873 385.489 
378.974 248.452 254.643 276.904 288.282 316.091 347.693 391.053 398.252 
467.912 377.597 397.826 393.99 418.19 371.714 368.164 319.536 336.597 
374.61 399.347 435.981 449.992 452.456 456.165 
FIELD FieldData 7
DY_minmax 1 654 double
0.40546 0.318521 0.305483 0.548679 0.348841 0.244786 0.165741 0.204282 0.331573 
0.375118 0.135646 0.37911 0.304166 0.238354 0.402819 0.188061 0.389935 0.234202 
0.177414 0.484892 0.187241 0.436549 0.502548 0.277716 0.394263 0.342913 1 
0.286497 0.388356 0.576097 0.244749 0.354895 0.251783 0.403218 0.125493 0.216637 
0.331556 0.691866 0.43573 0.290189 0.228981 0.047375 0.138908 0.244924 0.215575 
0.156875 0 0.204369 0.219332 0.0265376 0.131652 0.134858 0.182705 0.143481 
0.130045 0.219176 0.219176 0.247641 0.28296 0.313334 0.337753 0.299897 0.346646 
0.311067 0.263599 0.269195 0.322702 0.288526 0.340601 0.323746 0.215443 0.215666 
0.202752 0.183135 0.231646 0.176469 0.200144 0.205842 0.253789 0.285064 0.274955 
0.23387 0.257522 0.130607 0.10291 0.121733 0.085738 0.11728 0.12353 0.12702 
0.137374 0.162892 0.184886 0.205481 0.197436 0.217785 0.207278 0.235929 0.242071 
0.180389 0.195992 0.197571 0.192653 0.184028 0.214784 0.276481 0.254969 0.314376 
0.170844 0.140277 0.15878 0.194391 0.194391 0.23362 0.235085 0.284578 0.215383 
0.221778 0.176344 0.18058 0.121107 0.107481 0.0994132 0.208959 0.188071 0.163904 
0.163904 0.154779 0.146133 0.177597 0.206584 0.201446 0.226342 0.199762 0.158025 
0.0978714 0.0970085 0.122484 0.16392 0.182156 0.14867 0.112713 0.1388 0.148248 
0.285504 0.271413 0.127427 0.102096 0.128553 0.173921 0.127095 0.212089 0.143027 
0.121365 0.161393 0.227912 0.161955 0.182535 0.200048 0.258313 0.221583 0.194571 
0.207529 0.207529 0.190008 0.204153 0.204153 0.235445 0.261282 0.306835 0.284735 
0.313352 0.298591 0.281413 0.281413 0.345113 0.37255 0.37255 0.316704 0.316704 
0.27865 0.188943 0.224343 0.232566 0.244677 0.244677 0.263906 0.280492 0.280492 
0.226559 0.247068 0.283861 0.2776 0.2776 0.249424 0.194258 0.194258 0.201561 
0.107679 0.16963 0.0966569 0.239917 0.268211 0.309267 0.256964 0.162049 0.176878 
0.170252 0.204869 0.279004 0.221959 0.192066 0.212589 0.172699 0.181187 0.203734 
0.15543 0.156479 0.149166 0.149166 0.166497 0.158607 0.153199 0.153222 0.181105 
0.178968 0.178968 0.148928 0.143656 0.126205 0.139815 0.158687 0.150283 0.13473 
0.170808 0.202404 0.217978 0.212571 0.160708 0.209973 0.266177 0.293267 0.370527 
0.200993 0.233379 0.196726 0.252647 0.243054 0.243054 0.173744 0.215137 0.145493 
0.190932 0.233101 0.235914 0.270892 0.401206 0.224095 0.198913 0.245626 0.288106 
0.294268 0.307097 0.347374 0.359967 0.413903 0.494926 0.539317 0.560031 0.525363 
0.435091 0.340801 0.178847 0.151564 0.1712 0.1712 0.240205 0.295437 0.295437 
0.345952 0.345952 0.298042 0.281926 0.251813 0.233907 0.20252 0.195434 0.188458 
0.284563 0.290136 0.315391 0.255467 0.172957 0.155672 0.186804 0.13752 0.143696 
0.208355 0.248484 0.247107 0.222122 0.0422144 0.0778581 0.0778581 0.0838025 0.0873999 
0.0873999 0.0999539 0.0999539 0.114858 0.11943 0.189164 0.19312 0.14195 0.133066 
0.14195 0.194351 0.204901 0.234133 0.278736 0.383854 0.326043 0.339189 0.317461 
0.33712 0.323117 0.36649 0.331468 0.268741 0.220463 0.217728 0.217728 0.23314 
0.24241 0.234307 0.195125 0.047375 0.169939 0.199318 0.199318 0.299456 0.272198 
0.309469 0.279396 0.302433 0.299493 0.315086 0.213557 0.225328 0.213254 0.190049 
0.172546 0.217008 0.225729 0.188179 0.156003 0.156003 0.191909 0.183913 0.256284 
0.317765 0.382853 0.336585 0.365765 0.309734 0.205067 0.21496 0.189352 0.200099 
0.249338 0.278878 0.278878 0.321431 0.321431 0.327769 0.273592 0.350431 0.337476 
0.31911 0.358498 0.339966 0.329265 0.329265 0.214019 0.20055 0.262731 0.390259 
0.518415 0.358175 0.411212 0.364341 0.415682 0.404143 0.431519 0.414714 0.338494 
0.335037 0.392591 0.265425 0.255866 0.211708 0.334629 0.368801 0.44159 0.439971 
0.301781 0.251506 0.229355 0.248926 0.253026 0.219733 0.219733 0.262301 0.289541 
0.225129 0.217197 0.265765 0.257208 0.265012 0.265012 0.270339 0.30986 0.285481 
0.331394 0.42513 0.194738 0.231333 0.231333 0.337329 0.33547 0.324652 0.33243 
0.203273 0.200487 0.19518 0.19518 0.210087 0.271597 0.241129 0.316721 0.288238 
0.280993 0.226105 0.242091 0.242091 0.259528 0.273645 0.319149 0.381128 0.395811 
0.395811 0.328017 0.328017 0.300074 0.246754 0.289165 0.293435 0.186481 0.196077 
0.156204 0.3733 0.396653 0.426745 0.305482 0.303011 0.333494 0.354895 0.259583 
0.391144 0.325381 0.31083 0.346309 0.227457 0.215765 0.236467 0.2458 0.249216 
0.231909 0.231909 0.216891 0.210885 0.232098 0.282108 0.356361 0.354112 0.259206 
0.259206 0.229484 0.200271 0.21771 0.562481 0.470738 0.470738 0.460338 0.418639 
0.418639 0.7427 0.388599 0.36451 0.364499 0.379177 0.391122 0.334469 0.350889 
0.350889 0.309354 0.271443 0.231315 0.215927 0.157044 0.168561 0.213959 0.303371 
0.36614 0.375901 0.280134 0.250568 0.306255 0.286161 0.295843 0.3198 0.502548 
0.19871 0.253424 0.317794 0.393937 0.412436 0.400037 0.361992 0.382439 0.168569 
0.203674 0.264774 0.230659 0.235704 0.200235 0.241426 0.25652 0.25652 0.270456 
0.202858 0.209875 0.259641 0.316901 0.344701 0.407972 0.452806 0.186243 0.22274 
0.179414 0.140579 0.144655 0.0995907 0.101172 0.18514 0.14951 0.195155 0.207274 
0.207274 0.195981 0.193001 0.222413 0.224716 0.262642 0.286299 0.401052 0.456241 
0.496862 0.497916 0.482255 0.460212 0.42251 0.400901 0.401722 0.344283 0.371253 
0.212014 0.201703 0.216664 0.205418 0.239491 0.177532 0.177532 0.195025 0.255119 
0.255119 0.257264 0.309125 0.251315 0.205452 0.299477 0.269736 0.315308 0.418941 
0.410167 0.421887 0.267547 0.275351 0.293204 0.322361 0.361994 0.361994 0.326548 
0.301629 0.298926 0.367966 0.353127 0.402634 0.425703 0.217521 0.326039 0.389174 
0.344162 0.314536 0.338715 0.270859 0.276466 0.344101 0.305369 0.305369 0.260042 
0.3108 0.350194 0.352959 0.40283 0.294407 0.216484 0.247333 0.325225 0.351115 
0.342517 0.170251 0.178421 0.207802 0.222819 0.259522 0.301231 0.358459 0.36796 
0.459899 0.340699 0.367398 0.362335 0.394274 0.332935 0.32825 0.264069 0.286587 
0.336756 0.369405 0.417756 0.436248 0.4395 0.444395 
WidthEq 1 654 double
2.43391 1.58164 2.5471 1.14387 2.32997 2.76042 2.23668 2.42635 2.21274 
1.91051 2.36605 1.97244 2.31225 2.83575 1.90641 2.39413 2.78831 2.71134 
3.0075 1.2689 2.7978 1.66453 1.8633 1.64151 3.08322 2.23475 1 
2.59777 2.39422 1.22401 2.13394 2.38233 3.21611 3.26827 2.48468 2.614 
3.94541 1.69049 2.77641 3.06285 4.35583 2.23244 6.22028 5.01771 4.97195 
4.84749 4.04165 4.25685 4.2371 4.94141 4.66721 4.76874 4.37726 4.7304 
4.97132 4.49844 4.49844 4.18128 3.86493 3.55571 3.27149 3.43887 3.17955 
3.28517 3.44537 3.42008 3.29105 3.46921 3.27227 3.31152 3.95168 4.0166 
4.31296 4.65459 4.19814 4.68734 4.57406 4.476 3.92374 3.42422 3.0849 
2.99517 3.01897 3.79129 4.55258 4.82071 6.02907 6.37542 6.99646 7.53084 
7.40402 6.98952 6.62501 5.73459 5.64202 5.67014 5.56139 5.32885 5.16056 
6.09987 6.00802 6.33718 6.31353 6.51558 5.58354 4.77361 4.63191 4.00471 
4.66909 4.92884 4.19236 3.45731 3.45731 3.19347 3.24577 3.08929 3.7699 
3.93371 4.40645 4.49825 5.23127 5.27596 5.10773 4.43737 4.29519 4.32206 
4.32206 4.19409 3.95977 3.77294 3.6165 3.58948 3.46107 3.53645 3.91796 
4.34061 4.69471 4.68007 4.16023 4.43164 5.38775 5.86834 5.53601 5.26079 
4.62362 4.45211 4.91767 4.69173 4.69298 4.93886 4.964 4.26855 4.62882 
4.63205 4.5757 4.24779 4.57286 4.33324 4.10537 3.77014 3.5929 3.42288 
3.47735 3.47735 3.94768 4.05128 4.05128 3.84321 3.83059 3.67719 3.88829 
3.72082 3.86686 3.86469 3.86469 3.17656 2.70628 2.70628 2.22868 2.22868 
2.38864 3.41661 3.25502 3.60359 3.98843 3.98843 3.85747 3.665 3.665 
3.42755 3.44744 3.3303 3.20334 3.20334 3.10282 3.06574 3.06574 3.42957 
4.38699 4.57705 6.61172 3.92918 3.84701 3.45568 3.86657 4.2174 4.69442 
4.35448 3.97003 3.67849 3.8671 3.95543 3.87456 3.75044 3.42798 3.31422 
3.12859 2.71587 2.59873 2.59873 2.44036 2.54122 2.69 2.79861 3.16404 
3.36604 3.36604 4.20271 4.45061 4.79995 6.5267 6.04381 5.72804 6.91284 
6.51953 6.62058 6.2958 5.42802 5.6725 5.3473 4.88251 4.31619 3.64949 
4.15903 3.99372 4.1793 3.56342 3.64448 3.64448 4.10099 3.80492 4.48173 
4.8695 4.61466 4.86907 4.44825 3.24915 4.54381 5.17029 4.74235 4.41271 
3.77 3.85087 3.2358 3.31715 2.99903 2.652 2.55924 2.49532 2.51502 
2.84331 2.9932 4.34268 3.79052 3.7228 3.7228 3.13365 3.09232 3.09232 
3.21577 3.21577 3.57801 3.64424 3.97687 4.04261 3.91603 3.65556 3.36619 
2.34924 2.65995 2.71606 3.41975 4.85765 5.13455 4.96285 5.05195 4.57546 
4.12603 3.6703 3.91146 4.7358 5.27577 5.71316 5.71316 5.81131 5.69509 
5.69509 5.97353 5.97353 5.69061 4.89479 5.15204 5.05296 5.65772 4.89628 
5.65772 5.64895 5.72664 5.44955 4.72934 3.9892 3.96593 3.15624 2.9747 
2.52345 2.12214 2.06738 2.01276 2.01016 1.96021 1.83835 1.83835 1.73047 
1.97543 2.17112 2.50298 2.23244 3.53033 4.10792 4.10792 3.73195 3.72819 
3.24674 3.07941 2.46103 2.55495 2.3934 2.57922 2.44268 2.83671 3.02557 
3.0745 2.96916 2.9787 3.30685 3.29914 3.29914 3.07074 2.74395 2.43738 
2.35357 2.10798 2.02364 2.05909 2.24082 2.79438 2.70797 3.30507 3.28344 
3.37418 3.43713 3.43713 3.10576 3.10576 2.84789 2.45867 2.52542 2.56535 
2.38984 2.34066 2.29679 2.31013 2.31013 2.54257 2.79413 3.83632 3.56265 
2.87664 3.72227 3.46757 3.65339 3.17883 3.14371 2.91209 2.87847 3.00307 
2.76591 2.58428 2.5128 2.42312 2.58178 2.0812 1.95554 2.14218 2.37501 
2.3948 2.66019 3.41353 3.71851 4.14515 4.38535 4.38535 3.84571 2.90352 
3.21331 3.15484 3.1245 3.16158 3.21384 3.21384 3.29534 3.47788 3.80131 
3.75921 3.33743 2.96127 2.99262 2.99262 2.72492 2.64492 2.59314 2.42832 
2.68047 2.33797 2.27887 2.27887 1.96373 1.74583 1.82911 1.77699 1.92442 
2.202 2.57585 2.5957 2.5957 2.48217 2.43829 2.3187 2.07581 2.02644 
2.02644 2.24612 2.24612 2.31605 2.34163 2.33975 2.31865 2.71592 2.81003 
3.40106 3.6479 3.49281 3.22728 3.1022 3.06521 2.72728 2.38233 2.53366 
2.13967 2.12599 2.33903 2.35661 3.03525 3.17146 2.86537 2.79784 2.91556 
2.14011 2.14011 1.83267 1.76885 1.80763 1.58655 1.46821 1.41248 1.75286 
1.75286 2.22425 2.50047 2.63697 1.31326 1.70316 1.70316 1.81692 1.88536 
1.88536 1.47808 2.2976 2.22647 2.13832 2.10548 2.07706 2.24236 2.22054 
2.22054 2.4067 2.42023 2.50847 2.50245 2.90881 2.91127 2.98578 2.45843 
2.09199 2.1259 2.45024 2.65349 2.59213 2.5038 2.17666 1.9134 1.8633 
2.80208 2.47764 2.24433 1.90232 1.6927 1.62999 1.65201 1.58775 2.7149 
2.31157 1.63765 1.50775 1.35112 1.4106 1.50944 1.80002 1.80002 1.86403 
2.26288 2.34177 2.25344 2.12672 2.01131 1.7493 1.63062 2.92196 2.59493 
2.46897 2.60788 2.62209 2.82987 2.84293 2.65836 2.72897 2.52215 2.59444 
2.59444 2.91667 3.05056 3.12748 3.40303 3.25372 3.20618 2.8173 2.55283 
2.27964 2.25435 2.15494 1.96556 2.06613 2.23904 2.10143 2.38305 2.14338 
2.88064 2.7938 2.28841 2.26379 2.59883 2.53091 2.53091 2.63856 2.79428 
2.79428 3.21269 3.03351 2.50072 2.58958 1.92279 1.87862 2.06752 1.9329 
1.80474 1.86904 2.68504 2.50693 2.30878 2.05683 1.82554 1.82554 1.89856 
2.13953 2.09117 2.18056 2.2728 2.0301 1.89765 2.72097 1.95371 2.02706 
2.07325 2.36614 2.30936 2.04479 1.91325 1.80363 1.85112 1.85112 1.97635 
1.86186 1.92568 1.80449 1.72656 1.86301 2.198 2.26991 2.10572 2.13115 
2.12773 2.53588 2.44446 2.70619 2.85347 2.76909 2.64665 2.09262 1.75797 
1.53145 2.48208 2.25989 2.16067 2.18201 2.02533 1.99263 2.40328 2.3831 
2.2649 2.38681 2.28999 2.19516 2.23846 2.26577 
rRFP 1 654 double
2767.72 2590.77 2791.22 2499.88 2746.14 2835.51 2726.77 2766.15 2721.8 
2659.05 2753.63 2671.91 2742.46 2851.15 2658.2 2759.46 2841.3 2825.32 
2886.81 2525.84 2843.27 2607.98 2649.25 2603.2 2902.53 2726.37 2470.01 
2801.74 2759.48 2516.52 2705.44 2757.01 2930.12 2940.95 2778.26 2805.11 
3081.54 2613.37 2838.83 2898.3 3166.75 2725.89 3553.85 3304.17 3294.67 
3268.83 3101.52 3146.2 3142.1 3288.33 3231.4 3252.48 3171.2 3244.52 
3294.54 3196.36 3196.36 3130.51 3064.83 3000.63 2941.62 2976.37 2922.53 
2944.46 2977.72 2972.47 2945.68 2982.67 2941.78 2949.93 3082.84 3096.32 
3157.85 3228.78 3134.01 3235.58 3212.06 3191.7 3077.04 2973.33 2902.88 
2884.25 2889.19 3049.54 3207.6 3263.27 3514.15 3586.06 3715 3825.95 
3799.62 3713.56 3637.88 3453.01 3433.79 3439.63 3417.05 3368.77 3333.83 
3528.85 3509.78 3578.12 3573.21 3615.16 3421.65 3253.49 3224.07 3093.85 
3231.79 3285.72 3132.81 2980.2 2980.2 2925.42 2936.28 2903.79 3045.1 
3079.11 3177.26 3196.32 3348.51 3357.79 3322.86 3183.68 3154.16 3159.74 
3159.74 3133.17 3084.52 3045.73 3013.25 3007.64 2980.98 2996.63 3075.84 
3163.59 3237.11 3234.07 3126.14 3182.49 3381 3480.78 3411.78 3354.64 
3222.35 3186.74 3283.4 3236.49 3236.75 3287.8 3293.02 3148.63 3223.43 
3224.1 3212.4 3144.32 3211.81 3162.06 3114.75 3045.15 3008.35 2973.05 
2984.36 2984.36 3082.01 3103.52 3103.52 3060.32 3057.7 3025.85 3069.68 
3034.91 3065.23 3064.78 3064.78 2921.91 2824.27 2824.27 2725.11 2725.11 
2758.32 2971.75 2938.2 3010.57 3090.47 3090.47 3063.28 3023.32 3023.32 
2974.02 2978.15 2953.83 2927.47 2927.47 2906.6 2898.9 2898.9 2974.44 
3173.22 3212.68 3635.12 3078.17 3061.11 2979.86 3065.17 3138.01 3237.05 
3166.47 3086.65 3026.12 3065.28 3083.62 3066.83 3041.06 2974.11 2950.49 
2911.95 2826.26 2801.94 2801.94 2769.06 2790 2820.89 2843.44 2919.31 
2961.25 2961.25 3134.96 3186.43 3258.96 3617.47 3517.21 3451.65 3697.64 
3615.98 3636.96 3569.53 3389.36 3440.12 3372.6 3276.1 3158.52 3020.1 
3125.89 3091.57 3130.1 3002.23 3019.06 3019.06 3113.84 3052.37 3192.89 
3273.4 3220.49 3273.31 3185.94 2936.98 3205.78 3335.85 3247 3178.56 
3045.12 3061.91 2934.21 2951.1 2885.05 2813 2793.74 2780.47 2784.56 
2852.72 2883.84 3164.02 3049.38 3035.32 3035.32 2913 2904.42 2904.42 
2930.05 2930.05 3005.26 3019.01 3088.07 3101.72 3075.44 3021.36 2961.28 
2750.14 2814.65 2826.3 2972.4 3270.94 3328.43 3292.78 3311.28 3212.35 
3119.04 3024.42 3074.49 3245.64 3357.75 3448.56 3448.56 3468.94 3444.81 
3444.81 3502.62 3502.62 3443.88 3278.65 3332.06 3311.49 3437.05 3278.96 
3437.05 3435.23 3451.36 3393.83 3244.3 3090.63 3085.8 2917.69 2880 
2786.31 2702.99 2691.62 2680.28 2679.74 2669.37 2644.07 2644.07 2621.67 
2672.53 2713.16 2782.06 2725.89 2995.36 3115.28 3115.28 3037.22 3036.44 
2936.48 2901.74 2773.35 2792.85 2759.31 2797.89 2769.54 2851.35 2890.56 
2900.72 2878.85 2880.83 2948.96 2947.36 2947.36 2899.94 2832.09 2768.44 
2751.04 2700.05 2682.54 2689.9 2727.63 2842.56 2824.62 2948.59 2944.1 
2962.94 2976.01 2976.01 2907.21 2907.21 2853.67 2772.86 2786.72 2795.01 
2758.57 2748.36 2739.25 2742.02 2742.02 2790.28 2842.51 3058.89 3002.07 
2859.64 3035.21 2982.33 3020.91 2922.38 2915.09 2867 2860.02 2885.89 
2836.65 2798.94 2784.1 2765.48 2798.42 2694.49 2668.4 2707.15 2755.49 
2759.6 2814.7 2971.11 3034.43 3123.01 3172.88 3172.88 3060.84 2865.22 
2929.54 2917.4 2911.1 2918.8 2929.65 2929.65 2946.57 2984.47 3051.62 
3042.88 2955.31 2877.21 2883.72 2883.72 2828.14 2811.53 2800.78 2766.56 
2818.91 2747.8 2735.53 2735.53 2670.1 2624.86 2642.15 2631.33 2661.94 