# vtk DataFile Version 3.0
vtk output
ASCII
DATASET POLYDATA
POINTS 565 float
0.998433 0.300258 2.27377 1.24832 0.0890206 2.0351 0.919114 -0.927252 1.85478 
1.69885 0.0627985 1.83009 1.3468 0.243032 1.85965 1.09807 0.488845 1.90134 
1.72518 1.54938 1.06334 0.529022 -1.6688 0.707016 0.346987 -1.52483 0.731216 
1.35023 -1.54627 0.530296 -0.390241 0.664971 0.908187 3.94008 -0.416574 0.540773 
2.78146 0.0844763 0.469606 2.47456 1.1635 0.741804 1.61284 1.77955 0.844867 
0.488689 -1.71322 0.29286 -0.316977 0.0533049 0.598193 4.23321 -0.0236946 0.408399 
3.92922 -0.27429 0.362623 3.80787 -0.17831 0.378755 2.9034 0.242413 0.447281 
1.81207 1.84205 0.721639 2.70962 -0.207152 0.164168 0.770366 -1.6686 -0.103772 
-0.293818 -1.3716 -0.125595 -0.407745 -1.52247 -0.0850563 2.74742 -0.00515091 -0.00321412 
2.51107 1.48208 0.121075 2.54852 0.334956 -0.147748 2.47641 0.981199 -0.0347381 
2.30098 1.56186 0.066152 -0.687598 0.330932 -0.18066 -0.676411 0.479551 -0.141349 
-0.622923 -0.495677 -0.312214 -0.755707 0.198556 -0.191138 2.71047 0.761586 -0.34266 
2.57371 0.154119 -0.382402 1.17929 2.23898 -0.0246577 0.148441 -1.41396 -0.671919 
-0.486615 0.806849 -0.285843 1.28979 2.28528 -0.218941 1.43705 -1.51378 -0.884918 
2.43663 -0.465703 -1.10119 1.97731 -0.0973563 -1.45288 1.56132 -1.05007 -1.20891 
2.47783 0.370593 -1.36027 2.27096 0.505009 -1.29729 2.09292 0.676344 -1.10581 
1.36099 2.13554 -1.2445 -0.458534 0.239195 -1.19756 2.21514 0.133039 -1.45428 
-0.474809 0.925878 -1.28019 2.62933 0.421294 -1.55354 2.11471 0.390528 -1.86657 
0.436506 -0.70591 -1.96737 2.80285 1.43528 -1.78066 2.22611 1.64591 -1.74709 
2.21549 0.614112 -2.06363 1.16758 0.224423 -2.00283 0.510953 -0.336485 -2.10515 
0.302482 -0.286184 -2.09754 1.70342 0.425343 -2.16747 1.75636 0.446775 -2.16339 
1.80675 0.490923 -2.15535 1.85715 0.535072 -2.1473 1.91008 0.556504 -2.14323 
1.96302 0.577936 -2.13915 2.01349 0.621528 -2.1287 2.06549 0.661343 -2.11138 
2.12972 0.659827 -2.0887 2.21986 0.526245 -2.02513 2.18247 0.45205 -1.95941 
0.239799 -0.216474 -2.06312 0.202543 -0.160644 -2.03097 0.16865 -0.10971 -2.01471 
0.162538 -0.054522 -2.01258 0.181789 0.00714504 -2.03173 0.18962 0.0675868 -2.05115 
0.197559 0.12804 -2.07058 0.21861 0.186072 -2.06779 0.22445 0.241197 -2.05808 
0.220218 0.293964 -2.04132 0.212433 0.348904 -2.03924 0.194575 0.401486 -2.03012 
0.161606 0.451172 -2.01407 0.143511 0.499902 -1.98306 0.13358 0.550782 -1.95915 
0.115461 0.602061 -1.94273 0.0805167 0.652811 -1.93403 0.0487303 0.702624 -1.91795 
-1.00907e-005 0.748067 -1.8877 -0.0571523 0.787504 -1.82847 -0.106291 0.823863 -1.74717 
-0.140356 0.857483 -1.65122 -0.188356 0.880984 -1.56464 -0.244577 0.889761 -1.48823 
-0.304006 0.912558 -1.41689 -0.363291 0.934734 -1.35318 -0.419733 0.934759 -1.30839 
0.257675 -0.374957 -2.01562 0.245389 -0.4481 -1.95332 0.248577 -0.511862 -1.91185 
0.256221 -0.573237 -1.87745 0.275922 -0.630617 -1.85732 0.322502 -0.678098 -1.86538 
0.379853 -0.706331 -1.90761 0.388676 -0.328455 -2.10446 0.454549 -0.339701 -2.10604 
1.22052 0.245856 -1.99875 1.27093 0.289897 -1.99073 1.3216 0.33323 -1.99034 
1.37641 0.342828 -2.0109 1.4356 0.318188 -2.06 1.49623 0.281256 -2.11877 
1.55509 0.239559 -2.16335 1.60189 0.190081 -2.17176 1.62156 0.131312 -2.14435 
1.62941 0.068724 -2.10265 1.63728 0.00752363 -2.06822 1.65681 -0.0466861 -2.05505 
1.70202 -0.0851544 -2.0465 1.75621 -0.100101 -2.01872 1.81161 -0.119609 -1.94097 
1.86688 -0.149018 -1.80668 1.91843 -0.138166 -1.62209 2.2349 0.585825 -1.6779 
2.16543 1.6939 -1.73902 2.10482 1.74062 -1.72365 2.04593 1.78497 -1.69365 
1.99684 1.82655 -1.64152 1.96277 1.86846 -1.58172 1.91365 1.90876 -1.52229 
1.85463 1.94927 -1.4704 1.79372 1.98703 -1.40397 1.73228 2.02335 -1.32968 
1.66422 2.05995 -1.26118 1.55574 2.09938 -1.23465 2.74665 1.41758 -1.58104 
2.70762 1.35317 -1.39704 2.69635 1.27089 -1.23104 2.68765 1.18887 -1.08755 
2.66776 1.108 -0.95897 2.67293 1.0302 -0.832209 2.70244 0.951821 -0.69037 
2.71507 0.863485 -0.5253 1.1589 2.207 -1.23314 1.0476 2.25269 -1.16329 
0.978735 2.27788 -1.0187 0.91693 2.29202 -0.829136 0.858657 2.29187 -0.626444 
0.81529 2.26469 -0.428409 0.799308 2.21863 -0.233528 0.785403 2.15395 -0.0419017 
0.746179 2.08963 0.14964 0.697072 2.00734 0.337966 0.647193 1.91623 0.517218 
0.597598 1.82589 0.681571 0.550106 1.74078 0.816769 0.514492 1.66077 0.930363 
0.504194 1.58731 1.0227 0.497644 1.51424 1.11513 0.488045 1.44213 1.20019 
0.510572 1.37346 1.28603 0.539816 1.30806 1.35746 0.58608 1.24576 1.422 
0.632452 1.18348 1.48655 0.663713 1.1183 1.55803 0.700028 1.05111 1.64421 
0.729436 0.98445 1.72293 0.76588 0.921101 1.78723 0.797398 0.863603 1.81493 
0.844072 0.810283 1.82841 0.890845 0.756972 1.84189 0.924192 0.699672 1.86963 
0.97088 0.643801 1.8977 1.01765 0.590492 1.91118 1.05117 0.538313 1.90974 
1.1742 2.09984 -1.38723 1.07297 2.09527 -1.50665 1.01184 2.10113 -1.59102 
0.957104 2.10418 -1.64403 0.902575 2.10205 -1.66729 0.848159 2.09557 -1.67627 
0.794803 2.07793 -1.67968 0.74326 2.04238 -1.6787 0.691109 2.01061 -1.66954 
0.639437 1.97122 -1.64668 0.585909 1.94846 -1.62091 0.531236 1.9343 -1.58611 
0.476406 1.92321 -1.5583 0.421522 1.91094 -1.52317 0.366637 1.89867 -1.48804 
0.311623 1.88257 -1.43103 0.256524 1.86389 -1.35941 0.201339 1.84267 -1.27322 
0.146197 1.82271 -1.19431 0.0910547 1.80276 -1.11541 0.0358812 1.78142 -1.02923 
-0.0192218 1.75446 -0.92148 -0.0732645 1.71633 -0.808157 -0.125441 1.66147 -0.697769 
-0.177927 1.61105 -0.594108 -0.228589 1.54262 -0.486093 -0.278039 1.46432 -0.379795 
-0.325395 1.38698 -0.288351 -0.362637 1.31573 -0.225873 -0.384681 1.24994 -0.184908 
-0.421794 1.18253 -0.144315 -0.468685 1.11534 -0.111254 -0.515338 1.05201 -0.100084 
-0.549885 0.997639 -0.132392 -0.555576 0.950188 -0.185885 -0.539489 0.90507 -0.23883 
-0.506444 0.857944 -0.269468 2.18161 0.270118 -1.66356 2.17132 0.396263 -1.64336 
2.20896 0.430659 -1.45435 2.56226 0.397511 -1.46034 2.05546 -0.0582847 -1.36095 
2.12921 0.0149008 -1.374 2.24153 0.0487987 -1.50464 2.29006 -0.0107185 -1.53549 
2.34874 -0.063497 -1.52936 2.40687 -0.121119 -1.48461 2.45128 -0.18489 -1.41281 
2.45885 -0.252614 -1.34192 2.4395 -0.323223 -1.2717 2.43325 -0.393704 -1.19386 
2.30433 0.190816 -1.48686 2.37006 0.22841 -1.48552 2.42376 0.28421 -1.4378 
2.38405 0.449181 -1.31995 -0.493362 0.179685 -1.20069 -0.513249 0.11795 -1.18156 
-0.538643 0.0479691 -1.11879 -0.559089 -0.0304144 -1.00481 -0.594861 -0.118097 -0.847433 
-0.630763 -0.209622 -0.668172 -0.651344 -0.298228 -0.495821 -0.673058 -0.379299 -0.367285 
-0.665617 -0.444482 -0.311003 1.48164 2.20844 -1.03544 1.50701 2.25209 -0.867384 
1.46646 2.27978 -0.729698 1.40866 2.29223 -0.585538 1.35007 2.28416 -0.414321 
2.10118 0.623753 -1.12101 2.12284 0.57566 -1.15339 2.18096 0.536583 -1.21405 
2.48882 0.243561 -1.08167 2.51567 0.175071 -0.822795 2.53839 0.147632 -0.594333 
1.61632 -1.02556 -1.30206 1.67007 -0.996389 -1.36431 1.72173 -0.9569 -1.38715 
1.77362 -0.924513 -1.38869 1.82382 -0.878572 -1.38033 1.87421 -0.834316 -1.37226 
1.9271 -0.814165 -1.36089 1.9799 -0.796574 -1.33493 2.02999 -0.761282 -1.2758 
2.0798 -0.726867 -1.20177 2.13122 -0.708566 -1.12306 2.18244 -0.681786 -1.07292 
2.23545 -0.665977 -1.04728 2.28847 -0.641984 -1.0578 2.33877 -0.591996 -1.07129 
2.38783 -0.529154 -1.09005 2.49263 -0.514378 -0.921378 2.54154 -0.50761 -0.769495 
2.57837 -0.465975 -0.686756 2.59999 -0.410641 -0.669403 2.63506 -0.347388 -0.688168 
2.67011 -0.292318 -0.670782 2.69253 -0.259988 -0.589761 2.7293 -0.253897 -0.438068 
2.76036 -0.23978 -0.247383 2.7534 -0.222393 -0.041311 1.38212 -1.51893 -0.878621 
1.32605 -1.51558 -0.863326 1.26809 -1.49698 -0.837843 1.21097 -1.48257 -0.828126 
1.15421 -1.46971 -0.826203 1.09968 -1.47684 -0.827775 1.04184 -1.4626 -0.788009 
0.983983 -1.45654 -0.712083 0.930094 -1.49605 -0.599 0.875867 -1.53919 -0.456476 
0.821881 -1.59116 -0.285413 1.33127 2.23942 -0.0236865 1.36216 2.16751 0.166935 
1.40772 2.08675 0.348564 1.45364 2.00704 0.512838 1.48721 1.93038 0.647488 
1.54045 1.8566 0.755184 1.23452 2.26149 -0.118155 0.16975 -1.48392 -0.578788 
0.215656 -1.55444 -0.455515 0.271837 -1.61716 -0.300738 0.326935 -1.65443 -0.133978 
0.380926 -1.67745 0.0202386 0.434792 -1.69603 0.160189 2.59231 0.199126 -0.306702 
2.57272 0.241314 -0.239246 2.55662 0.286431 -0.186301 2.63193 0.0915267 -0.227592 
2.68886 0.0471959 -0.0996576 2.63584 0.803947 -0.235382 2.59393 0.844482 -0.145786 
2.55522 0.886145 -0.0835501 2.52326 0.933002 -0.0504455 2.77038 0.66946 -0.250673 
2.79512 0.58932 -0.151784 2.8034 0.512197 -0.0349172 2.81184 0.431578 0.103907 
2.83824 0.34242 0.268914 -0.734341 0.258962 -0.189811 -0.613879 -0.51603 -0.511271 
-0.596843 -0.539352 -0.688242 -0.573127 -0.569614 -0.821272 -0.56978 -0.610994 -0.903719 
-0.544856 -0.658989 -0.934567 -0.518855 -0.713251 -0.928892 -0.494317 -0.772773 -0.894075 
-0.491743 -0.837203 -0.845202 -0.469034 -0.90075 -0.788532 -0.451497 -0.966126 -0.724701 
-0.432336 -1.03388 -0.64623 -0.399836 -1.10495 -0.540688 -0.379928 -1.18248 -0.413793 
-0.353525 -1.2701 -0.271077 -0.654802 -0.588046 -0.125554 -0.651838 -0.675402 0.0546674 
-0.621871 -0.75731 0.220968 -0.602956 -0.835191 0.357826 -0.582084 -0.907229 0.473151 
-0.537097 -0.962847 0.568951 -0.482174 -0.999296 0.66064 -0.424651 -1.03665 0.729635 
-0.367719 -1.06439 0.785269 -0.310404 -1.09389 0.833072 -0.256375 -1.09894 0.907707 
-0.206579 -1.07271 1.0179 -0.158358 -1.0357 1.14502 -0.110161 -0.998465 1.27216 
-0.0607868 -0.968457 1.38301 -0.00950366 -0.953889 1.48364 0.0415446 -0.932222 1.56295 
0.0943455 -0.922934 1.62506 0.147233 -0.911085 1.67257 0.19841 -0.885574 1.73 
0.250005 -0.862153 1.77954 0.300032 -0.821334 1.81708 0.350473 -0.775905 1.81783 
0.403757 -0.752629 1.79967 0.458376 -0.739645 1.77219 0.513089 -0.732501 1.76624 
0.567896 -0.731197 1.78184 0.623833 -0.746685 1.82457 0.682674 -0.789862 1.86998 
0.742662 -0.841649 1.90637 0.80194 -0.880421 1.91495 0.859735 -0.899237 1.89696 
-0.67289 0.413292 -0.16236 2.35739 1.56224 0.0790891 2.42364 1.54263 0.0985966 
2.50805 1.00591 0.165324 2.51476 1.031 0.347761 2.50911 1.06115 0.500928 
2.49692 1.10308 0.62855 2.42284 1.00918 -0.135429 2.37999 1.06066 -0.216895 
2.37271 1.12512 -0.280838 2.39386 1.19198 -0.329144 2.41177 1.25478 -0.355612 
2.43652 1.31193 -0.345435 2.45412 1.36028 -0.289217 2.47768 1.40224 -0.188955 
2.49154 1.43983 -0.0469037 2.52718 1.37234 0.357612 2.51914 1.26954 0.565142 
2.77724 0.0297019 0.230579 2.71412 -0.0798096 0.0812592 2.70596 -0.146665 0.137156 
-0.354208 -1.45145 -0.104866 -0.212641 -1.39779 0.000651409 -0.149255 -1.41672 0.133072 
-0.0949945 -1.4238 0.262515 -0.042619 -1.42394 0.38563 0.0127295 -1.45013 0.494178 
0.0642496 -1.46108 0.612884 0.100172 -1.43879 0.737342 0.109668 -1.40454 0.85622 
0.11907 -1.36446 0.953561 0.153537 -1.31913 1.03693 0.200006 -1.27316 1.11296 
0.249697 -1.23864 1.187 0.302443 -1.23053 1.25642 0.356336 -1.23102 1.31682 
0.409389 -1.22234 1.3713 0.460844 -1.19765 1.42106 0.513911 -1.18908 1.47552 
0.568015 -1.19146 1.53559 0.622075 -1.19513 1.60295 0.675044 -1.18901 1.67203 
0.72619 -1.16489 1.73673 0.777665 -1.14137 1.78628 0.825593 -1.09748 1.81683 
0.862573 -1.0422 1.83427 0.88423 -0.985492 1.84435 0.828351 -1.72909 0.051406 
0.883805 -1.75856 0.174415 0.938268 -1.7675 0.248371 0.992766 -1.76676 0.278905 
1.04718 -1.76029 0.287885 1.10051 -1.74403 0.298577 1.15208 -1.7154 0.326465 
1.20486 -1.70355 0.373976 1.25557 -1.69129 0.42908 1.29364 -1.6541 0.480952 
1.31538 -1.60312 0.512589 0.719175 -1.72729 -0.016602 0.664275 -1.74775 0.0546873 
0.606305 -1.73736 0.116338 0.548401 -1.73089 0.192336 2.66036 -0.284797 0.255536 
2.61118 -0.359881 0.332317 2.56205 -0.433685 0.401801 2.51291 -0.507491 0.471294 
2.46374 -0.582573 0.548065 2.41465 -0.655097 0.61026 2.36568 -0.723779 0.65056 
2.3169 -0.787337 0.661677 2.26819 -0.848335 0.658207 2.21953 -0.908053 0.647438 
2.17083 -0.969051 0.643968 2.12202 -1.0325 0.655104 2.07289 -1.09801 0.688435 
2.02262 -1.15492 0.730805 1.97053 -1.19391 0.768774 1.91912 -1.23402 0.783991 
1.86704 -1.26472 0.785819 1.81576 -1.30099 0.779151 1.76388 -1.33347 0.780667 
1.71355 -1.38325 0.794193 1.66295 -1.43391 0.82261 1.60983 -1.46036 0.847739 
1.55673 -1.47862 0.836697 1.50534 -1.50223 0.779607 1.45267 -1.50769 0.695612 
1.4002 -1.51493 0.611296 1.69231 1.81201 0.78586 1.75592 1.83106 0.744447 
2.86041 0.161061 0.449673 2.83472 0.178744 0.467662 2.98188 0.232342 0.348201 
3.04886 0.205301 0.276168 3.1093 0.17532 0.241178 3.16689 0.157168 0.230808 
3.22475 0.134421 0.227155 3.28094 0.126616 0.226116 3.33713 0.118908 0.225094 
3.39477 0.0981676 0.221793 3.45075 0.0922425 0.221082 3.50586 0.0942187 0.221753 
3.56195 0.0862938 0.220692 3.61914 0.050486 0.222267 3.66762 -0.000618585 0.236142 
3.70111 -0.0590709 0.2712 3.7496 -0.118577 0.321207 3.86249 -0.178107 0.318946 
3.90788 -0.214004 0.312912 3.8685 -0.227581 0.377987 3.97738 -0.230048 0.460922 
4.026 -0.179904 0.51513 4.07606 -0.129405 0.509252 4.12816 -0.090507 0.471256 
4.17989 -0.0483495 0.43384 3.93463 -0.346072 0.455342 -0.376743 0.069796 0.706023 
-0.434758 0.0758275 0.79699 -0.490456 0.101056 0.868781 -0.523485 0.143718 0.913682 
-0.504602 0.200133 0.923696 -0.473711 0.263048 0.904838 -0.465728 0.324783 0.878114 
-0.467553 0.382913 0.865746 -0.459632 0.439537 0.868209 -0.426885 0.497547 0.878584 
-0.394138 0.555557 0.888959 -0.38637 0.610888 0.898717 0.497326 -1.69224 0.499653 
1.64137 1.66448 0.955201 2.39255 1.17281 0.80563 2.33518 1.2004 0.877826 
2.30007 1.23713 0.946742 2.25242 1.26464 0.998917 2.19775 1.26953 1.02954 
2.14128 1.27413 1.0601 2.08208 1.29887 1.10921 2.02284 1.32232 1.16563 
1.96628 1.32435 1.21078 1.91158 1.3319 1.22682 1.86215 1.37322 1.21122 
1.81384 1.44623 1.15356 2.68729 0.0432166 0.632908 2.61965 0.000756985 0.751026 
2.56699 -0.0582083 0.81558 2.51746 -0.123973 0.862023 2.46714 -0.182156 0.911682 
2.41512 -0.226786 0.971232 2.36456 -0.284458 1.0285 2.31398 -0.342021 1.08578 
2.26176 -0.384761 1.14566 2.2101 -0.432661 1.20464 2.15792 -0.474119 1.25722 
2.10746 -0.527733 1.29264 2.05689 -0.577004 1.31377 2.00357 -0.601561 1.33923 
1.94886 -0.617105 1.3813 1.89386 -0.633322 1.4383 1.8388 -0.650711 1.50261 
1.78375 -0.668101 1.56693 1.72869 -0.685489 1.63123 1.67363 -0.702879 1.69554 
1.61858 -0.720268 1.75986 1.56361 -0.735096 1.80958 1.50881 -0.744801 1.83011 
1.45424 -0.748212 1.81415 1.39991 -0.752122 1.79058 1.34654 -0.769657 1.78718 
1.29464 -0.807051 1.8104 1.24085 -0.8291 1.84382 1.18497 -0.829131 1.86604 
1.12752 -0.811767 1.87628 1.07287 -0.817729 1.87491 1.02117 -0.850206 1.8689 
0.9693 -0.881204 1.86316 1.28866 -1.53357 0.7277 1.22832 -1.52692 0.90149 
1.17033 -1.52972 1.02099 1.11323 -1.5271 1.08128 1.05886 -1.53729 1.0867 
1.00236 -1.52515 1.08097 0.946646 -1.51995 1.07403 0.891988 -1.52593 1.07266 
0.83862 -1.54346 1.06927 0.787163 -1.57645 1.05566 0.735281 -1.60064 1.02103 
0.684335 -1.62656 0.956014 0.632754 -1.64178 0.87031 0.581738 -1.66207 0.783711 
0.407494 -1.57794 0.752332 0.468172 -1.62593 0.744266 1.15875 0.440855 1.89327 
1.21932 0.392853 1.8852 1.27797 0.344646 1.87709 1.32487 0.295178 1.86868 
1.04825 0.394551 2.08755 1.40596 0.208613 1.85396 1.46362 0.186053 1.85786 
1.5227 0.149074 1.86676 1.58177 0.112092 1.87566 1.63951 0.0920949 1.86497 
1.29758 0.166666 1.94373 
LINES 63 695
10 61 62 63 64 65 66 67 68 69 57 
4 57 70 71 53 
29 60 72 73 74 75 76 77 78 79 80 81 82 83 84 85 86 87 88 89 90 91 92 93 94 95 96 97 98 51 
9 60 99 100 101 102 103 104 105 54 
4 60 106 107 59 
3 57 125 46 
13 56 126 127 128 129 130 131 132 133 134 135 136 48 
10 55 137 138 139 140 141 142 143 144 35 
34 48 145 146 147 148 149 150 151 152 153 154 155 156 157 158 159 160 161 162 163 164 165 166 167 168 169 170 171 172 173 174 175 176 5 
39 48 177 178 179 180 181 182 183 184 185 186 187 188 189 190 191 192 193 194 195 196 197 198 199 200 201 202 203 204 205 206 207 208 209 210 211 212 213 39 
3 53 214 50 
4 53 215 216 46 
3 45 217 52 
10 50 220 221 222 223 224 225 226 227 42 
5 50 228 229 230 45 
3 46 231 45 
11 49 232 233 234 235 236 237 238 239 240 33 
7 48 241 242 243 244 245 40 
5 47 246 247 248 46 
5 45 249 250 251 36 
18 44 252 253 254 255 256 257 258 259 260 261 262 263 264 265 266 267 42 
12 42 268 269 270 271 272 273 274 275 276 277 22 
13 41 278 279 280 281 282 283 284 285 286 287 288 23 
8 40 289 290 291 292 293 294 14 
3 40 295 37 
8 38 296 297 298 299 300 301 15 
5 36 302 303 304 28 
4 36 305 306 26 
6 35 307 308 309 310 29 
7 35 311 312 313 314 315 20 
16 33 317 318 319 320 321 322 323 324 325 326 327 328 329 330 24 
34 33 331 332 333 334 335 336 337 338 339 340 341 342 343 344 345 346 347 348 349 350 351 352 353 354 355 356 357 358 359 360 361 362 2 
4 30 364 365 27 
6 29 366 367 368 369 13 
11 29 370 371 372 373 374 375 376 377 378 27 
4 27 379 380 13 
3 26 381 12 
4 26 382 383 22 
3 25 384 24 
27 24 385 386 387 388 389 390 391 392 393 394 395 396 397 398 399 400 401 402 403 404 405 406 407 408 409 2 
13 23 410 411 412 413 414 415 416 417 418 419 420 9 
6 23 421 422 423 424 15 
28 22 425 426 427 428 429 430 431 432 433 434 435 436 437 438 439 440 441 442 443 444 445 446 447 448 449 450 9 
4 14 451 452 21 
3 12 453 20 
3 12 454 20 
17 20 455 456 457 458 459 460 461 462 463 464 465 466 467 468 469 19 
4 19 470 471 18 
3 19 472 18 
7 18 473 474 475 476 477 17 
3 18 478 11 
14 16 479 480 481 482 483 484 485 486 487 488 489 490 10 
3 15 491 7 
35 12 505 506 507 508 509 510 511 512 513 514 515 516 517 518 519 520 521 522 523 524 525 526 527 528 529 530 531 532 533 534 535 536 537 2 
16 9 538 539 540 541 542 543 544 545 546 547 548 549 550 551 7 
4 8 552 553 7 
6 5 554 555 556 557 4 
3 5 558 0 
7 4 559 560 561 562 563 3 
3 4 564 1 
22 58 108 109 110 111 112 113 114 115 116 117 118 119 120 121 122 123 124 43 218 219 50 
5 34 316 31 363 32 
16 14 492 6 504 503 502 501 500 499 498 497 496 495 494 493 13 

POINT_DATA 565
SCALARS DY_raw double
LOOKUP_TABLE default
175.033 133.08 137.673 155.146 107.95 126.142 167.014 127.635 140.603 
114.229 123.943 245.664 175.945 126.444 142.811 132.462 189.758 187.901 
208.693 213.117 217.457 239.303 121.814 125.555 118.115 149.673 145.134 
146.938 127.139 158.271 116.668 89.6446 100.428 99.5675 93.6213 139.526 
131.794 127.346 116.615 185.692 135.348 177.657 181.913 131.517 131.177 
163.861 126.933 133.088 146.702 119.198 126.594 76.342 162.134 111.914 
158.333 181.009 176.356 128.673 219.893 203.536 142.239 197.893 211.809 
230.79 216.631 202.463 177.992 158.868 132.591 134.181 127.871 122.139 
129.445 130.331 132.702 138.008 164.666 212.442 195.163 201.015 203.889 
203.889 204.245 204.245 210.937 218.625 198.063 192.486 180.756 168.523 
148.686 157.679 148.852 127.981 122.794 101.021 123.885 86.7925 77.9727 
136.52 130.421 133.988 138.079 135.803 149.814 177.999 145.899 160.956 
185.097 185.097 162.832 173.226 169.89 182.924 190.292 207.511 173.658 
175.045 152.87 141.727 139.095 142.439 149.2 159.059 147.39 114.647 
176.356 154.567 156.859 147.826 148.999 152.133 154.735 157.378 149.956 
144.91 138.848 168.698 179.71 182.995 142.488 155.094 136.561 122.278 
125.357 165.024 154.273 130.402 131.297 127.17 143.921 144.707 142.971 
126.905 118.051 124.113 107.559 112.96 120.347 131.285 115.918 108.218 
112.353 119.508 121.207 132.42 107.742 116.746 109.786 102.488 110.835 
118.948 117.405 140.196 146.807 138.499 135.24 186.373 151.783 136.105 
133.138 154.204 154.204 160.194 160.194 173.69 170.72 189.848 173.09 
159.542 159.542 133.811 135.283 169.435 133.849 127.917 140.366 124.48 
145.777 116.801 113.662 126.252 114.727 106.811 111.955 127.408 116.271 
104.443 88.2788 93.7776 87.1942 111.162 111.162 142.305 115.313 118.299 
124.283 167.429 119.577 121.908 134.277 150.797 156.575 164.214 181.587 
183.076 187.967 198.701 142.665 152.099 162.096 142.923 106.238 89.5457 
107.513 101.616 131.146 134.132 112.671 112.927 99.5675 139.156 159.079 
145.87 135.014 120.739 121.825 121.825 124.67 168.593 144.719 149.315 
110.983 107.572 107.572 132.863 132.863 142.752 169.624 169.624 177.524 
210.252 209.032 209.285 192.255 192.255 172.105 179.198 207.02 197.057 
191.542 169.305 162.72 140.742 156.108 172.834 195.776 159.063 156.466 
130.904 117.16 111.051 87.5241 87.5241 89.0605 88.9468 129.881 159.499 
152.334 148.93 165.993 154.744 122.138 110.433 108.496 128.717 120.989 
126.105 111.518 108.804 108.726 122.796 124.035 123.584 119.856 139.788 
137.333 160.217 177.934 172.947 158.271 141.454 155.307 181.349 177.762 
177.297 82.6945 125.341 121.817 114.021 97.8938 92.3572 93.2878 100.23 
97.8816 106.06 121.716 123.179 107.448 115.959 119.84 106.954 115.51 
112.948 133.337 126.754 124.579 120.53 118.865 115.772 124.961 136.102 
144.219 137.265 137.51 125.635 120.488 117.837 102.289 101.492 98.3366 
95.8941 118.466 107.759 107.331 113.791 113.791 118.743 112.311 123.443 
103.734 121.549 109.8 86.9985 121.043 122.591 142.485 118.784 113.386 
119.81 152.731 122.518 120.856 116.073 122.045 122.045 125.487 137.752 
139.727 154.07 123.304 158.082 140.965 140.173 113.483 125.49 138.66 
129.302 118.377 121.964 132.345 143.848 164.507 183.821 175.212 175.388 
135.672 139.091 134.041 139.419 152.863 150.3 125.24 131.192 144.292 
147.97 144.639 127.328 113.212 115.804 109.062 125.336 135.657 135.657 
147.056 144.088 146.091 135.584 140.039 135.064 129.229 107.057 118.294 
129.836 148.379 113.892 139.658 119.019 139.139 148.909 124.019 170.541 
157.881 124.632 151.718 134.692 130.425 157.301 135.445 146.978 146.978 
135.378 133.64 141.793 124.64 142.291 131.531 132.165 122.124 128.503 
117.762 153.22 185.928 197.039 197.039 214.456 250.22 233.838 226.379 
226.379 222.287 225.432 225.432 209.652 202.215 202.215 193.357 204.672 
208.103 210.883 200.832 196.985 216.817 235.67 234.92 215.18 191.397 
177.896 232.992 135.082 121.392 113.673 112.975 120.216 112.992 106.848 
110.964 115.102 115.102 131.851 131.851 153.429 173.088 126.441 130.154 
153.659 136.398 145.185 145.185 150.276 138.007 148.654 125.824 117.409 
111.106 204.152 206.621 191.033 137.506 138.054 186.675 140.531 164.619 
165.9 128.816 164.052 141.833 125.637 125.637 108.699 110.334 132.028 
118.298 119.318 131.005 109.694 121.473 131.871 128.565 128.565 130.126 
130.639 130.639 133.186 134.771 134.771 138.359 138.896 131.969 160.107 
173.358 142.476 142.476 126.544 107.364 107.364 114.757 124.571 128.303 
127.548 128.83 127.276 123.608 123.608 126.142 138.186 119.576 117.815 
198.832 100.372 105.071 110.912 127.727 131.744 114.135 
FIELD FieldData 7
DY_minmax 1 565 double
0.567589 0.326312 0.352724 0.453217 0.181783 0.286406 0.521469 0.294995 0.369573 
0.217896 0.273763 0.973798 0.572834 0.288146 0.382272 0.322757 0.652274 0.641591 
0.761174 0.786615 0.811575 0.937216 0.261514 0.28303 0.240243 0.42174 0.395632 
0.406008 0.292144 0.47119 0.231924 0.0765052 0.138525 0.133573 0.099376 0.36338 
0.318915 0.293334 0.231616 0.628891 0.339353 0.58268 0.607153 0.317319 0.315363 
0.503338 0.290955 0.326354 0.40465 0.246471 0.28901 0 0.493406 0.204578 
0.471545 0.601958 0.575199 0.300961 0.825582 0.731516 0.378984 0.699057 0.779095 
0.888255 0.806826 0.725343 0.584605 0.474623 0.323496 0.332644 0.296352 0.263387 
0.305403 0.310497 0.324134 0.354649 0.507966 0.782731 0.683361 0.717016 0.733541 
0.733541 0.73559 0.73559 0.774077 0.818294 0.700036 0.667962 0.600502 0.530151 
0.416062 0.467782 0.417015 0.296987 0.267154 0.141931 0.273426 0.0601025 0.00937839 
0.346094 0.311015 0.331534 0.355057 0.341967 0.422548 0.584644 0.400034 0.48663 
0.625468 0.625468 0.497417 0.557198 0.538008 0.61297 0.655347 0.754376 0.559678 
0.567655 0.440125 0.376038 0.360903 0.380134 0.419021 0.475722 0.408608 0.220297 
0.575199 0.449884 0.463064 0.411116 0.417862 0.435884 0.45085 0.466051 0.423364 
0.394346 0.359481 0.531154 0.594484 0.613379 0.380419 0.452916 0.346331 0.264187 
0.281896 0.510023 0.448193 0.310907 0.316055 0.292318 0.388657 0.39318 0.383194 
0.290794 0.239876 0.274737 0.179532 0.210597 0.253082 0.315987 0.22761 0.183326 
0.207108 0.248252 0.258028 0.322514 0.180585 0.232372 0.19234 0.150368 0.198373 
0.245033 0.236157 0.367236 0.405258 0.357478 0.338733 0.632805 0.433874 0.343704 
0.326643 0.447795 0.447795 0.482245 0.482245 0.559866 0.542781 0.652794 0.556411 
0.478496 0.478496 0.330511 0.338977 0.535395 0.330729 0.296615 0.368213 0.276848 
0.399334 0.232689 0.214633 0.287042 0.220759 0.17523 0.204815 0.293686 0.229636 
0.161615 0.0686502 0.100275 0.0624128 0.200253 0.200253 0.379363 0.224129 0.241304 
0.275716 0.523854 0.248653 0.262059 0.333193 0.428205 0.461436 0.505367 0.605281 
0.613846 0.641971 0.703709 0.381435 0.435689 0.493184 0.382919 0.171935 0.0759365 
0.179271 0.145354 0.315186 0.332357 0.208932 0.210407 0.133573 0.361251 0.475834 
0.399868 0.33743 0.255336 0.261581 0.261581 0.277943 0.530548 0.393247 0.419677 
0.199225 0.179607 0.179607 0.325064 0.325064 0.381937 0.536478 0.536478 0.581916 
0.770139 0.76312 0.764577 0.666637 0.666637 0.550748 0.591541 0.751549 0.694252 
0.662536 0.534643 0.496772 0.370373 0.458748 0.554944 0.686887 0.475744 0.460808 
0.313796 0.23475 0.199617 0.06431 0.06431 0.0731459 0.072492 0.307913 0.478247 
0.437041 0.417468 0.5156 0.4509 0.26338 0.196062 0.184921 0.301215 0.256771 
0.286196 0.202304 0.186693 0.186245 0.267162 0.274288 0.271698 0.250256 0.364886 
0.350769 0.482381 0.58427 0.55559 0.47119 0.374472 0.45414 0.603912 0.583285 
0.580607 0.0365344 0.2818 0.261533 0.2167 0.123948 0.092106 0.0974578 0.137382 
0.123877 0.170911 0.260954 0.269366 0.178895 0.227844 0.250166 0.176055 0.225261 
0.210525 0.327789 0.289929 0.277421 0.254131 0.244556 0.226768 0.279618 0.343692 
0.390371 0.350376 0.351786 0.283492 0.253888 0.238642 0.149224 0.144643 0.126494 
0.112447 0.242261 0.180684 0.17822 0.215374 0.215374 0.243855 0.206863 0.270888 
0.157538 0.259992 0.192421 0.0612871 0.257085 0.265984 0.380397 0.244089 0.213049 
0.24999 0.439328 0.265565 0.256007 0.2285 0.262846 0.262846 0.28264 0.353177 
0.364536 0.447024 0.270089 0.470101 0.371656 0.3671 0.213606 0.282657 0.358404 
0.304581 0.24175 0.262382 0.322083 0.388238 0.507049 0.618129 0.56862 0.569628 
0.341215 0.360881 0.331839 0.362768 0.440085 0.425345 0.28122 0.31545 0.390794 
0.411942 0.392789 0.293228 0.212046 0.226951 0.188177 0.281774 0.341128 0.341128 
0.406689 0.389616 0.401139 0.340712 0.36633 0.337718 0.304162 0.176648 0.241272 
0.307654 0.414299 0.215957 0.364139 0.245443 0.361154 0.417342 0.274195 0.541751 
0.468945 0.277723 0.433501 0.335582 0.311038 0.465611 0.339911 0.406237 0.406237 
0.339528 0.32953 0.37642 0.277771 0.379283 0.317399 0.32105 0.263302 0.299985 
0.238213 0.442138 0.630247 0.694146 0.694146 0.794319 1 0.905784 0.86289 
0.86289 0.839351 0.857443 0.857443 0.766688 0.723914 0.723914 0.672974 0.738048 
0.757778 0.773769 0.715965 0.693837 0.807892 0.916321 0.91201 0.798478 0.661698 
0.584055 0.900922 0.337821 0.259093 0.214696 0.21068 0.252324 0.210781 0.175446 
0.199117 0.222913 0.222913 0.319243 0.319243 0.443341 0.556402 0.288126 0.309483 
0.444662 0.345391 0.395926 0.395926 0.425205 0.354643 0.415876 0.284579 0.236184 
0.199931 0.735055 0.749253 0.659609 0.351763 0.354917 0.634545 0.369161 0.507694 
0.515062 0.301787 0.504437 0.376647 0.283502 0.283502 0.186091 0.195494 0.32026 
0.241294 0.247159 0.314376 0.191813 0.259553 0.319355 0.300344 0.300344 0.309323 
0.312272 0.312272 0.326922 0.336034 0.336034 0.356669 0.359758 0.319921 0.481744 
0.557953 0.380348 0.380348 0.288722 0.178415 0.178415 0.220929 0.277375 0.298839 
0.294494 0.301867 0.292931 0.271832 0.271832 0.286406 0.355673 0.248644 0.23852 
0.70446 0.138203 0.165223 0.19882 0.295523 0.318626 0.217351 
WidthEq 1 565 double
1.22633 1.72082 2.75913 2.77504 3.39868 2.26989 2.30267 2.98185 2.40236 
3.499 2.83959 1.74734 4.00806 4.8868 3.55805 3.41748 1 2.69695 
2.04342 2.03296 3.06919 1.76411 5.88997 2.86726 3.92413 1.21751 4.89389 
4.02965 5.0951 4.51369 2.3918 4.80741 3.8227 4.93342 3.9572 6.09219 
5.62488 4.5146 4.24258 1.79419 4.78861 1.69393 3.43609 4.70661 2.93465 
5.69126 6.84464 5.12465 3.15033 2.95591 6.37396 3.91748 4.40855 4.41482 
2.26035 2.45235 3.09282 4.32834 1.77477 1.16342 2.88211 2.55643 2.49747 
2.34143 2.44825 2.6055 3.08833 3.39242 3.85259 4.1908 4.33865 4.41569 
3.03116 2.75306 2.66981 2.52818 2.25437 1.95954 2.07702 1.93148 1.96518 
1.96518 1.99955 1.99955 2.00206 1.97232 2.14653 2.28218 2.52914 2.66075 
2.90833 2.89657 3.09508 3.70865 4.09049 4.69427 4.10307 4.33537 4.03062 
3.04027 2.99361 2.8715 2.74038 2.75089 2.55382 2.06236 2.69507 2.24526 
2.91127 2.91127 3.40755 3.14102 3.19718 3.02152 3.09696 2.85444 3.17163 
3.13427 3.54104 3.68242 3.8214 3.8323 3.60038 3.54615 3.96424 5.62701 
3.09282 3.46366 3.56523 3.74046 3.7435 3.44718 3.25329 3.50054 3.73969 
4.10384 4.12616 3.38224 3.19525 2.9575 3.12241 3.69549 4.24277 4.9608 
5.6527 3.08857 3.44207 4.17692 4.80032 4.83628 4.22175 3.70595 3.82748 
3.90528 4.04103 4.03221 4.63401 4.29459 3.56683 3.46694 2.61268 2.44541 
2.4834 2.39113 2.44406 2.48171 2.82489 2.86234 3.19439 3.49201 3.51693 
3.33052 2.94024 2.73344 2.50109 2.41321 2.34374 2.60155 3.3526 3.60023 
3.45865 2.9697 2.9697 2.87126 2.87126 2.58632 2.62816 2.45105 2.71691 
2.76183 2.76183 3.34927 3.46776 3.00373 3.66719 3.51438 3.31239 3.88961 
3.59252 4.3346 4.38228 3.96886 4.04035 4.01466 4.14371 3.8175 4.0016 
4.07492 4.04161 3.8605 3.67293 2.92761 2.92761 2.21952 5.83367 5.42165 
6.33375 5.10903 5.43597 6.12599 6.21975 5.64465 5.09274 4.80548 3.72388 
3.69375 3.3674 2.8822 6.04674 5.66914 5.52283 6.40973 3.39266 3.78486 
2.93971 3.16927 2.83294 3.20557 3.89159 4.38006 4.93342 4.1102 4.24417 
4.31595 4.61063 5.18968 6.0516 6.0516 6.7652 5.22323 5.39562 5.3128 
3.86725 4.04566 4.04566 3.52436 3.52436 3.28 2.82064 2.82064 2.64701 
2.62536 2.87353 3.19482 3.69611 3.69611 3.65654 3.38306 2.87121 2.70413 
2.74674 3.09701 2.85656 3.62834 3.98082 3.96795 3.50618 4.47223 2.06497 
3.01135 3.29702 3.73719 4.18545 4.18545 4.25608 4.113 3.6293 2.98001 
2.51781 4.41144 3.32319 3.04832 3.80675 4.37187 4.45232 4.99763 4.0068 
3.74432 3.78385 4.21389 4.31845 3.72504 5.52949 5.70168 5.15584 5.82533 