# vtk DataFile Version 3.0
vtk output
ASCII
DATASET POLYDATA
POINTS 912 float
2.12388 1.27664 1.13552 0.977291 1.27109 0.948072 0.123602 0.259834 1.00351 
6.85471 -0.147793 0.748411 0.0591606 -0.311489 0.830054 1.77279 -1.1339 0.648638 
0.550302 -0.670667 0.640855 0.675727 -0.90028 0.549848 0.673236 -1.16216 0.661929 
7.72127 -0.649277 0.361385 7.65156 -0.828368 0.183689 5.93458 0.349068 0.335354 
0.299934 1.52588 0.0762229 -0.904022 -0.00496507 -0.156312 -0.689564 -0.149048 0.230158 
7.17395 -1.19713 -0.108204 4.11403 0.496676 -0.0519458 1.12848 1.89657 -0.0832046 
-0.737257 0.566807 -0.0689335 7.75279 -1.07007 -0.353904 7.16055 -1.36139 -0.200676 
0.975834 1.93866 -0.483897 3.13851 -1.13501 -0.167098 -0.651889 0.746175 -0.211523 
4.33801 0.350687 -0.648391 5.11245 -0.430556 -0.75469 -0.640564 0.937852 -0.687571 
7.69184 -0.00323016 -1.00255 7.84132 -0.326784 -0.855953 7.88383 -0.478668 -0.916233 
4.07255 0.730532 -0.863038 -0.88388 0.394391 -1.03387 4.15788 0.64866 -1.26067 
6.49716 -1.28082 -1.19821 1.99622 -1.25362 -1.15032 1.15854 -1.19821 -1.1437 
7.3863 -0.0358773 -1.46491 2.87834 2.3545 -1.52473 6.48316 -1.14324 -1.33781 
3.69262 -0.581515 -1.39971 -0.596483 0.815473 -1.55008 6.60711 -1.04328 -1.61068 
3.58555 -0.459478 -1.80455 3.76618 -0.0888582 -2.15712 0.661139 -0.915192 -2.40812 
0.678163 -1.05604 -2.34626 3.10532 1.11882 -2.67217 2.51432 1.32541 -2.87536 
2.42462 1.38906 -2.87728 0.323819 0.521625 -2.81479 0.362862 0.291789 -2.80473 
0.0893788 -0.187913 -2.77987 1.93052 1.25738 -3.0661 0.735469 1.09475 -3.04564 
2.4469 -0.17172 -3.14004 0.684817 0.928566 -3.03751 1.72134 -0.0871258 -3.20272 
1.69095 0.0478747 -3.60898 1.70614 -0.0196257 -3.40585 1.76743 -0.117199 -3.20185 
1.8203 -0.137737 -3.20149 1.88778 -0.137721 -3.20223 1.95631 -0.136215 -3.20304 
2.01614 -0.146965 -3.20321 2.07902 -0.153415 -3.2036 2.13891 -0.164075 -3.20377 
2.20867 -0.160892 -3.2022 2.28467 -0.150945 -3.19359 2.36371 -0.14993 -3.17226 
1.64466 -0.10009 -3.20129 1.56798 -0.113053 -3.19986 1.4913 -0.126016 -3.19843 
1.41462 -0.13898 -3.19701 1.33793 -0.151944 -3.19558 1.26134 -0.164569 -3.18675 
1.1849 -0.176521 -3.16312 1.1087 -0.18746 -3.1173 1.03259 -0.198061 -3.06407 
0.956453 -0.20891 -3.01826 0.881196 -0.2192 -2.99472 0.812618 -0.220539 -2.9865 
0.758675 -0.201478 -2.97936 0.706467 -0.18286 -2.95739 0.649765 -0.190653 -2.91193 
0.609959 -0.22452 -2.85803 0.588394 -0.274091 -2.81105 0.590088 -0.341485 -2.78575 
0.599937 -0.415061 -2.76766 0.601721 -0.48252 -2.74236 0.581845 -0.533424 -2.69533 
0.553904 -0.57821 -2.64107 0.534028 -0.629114 -2.59404 0.536046 -0.696209 -2.56134 
0.548931 -0.768786 -2.53221 0.571558 -0.832152 -2.4925 0.614546 -0.873974 -2.45028 
2.53591 -0.137369 -3.17471 2.58949 -0.0978785 -3.19934 2.63411 -0.0606303 -3.204 
2.69005 -0.0318104 -3.18615 2.74348 2.11238e-005 -3.1437 2.811 0.0226453 -3.08614 
2.88683 0.0397632 -3.02101 2.96415 0.0558275 -2.95584 3.04148 0.0714912 -2.89807 
3.11864 0.0864793 -2.85511 3.19558 0.100703 -2.82694 3.2714 0.113355 -2.79868 
3.34055 0.117057 -2.75511 3.39523 0.100633 -2.70305 3.44984 0.0841185 -2.65098 
3.5178 0.0861585 -2.60733 3.58586 0.0887847 -2.54886 3.63954 0.0715796 -2.47204 
3.68618 0.0429144 -2.37237 3.72906 -0.00449104 -2.26686 0.705348 0.981374 -3.04014 
0.714937 1.04195 -3.04301 0.708278 0.866653 -3.03494 0.752003 0.833249 -3.0339 
0.811257 0.821469 -3.04142 0.862703 0.798258 -3.06317 0.908183 0.765981 -3.10668 
0.952528 0.731884 -3.15753 0.996955 0.698125 -3.20096 1.04274 0.666949 -3.22229 
1.0955 0.646219 -3.22933 1.16252 0.648931 -3.23019 1.22822 0.667195 -3.23174 
1.2811 0.696912 -3.23367 1.33676 0.724792 -3.23555 1.37997 0.761503 -3.2377 
1.42319 0.798608 -3.23244 1.47742 0.828681 -3.21216 1.51946 0.868596 -3.16995 
1.55343 0.91463 -3.12051 1.58593 0.961315 -3.0785 1.61958 1.006 -3.05866 
1.66121 1.04423 -3.05344 1.71505 1.07301 -3.06276 1.75653 1.11016 -3.07973 
1.79127 1.1517 -3.10425 1.83283 1.18919 -3.11383 1.88699 1.21893 -3.10096 
0.610044 0.920301 -2.96957 0.540989 0.920081 -2.90208 0.480709 0.932207 -2.83523 
0.411655 0.931988 -2.76772 0.336908 0.923569 -2.69979 0.262591 0.912616 -2.63173 
0.196357 0.895792 -2.5635 0.142404 0.86986 -2.5024 0.0760086 0.852361 -2.44897 
0.00153098 0.840733 -2.39572 -0.0731353 0.832652 -2.32039 -0.141786 0.83412 -2.21588 
-0.20142 0.848945 -2.08985 -0.269748 0.851763 -1.95574 -0.343961 0.846219 -1.82615 
-0.420294 0.838351 -1.71125 -0.502446 0.828348 -1.62091 2.47289 -0.250568 -3.07246 
2.51011 -0.299736 -3.02613 2.54621 -0.344218 -2.9973 2.56873 -0.406701 -2.96751 
2.5915 -0.468251 -2.92046 2.62897 -0.508662 -2.8597 2.67336 -0.539109 -2.79206 
2.71894 -0.567896 -2.7245 2.76563 -0.595112 -2.65703 2.81817 -0.614102 -2.59 
2.88059 -0.619184 -2.5237 2.94107 -0.627226 -2.46467 3.01135 -0.621697 -2.41378 
3.0874 -0.60828 -2.37074 3.16466 -0.592706 -2.31297 3.24198 -0.576642 -2.2478 
3.31789 -0.559187 -2.17527 3.3855 -0.536627 -2.11771 3.44091 -0.504619 -2.04562 
3.509 -0.480034 -1.94367 0.0456047 -0.21896 -2.68157 -0.0178498 -0.234997 -2.60599 
-0.0853387 -0.236982 -2.55326 -0.144516 -0.223942 -2.5013 -0.20571 -0.21355 -2.44919 
-0.258072 -0.190731 -2.39775 -0.310457 -0.168169 -2.35372 -0.37047 -0.156116 -2.30171 
-0.421571 -0.131299 -2.24296 -0.466808 -0.0980087 -2.17724 -0.510975 -0.0629891 -2.1042 
-0.556051 -0.0290241 -2.02368 -0.606829 -0.00285729 -1.93534 -0.666461 0.0106276 -1.85373 
-0.717336 0.0362091 -1.78019 -0.761313 0.0714975 -1.70716 -0.7972 0.118984 -1.61401 
-0.818407 0.191887 -1.47473 -0.841707 0.284037 -1.27698 0.349848 0.368401 -2.80808 
0.336833 0.445013 -2.81144 2.46947 1.35724 -2.87632 3.15709 1.09696 -2.66432 
3.21107 1.07866 -2.64183 3.24875 1.03809 -2.5959 3.29536 1.01055 -2.53583 
3.35561 1.0024 -2.46937 3.40914 0.984815 -2.40241 3.46272 0.967058 -2.34286 
3.5249 0.960972 -2.29877 3.58386 0.949663 -2.27665 3.64677 0.943709 -2.26223 
3.70572 0.9324 -2.24012 3.76793 0.926562 -2.18862 3.82054 0.907909 -2.11418 
3.86754 0.881795 -2.02453 3.91446 0.855344 -1.94226 3.96701 0.836602 -1.86782 
4.02828 0.830114 -1.79404 4.07981 0.810385 -1.70472 4.11899 0.774164 -1.58484 
4.14176 0.715759 -1.43412 0.671861 -0.980966 -2.37558 3.73027 -0.16076 -2.11885 
3.69726 -0.214058 -2.07898 3.66557 -0.258772 -2.04198 3.63411 -0.302466 -2.01246 
3.60435 -0.346747 -1.97303 3.58454 -0.396517 -1.90381 3.85321 -0.0798166 -2.02748 
3.91477 -0.0927155 -1.91633 3.96849 -0.110398 -1.82217 4.02198 -0.127117 -1.72806 
4.04952 -0.176404 -1.61488 4.05475 -0.236298 -1.49356 4.03563 -0.28393 -1.37995 
4.00635 -0.326186 -1.29613 3.97517 -0.368675 -1.24194 3.94358 -0.412451 -1.21736 
3.91166 -0.457174 -1.21497 3.87792 -0.501794 -1.23481 3.83422 -0.540529 -1.27706 
3.76828 -0.56427 -1.33458 3.60929 -0.516978 -1.66871 3.64757 -0.554014 -1.53395 
-0.634059 0.744751 -1.51185 -0.676789 0.698351 -1.47219 -0.730461 0.669237 -1.43566 
-0.770241 0.631055 -1.41372 -0.793766 0.581342 -1.39043 -0.804206 0.521718 -1.3342 
-0.833033 0.464213 -1.21113 6.57405 -1.08167 -1.50476 6.53105 -1.1138 -1.41383 
-0.638392 0.877403 -1.26324 -0.64873 0.911455 -0.975486 3.70461 -0.653845 -1.3298 
3.70689 -0.71968 -1.2675 3.68692 -0.770521 -1.22047 3.65699 -0.815476 -1.19585 
3.62524 -0.859927 -1.18606 3.59184 -0.903598 -1.1837 3.55019 -0.941424 -1.18152 
3.49462 -0.969369 -1.17964 3.4416 -0.999513 -1.1851 3.37458 -1.02051 -1.20566 
3.30056 -1.03774 -1.24855 3.23312 -1.06002 -1.29872 3.17804 -1.09068 -1.34121 
3.11091 -1.11122 -1.35437 3.03606 -1.12468 -1.33811 2.96153 -1.1368 -1.29225 
2.89513 -1.1543 -1.23881 2.84102 -1.18091 -1.19252 2.7743 -1.19976 -1.16869 
2.69934 -1.21341 -1.15983 2.62386 -1.22487 -1.15848 2.55406 -1.22837 -1.16498 
2.49393 -1.21872 -1.18701 2.43056 -1.2143 -1.231 2.37019 -1.20566 -1.27524 
2.30023 -1.20984 -1.29653 2.22491 -1.22022 -1.27299 2.14878 -1.23107 -1.22716 
2.07258 -1.24201 -1.18134 6.48201 -1.20625 -1.26819 2.8352 2.31773 -1.52258 
2.78113 2.28873 -1.52067 2.7379 2.25202 -1.51852 2.69317 2.21652 -1.51641 
2.62897 2.1972 -1.51483 2.56198 2.19434 -1.51397 2.50787 2.21273 -1.52164 
2.45351 2.2305 -1.5441 2.38443 2.22689 -1.58767 2.30949 2.2148 -1.63822 
2.23928 2.20961 -1.6817 2.17803 2.21768 -1.70365 2.10817 2.21409 -1.71014 
2.03261 2.2027 -1.70879 1.95607 2.19016 -1.69997 1.87963 2.17821 -1.67634 
1.80353 2.16721 -1.63052 1.72899 2.15549 -1.57726 1.66251 2.13765 -1.53123 
1.60815 2.11003 -1.50713 1.54142 2.09094 -1.4907 1.46767 2.07944 -1.46712 
1.39846 2.07814 -1.42182 1.33802 2.0896 -1.36977 1.26881 2.0887 -1.31706 
1.19381 2.07967 -1.26392 1.11809 2.07011 -1.18851 1.04441 2.06093 -1.07606 
0.983315 2.0452 -0.918941 0.959223 2.00558 -0.716651 7.37329 0.0407341 -1.46827 
7.36021 0.117257 -1.47161 7.34608 0.192297 -1.47488 7.3261 0.259113 -1.47771 
7.29618 0.31193 -1.47979 7.267 0.365798 -1.48193 7.22117 0.396469 -1.47541 
7.15503 0.39879 -1.45997 7.08793 0.399966 -1.43705 7.03507 0.420751 -1.43 
6.98778 0.448915 -1.43819 6.93461 0.468351 -1.46074 6.86697 0.467661 -1.47479 
6.79843 0.466155 -1.47398 6.73885 0.477916 -1.45162 6.67646 0.48599 -1.41422 
6.61847 0.496883 -1.38442 6.55867 0.487327 -1.37593 6.50735 0.46308 -1.38167 
6.4544 0.463158 -1.37369 6.41207 0.496086 -1.34506 6.35665 0.513965 -1.30819 
6.29923 0.52878 -1.286 6.23656 0.535747 -1.27821 6.17681 0.546834 -1.27065 
6.10845 0.54625 -1.24763 6.04028 0.546598 -1.20242 5.97997 0.55846 -1.14297 
5.91092 0.558248 -1.07547 5.83617 0.550231 -1.00013 5.76052 0.541407 -0.909918 
5.68514 0.533441 -0.7975 5.61159 0.524971 -0.670242 5.54941 0.508824 -0.53535 
5.51886 0.470232 -0.39977 5.51695 0.410918 -0.270986 5.50831 0.355593 -0.157136 
5.46668 0.322103 -0.0735744 5.4291 0.284551 -0.0121365 5.40757 0.234427 0.0274651 
5.40942 0.167707 0.0675688 5.41952 0.0947425 0.100449 5.42305 0.0264409 0.133188 
5.41415 -0.0338272 0.15086 5.41752 -0.103204 0.161406 5.42903 -0.17861 0.164719 
5.44307 -0.253587 0.167986 5.46305 -0.320402 0.170815 5.49285 -0.37339 0.172906 
5.51973 -0.4305 0.175218 5.55071 -0.481827 0.177221 5.57877 -0.537274 0.179443 
[...]
POINT_DATA 912
SCALARS DY_raw double
LOOKUP_TABLE default
120.011 90.8864 136.352 155.178 172.456 100.717 99.2466 101.129 140.322 
185.372 151.369 104.584 123.502 126.46 84.5474 113.74 148.116 125.259 
134.857 151.161 108.428 124.535 109.136 136.459 100.736 99.5206 105.335 
128.915 145.73 169.08 121.896 129.907 92.6958 109.306 88.8027 177.272 
109.809 160.168 120.208 111.792 84.5067 125.139 156.684 93.6814 99.3557 
118.284 92.4934 177.643 180.296 107.111 109.772 109.611 136.128 162.65 
229.212 107.193 123.782 112.248 106.221 134.067 134.067 136.89 136.89 
131.917 141.049 153.218 164.599 166.304 187.644 100.948 103.369 104.788 
109.484 109.455 112.332 101.055 105.87 105.842 110.992 100.631 94.1058 
94.1058 91.5923 89.7767 92.0892 92.0892 111.405 104.656 111.918 108.935 
92.0851 88.8311 99.7429 100.353 103.653 104.862 260.072 270.877 245.166 
205.831 189.788 158.146 125.92 133.784 133.086 121.539 128.071 125.201 
129.758 110.5 110.43 91.9583 87.5046 89.5703 91.1732 92.146 135.024 
162.65 110.031 118.632 117.398 117.398 119.477 104.609 105.661 114.613 
119.214 132.24 135.98 141.702 143.709 143.709 167.121 141.277 149.289 
146.195 138.054 138.054 127.936 123.297 123.297 117.562 117.022 130.36 
117.509 105.054 94.114 99.8116 104.217 115.654 109.854 111.42 91.7819 
99.7884 97.5101 101.414 94.1867 91.072 85.8198 83.0692 83.2925 200.758 
206.463 178.15 153.457 130.148 134.773 120.175 100.869 104.877 108.633 
102.84 118.128 107.479 118.318 127.509 127.356 131.95 134.77 151.716 
164.425 108.585 92.823 90.9936 91.6619 100.786 101.805 101.677 113.729 
115.14 105.231 102.356 121.841 137.639 144.832 153.671 145.555 133.271 
129.861 125.43 109 109.207 180.296 93.4161 93.4161 98.6046 103.715 
110.241 123.567 117.218 117.218 107.822 107.822 107.967 99.1139 105.313 
108.708 97.6977 99.0594 91.4014 98.0756 101.386 90.5664 118.51 100.236 
104.965 113.896 123.527 145.19 149.021 95.3481 98.6245 110.842 122.236 
114.423 114.277 111.94 116.555 125.689 125.689 130.919 145.961 133.827 
127.98 146.58 116.803 96.0673 103.727 116.381 116.847 116.548 119.39 
119.645 108.544 103.222 103.801 121.269 119.8 122.488 128.78 128.78 
140.133 140.133 148.022 162.034 163.041 169.499 157.014 149.209 138.156 
126.283 126.283 119.123 115.579 119.281 104.263 108.906 105.858 102.553 
107.119 103.605 111.851 104.611 108.751 113.919 117.791 101.055 146.718 
127.672 123.327 112.059 100.449 103.587 108.614 109.865 112.83 119.041 
105.984 115.687 126.852 122.123 115.576 105.961 111.173 110.742 116.276 
115.023 120.811 112.418 117.452 113.12 96.5815 95.1097 91.1247 88.503 
101.38 116.804 109.906 100.011 106.628 117.584 138.94 130.486 137.592 
117.47 110.587 108.82 96.8452 93.3205 94.7648 94.7648 109.27 115.908 
114.947 112.625 114.122 102.05 118.319 133.14 130.12 134.017 114.907 
115.293 103.469 107.445 127.233 112.935 122.434 120.786 106.25 108.893 
112.24 108.488 112.88 114.572 120.376 115.689 116.164 125.33 134.256 
142.394 161.189 142.286 129.004 142.435 136.71 161.849 153.101 153.101 
147.869 145.736 145.736 138.545 145.87 146.293 128.827 131.317 136.161 
108.914 120.346 110.37 109.796 118.974 126.909 130.768 148.976 136.429 
133.474 143.981 129.329 129.329 129.575 125.312 125.312 136.52 123.095 
125.334 113.92 120.08 149.77 144.147 149.541 145.369 145.369 143.534 
146.161 129.634 134.157 118.964 111.361 111.677 113.828 123.169 126.866 
114.747 114.53 118.304 110.592 110.592 112.361 122.327 122.327 133.534 
149.188 155.298 139.484 126.753 120.913 106.156 116.925 108.912 100.082 
97.0803 109.223 110.535 102.987 149.172 134.974 109.954 102.715 133.332 
124.428 110.571 111.813 107.432 105.341 105.341 103.64 109.569 105.095 
105.095 102.482 107.354 115.322 116.662 126.03 125.674 125.674 133.21 
146.948 149.971 150.287 144.057 128.752 141.583 150.324 143.15 143.888 
163.402 170.796 170.365 186.378 177.115 170.645 171.111 177.635 170.608 
166.349 104.655 108.484 121.838 117.697 100.788 125.918 126.211 134.33 
134.413 137.613 136.51 132.318 156.757 107.158 112.009 99.216 95.3393 
101.672 96.0483 86.3763 98.7319 100.463 98.0725 109.434 98.7481 100.928 
100.928 99.0141 121.318 129.949 122.669 122.669 123.552 129.083 118.282 
106.937 117.38 115.173 113.363 123.559 111.445 108.283 133.28 128.618 
128.618 125.385 133.777 125.388 113.697 132.057 132.057 118.997 111.063 
111.063 88.6857 107.622 107.622 125.944 125.944 126.521 118.832 118.832 
113.078 102.469 110.094 113.601 122.563 127.137 127.137 133.269 136.532 
143.027 142.524 139.42 151.611 133.303 108.991 113.352 107.405 107.405 
113.833 124.478 123.672 120.552 110.363 101.012 107.104 113.689 118.366 
126.309 133.624 143.78 138.806 146.295 177.189 151.876 148.684 142.438 
142.026 151.167 120.208 124.317 129.14 141.273 163.187 125.233 114.739 
112.321 115.457 128.47 140.995 150.091 156.023 156.494 164.271 161.666 
192.481 214.46 220.67 220.67 208.976 171.004 175.708 148.908 150.851 
150.851 141.591 134.327 135.551 147.391 146.152 147.232 116.275 121.932 
119.486 117.838 113.63 116.418 125.796 120.918 117.367 102.655 111.531 
117.051 127.533 141.589 138.851 136.673 130.797 130.51 122.108 117.787 
101.26 92.8918 97.5012 112.479 112.479 121.523 121.523 113.594 106.728 
102.788 99.3194 109.944 124.287 137.789 114.043 122.726 132.302 134.457 
142.011 138.483 135.115 109.154 111.713 103.398 107.652 120.79 135.374 
157.324 147.718 115.49 98.9337 99.8233 103.39 101.974 101.974 112.528 
116.892 110.752 100.875 91.9251 100.799 110.628 120.703 112.459 120.616 
120.616 115.304 122.951 129.148 134.041 119.414 119.308 119.308 120.417 
117.609 124.386 117.671 118.461 107.969 113.218 104.142 119.841 134.539 
132.883 128.33 134.832 126.718 106.872 122.489 131.965 132.538 135.57 
131.038 138.204 130.591 105.722 100.603 103.738 106.196 107.261 117.134 
144.002 107.986 149.717 145.681 132.826 136.752 146.211 138.701 110.336 
110.336 117.65 117.65 121.553 122.883 122.883 121.579 131.133 131.133 
131.583 141.994 134.691 132.875 119.742 116.839 116.358 114.18 129.932 
125.676 123.339 125.074 129.087 137.379 145.852 154.188 177.511 202.877 
227.914 243.405 216.855 197.499 200.397 179.892 149.566 151.925 145.13 
139.292 128.748 128.748 123.923 133.37 125.658 111.528 110.877 105.906 
103.096 105.435 112.014 124.163 117.425 108.035 111.304 116.776 122.92 
120.307 119.903 111.256 111.256 119.319 123.256 118.191 110.198 157.867 
143.582 119.207 122.494 130.585 135.163 137.569 134.394 91.9449 98.5965 
108.297 86.9109 90.4893 107.238 113.429 118.509 125.866 141.582 145.914 
166.459 166.064 176.275 176.275 156.084 169.42 100.978 90.5816 97.2836 
107.64 114.319 104.864 100.717 102.858 103.593 110.008 104.313 115.658 
128.407 129.511 130.021 130.021 144.606 163.516 158.797 150.371 150.371 
161.366 136.6 151.176 155.348 135.014 133.828 145.723 148.612 169.704 
176.103 176.103 187.164 176.048 160.584 151.865 153.176 147.003 147.003 
150.379 153.038 153.038 143.902 134.049 88.6931 82.12 97.364 92.5024 
99.1276 97.088 111.793 103.36 106.388 112.888 140.05 127.677 135.869 
133.204 126.244 126.244 118.054 112.02 120.038 120.038 118.637 116.217 
116.217 118.404 120.908 119.076 116.401 105.292 103.061 93.3593 105.408 
107.022 103.694 115.917 102.373 117.705 123.812 123.812 115.11 109.764 
109.764 112.221 112.221 109.879 117.004 134.911 146.719 142.112 142.112 
142.342 141.802 141.802 134.189 134.189 129.851 121.986 114.42 117.513 
122.855 122.855 120.54 
FIELD FieldData 7
DY_minmax 1 912 double
0.20074 0.046443 0.28731 0.387047 0.478584 0.0985221 0.0907338 0.100704 0.308342 
0.547012 0.366868 0.119011 0.219232 0.234904 0.0128599 0.167516 0.349633 0.228542 
0.279394 0.365764 0.139376 0.224705 0.143128 0.287879 0.0986234 0.092185 0.122987 
0.247913 0.336994 0.460699 0.210724 0.253169 0.056029 0.144026 0.0354036 0.504098 
0.146693 0.413486 0.201785 0.157196 0.0126443 0.227904 0.395028 0.0612502 0.0913115 
0.191588 0.0549564 0.506063 0.520118 0.132396 0.146495 0.145645 0.286123 0.426632 
0.779267 0.13283 0.220717 0.159611 0.127684 0.275204 0.275204 0.290163 0.290163 
0.263814 0.312193 0.376665 0.436957 0.445993 0.559046 0.0997453 0.112571 0.120091 
0.144969 0.144813 0.160058 0.100316 0.125824 0.125675 0.152957 0.0980692 0.0634989 
0.0634989 0.0501824 0.040564 0.0528153 0.0528153 0.155146 0.11939 0.157864 0.142059 
0.0527934 0.0355544 0.093363 0.0965973 0.114077 0.120485 0.942759 1 0.86379 
0.655399 0.570403 0.402774 0.232046 0.273708 0.270006 0.208835 0.243438 0.228238 
0.25238 0.150353 0.149982 0.0521214 0.0285265 0.0394704 0.0479623 0.0531162 0.280275 
0.426632 0.147865 0.193435 0.186896 0.186896 0.197911 0.119145 0.124713 0.172144 
0.196517 0.265526 0.28534 0.315656 0.326286 0.326286 0.450322 0.313401 0.355848 
0.339458 0.296328 0.296328 0.242724 0.218146 0.218146 0.187765 0.184906 0.255565 
0.187485 0.121499 0.063542 0.0937267 0.117065 0.177659 0.146932 0.155228 0.0511873 
0.0936041 0.0815342 0.102217 0.0639271 0.0474261 0.0196007 0.00502855 0.00621181 0.628522 
0.658748 0.508749 0.377929 0.254445 0.278948 0.201608 0.0993309 0.120561 0.140462 
0.109769 0.190763 0.134345 0.191772 0.240461 0.239652 0.26399 0.278928 0.368707 
0.436035 0.140207 0.0567025 0.0470106 0.0505511 0.0988872 0.10429 0.103611 0.167459 
0.174936 0.122437 0.107206 0.210434 0.29413 0.332239 0.379065 0.336068 0.270986 
0.252923 0.22945 0.142406 0.143504 0.520118 0.0598447 0.0598447 0.0873324 0.114407 
0.148978 0.21958 0.185941 0.185941 0.136167 0.136167 0.13693 0.0900306 0.12287 
0.140859 0.082528 0.089742 0.049171 0.0845297 0.102066 0.0447478 0.19279 0.095973 
0.121027 0.168342 0.219364 0.334133 0.354427 0.0700802 0.0874378 0.152164 0.212528 
0.171133 0.170363 0.157981 0.182428 0.230822 0.230822 0.258526 0.338218 0.273933 
0.242959 0.3415 0.183747 0.0738903 0.11447 0.181509 0.183977 0.182392 0.197451 
0.198802 0.139991 0.111793 0.11486 0.207404 0.19962 0.21386 0.247197 0.247197 
0.307344 0.307344 0.349136 0.423371 0.428703 0.462919 0.396772 0.355427 0.296866 
0.233969 0.233969 0.196033 0.177257 0.196874 0.117308 0.141909 0.12576 0.108251 
0.132442 0.113825 0.157507 0.119155 0.141087 0.168467 0.188976 0.100317 0.342226 
0.241326 0.218307 0.158609 0.0971016 0.113728 0.140362 0.14699 0.162699 0.195602 
0.126425 0.177833 0.23698 0.21193 0.177244 0.126305 0.15392 0.151635 0.18095 
0.174315 0.204977 0.160511 0.187183 0.164235 0.0766142 0.068817 0.0477055 0.0338163 
0.102035 0.183752 0.147207 0.0947817 0.129837 0.18788 0.301021 0.256233 0.293879 
0.187278 0.150812 0.141452 0.0780117 0.0593381 0.0669898 0.0669898 0.143837 0.179002 
0.173911 0.161607 0.169541 0.105583 0.191775 0.270293 0.254293 0.274942 0.173702 
0.175743 0.113102 0.134169 0.239002 0.163254 0.213574 0.204845 0.127837 0.141838 
0.15957 0.139695 0.162959 0.171923 0.202674 0.177844 0.180361 0.228917 0.276207 
0.319322 0.418895 0.318748 0.248385 0.319539 0.28921 0.422391 0.376045 0.376045 
0.348326 0.337028 0.337028 0.298929 0.337738 0.33998 0.247445 0.260636 0.286301 
0.141951 0.202515 0.149661 0.146622 0.195247 0.237281 0.257727 0.354193 0.287722 
0.272067 0.327731 0.250107 0.250107 0.251406 0.228821 0.228821 0.288201 0.217076 
0.228938 0.16847 0.201107 0.358395 0.328607 0.357183 0.335079 0.335079 0.325362 
0.33928 0.251722 0.275682 0.195191 0.154915 0.156589 0.167984 0.21747 0.237054 
0.172851 0.171704 0.191698 0.150838 0.150838 0.16021 0.213012 0.213012 0.272383 
0.355314 0.387682 0.303903 0.236458 0.20552 0.127337 0.184391 0.141941 0.0951575 
0.0792568 0.143589 0.150539 0.110547 0.355229 0.280009 0.147458 0.10911 0.271314 
0.224143 0.150727 0.15731 0.1341 0.123019 0.123019 0.114009 0.145422 0.121715 
0.121715 0.107872 0.133684 0.1759 0.182998 0.232628 0.230743 0.230743 0.270665 
0.343445 0.359462 0.361139 0.328131 0.247048 0.315025 0.361333 0.323329 0.327237 
0.430615 0.469791 0.467504 0.552339 0.503266 0.468988 0.471458 0.50602 0.468796 
0.446231 0.119388 0.13967 0.210421 0.188479 0.098899 0.232036 0.233586 0.2766 
0.277038 0.293994 0.288147 0.265939 0.395415 0.132646 0.158348 0.0905716 0.0700337 
0.103583 0.0737898 0.0225493 0.0880071 0.0971782 0.0845134 0.144703 0.0880926 0.0996424 
0.0996424 0.0895022 0.207665 0.253387 0.214822 0.214822 0.219501 0.248801 0.191578 
0.131474 0.186803 0.175107 0.165521 0.219539 0.155357 0.138605 0.271036 0.246337 
0.246337 0.229208 0.273671 0.229225 0.167289 0.264557 0.264557 0.195367 0.153335 
0.153335 0.0347837 0.135104 0.135104 0.232172 0.232172 0.235231 0.194495 0.194495 
0.16401 0.107804 0.148203 0.16678 0.21426 0.238493 0.238493 0.270979 0.288264 
0.322672 0.320007 0.303564 0.36815 0.271158 0.142355 0.165464 0.133956 0.133956 
0.168012 0.224403 0.220135 0.203606 0.149627 0.100086 0.132362 0.167246 0.192027 
0.234106 0.272859 0.326661 0.300314 0.339986 0.503656 0.369553 0.352643 0.319555 
0.317371 0.365798 0.201786 0.223554 0.249104 0.313381 0.429477 0.228403 0.172808 
0.160002 0.176613 0.245553 0.311906 0.360096 0.391526 0.394022 0.43522 0.421419 
0.584672 0.701115 0.73401 0.73401 0.672062 0.470889 0.49581 0.353832 0.364126 
0.364126 0.315064 0.276585 0.283069 0.345795 0.339231 0.344951 0.180949 0.210918 
0.197957 0.189226 0.166935 0.181703 0.231388 0.205545 0.186733 0.108789 0.155813 
0.185058 0.240589 0.315057 0.300548 0.28901 0.257882 0.256362 0.21185 0.188957 
0.101398 0.0570669 0.0814869 0.160835 0.160835 0.208752 0.208752 0.166744 0.130368 
0.109497 0.0911191 0.147405 0.223394 0.294926 0.16912 0.215121 0.265856 0.277271 
0.317292 0.298603 0.28076 0.143221 0.156777 0.112728 0.135265 0.204865 0.282129 
0.398416 0.347527 0.17679 0.0890761 0.0937891 0.112684 0.105183 0.105183 0.161098 
0.184214 0.151689 0.0993585 0.0519457 0.0989562 0.151031 0.204408 0.160733 0.203946 
0.203946 0.175805 0.216315 0.249145 0.275067 0.197578 0.197016 0.197016 0.202889 
0.188017 0.22392 0.18834 0.192527 0.136944 0.16475 0.11667 0.199841 0.277704 
0.268931 0.244813 0.279261 0.236271 0.13113 0.213869 0.26407 0.267107 0.28317 
0.259158 0.297122 0.25679 0.125038 0.0979193 0.114528 0.12755 0.133193 0.185497 
0.327839 0.137036 0.358118 0.336733 0.268632 0.28943 0.339541 0.299755 0.149484 
0.149484 0.18823 0.18823 0.208909 0.215956 0.215956 0.209048 0.259662 0.259662 
0.262049 0.317201 0.278509 0.268889 0.199314 0.183935 0.181384 0.169849 0.253298 
0.230751 0.218371 0.227563 0.248823 0.292755 0.337638 0.381803 0.505362 0.639746 
0.772388 0.854459 0.713801 0.611255 0.626608 0.517977 0.357315 0.369816 0.333817 
0.302887 0.247025 0.247025 0.221467 0.271514 0.230657 0.155799 0.152348 0.126013 
0.111129 0.123518 0.158372 0.222736 0.187038 0.137292 0.154613 0.183602 0.216153 
0.202308 0.20017 0.154355 0.154355 0.197073 0.21793 0.1911 0.148752 0.401291 
0.325614 0.196482 0.213892 0.256758 0.281011 0.29376 0.276936 0.0520508 0.0872896 
0.138679 0.0253814 0.0443393 0.13307 0.16587 0.19278 0.231758 0.315021 0.337971 
0.446815 0.44472 0.498816 0.498816 0.391849 0.4625 0.0999042 0.0448281 0.0803341 
0.135199 0.170583 0.120494 0.0985221 0.109866 0.113761 0.147748 0.117576 0.17768 
0.24522 0.251067 0.253773 0.253773 0.331039 0.431221 0.406222 0.361579 0.361579 
0.419832 0.288626 0.365848 0.387949 0.280222 0.273939 0.336955 0.352263 0.464005 
0.497905 0.497905 0.556507 0.497613 0.415689 0.369494 0.376442 0.343736 0.343736 
0.361625 0.375713 0.375713 0.327311 0.275108 0.034823 0 0.0807599 0.0550039 
0.090103 0.079298 0.157203 0.112524 0.128565 0.163001 0.306901 0.24135 0.284754 
0.270632 0.233763 0.233763 0.190369 0.158403 0.200881 0.200881 0.193461 0.18064 
0.18064 0.192225 0.205492 0.195785 0.181616 0.122762 0.110942 0.0595438 0.123377 
0.131925 0.114296 0.17905 0.107299 0.188525 0.220878 0.220878 0.174775 0.146455 
0.146455 0.159472 0.159472 0.147064 0.184811 0.279678 0.342232 0.317825 0.317825 
0.319045 0.316187 0.316187 0.275851 0.275851 0.252868 0.211201 0.171118 0.187507 
0.215807 0.215807 0.203545 
WidthEq 1 912 double
3.44528 3.08882 2.42037 1.97362 1.35247 3.7698 2.39466 2.89336 2.02622 
2.63892 3.24652 2.49829 3.03974 2.28406 2.69768 4.02992 3.59821 3.58387 
2.70087 3.16638 2.78195 4.30035 4.18469 3.30987 3.61422 3.77542 3.46612 
3.40512 2.85687 2.55827 3.96686 3.55247 4.85148 3.53377 1.36563 1 
2.97718 1.23072 3.66266 3.24203 4.47766 2.38266 2.61821 3.78775 2.61769 
1.86985 2.84585 1.18137 1.42811 2.32808 2.31464 2.15271 1.73772 1.23254 
1.81501 2.36735 1.66011 1.2069 1.68076 1.63711 1.63711 1.53811 1.53811 
1.51355 1.5163 1.52451 1.65586 1.70965 1.78557 1.87495 1.82756 1.96532 
1.97172 1.8544 1.92957 2.03514 2.0292 2.14217 2.21983 2.52935 2.66277 
2.66277 2.76936 2.79295 2.66298 2.66298 2.32119 2.28293 2.23621 2.35143 
2.73543 2.95203 2.93276 3.05612 2.98113 2.86768 1.82815 1.76158 1.73104 
1.67765 1.71988 1.79891 2.02384 1.90652 2.03916 2.18137 2.29336 2.35878 
2.39238 2.63196 2.63227 2.95799 3.10626 3.14984 3.31415 3.57912 1.62528 
1.23254 2.24739 2.00925 1.92578 1.92578 1.90214 1.99841 2.01733 2.11207 
2.21419 2.24533 2.25233 2.16413 2.12988 2.12988 1.98857 2.03963 2.01269 
2.023 1.96758 1.96758 2.17798 2.21995 2.21995 2.11269 2.1532 2.02511 
2.29924 2.47989 2.71226 2.71874 2.71446 2.57683 2.67492 2.64451 2.99636 
2.88262 3.08606 3.1338 3.46527 3.95261 4.28761 4.53131 4.60728 1.82579 
1.70264 1.63116 1.56573 1.78191 1.75459 1.94593 2.4289 2.43717 2.59499 
2.86497 2.82915 2.85789 2.77795 2.6505 2.50033 2.47989 2.42571 2.44425 
2.50061 2.53287 2.87991 3.06035 3.10578 3.02327 2.91765 2.9763 2.86472 
2.86009 2.89062 2.88515 2.70297 2.61729 2.54786 2.47289 2.4349 2.53148 
2.80394 3.20426 2.69625 2.64224 1.42811 3.21681 3.21681 3.18385 3.12608 
3.05914 2.99733 2.90086 2.90086 3.00468 3.00468 3.11793 3.45292 3.61773 
3.56792 3.72447 3.77331 3.99427 4.01845 4.36494 4.78866 2.27112 3.60752 
3.35725 3.06528 2.93412 2.70006 2.71648 3.86627 3.80415 3.60082 3.64174 
3.87119 3.68641 3.53405 3.15459 2.64487 2.64487 2.76639 2.66977 2.85781 
3.1902 2.63625 3.181 4.19291 3.88849 3.56829 3.13369 3.06451 3.12196 
3.29133 3.47381 3.81307 3.52611 3.23679 3.19443 2.93819 2.78111 2.78111 
2.60175 2.60175 2.41094 1.9517 2.14512 2.05666 1.83425 1.97858 1.97757 
2.17742 2.17742 2.45505 2.71125 2.70656 3.22226 3.1621 3.29046 3.20012 
2.76964 2.8879 2.4836 2.28285 2.10685 1.80638 1.59632 3.84009 2.45555 
3.16696 3.13347 3.6946 4.00734 4.0373 3.67624 3.74196 3.21183 3.00595 
3.17193 2.92869 2.73029 2.83019 2.83927 3.16864 3.09626 3.21794 3.22288 
3.33665 3.34673 3.59323 3.5607 3.7157 4.13643 4.26909 4.72366 5.16922 
4.90129 4.72407 3.04971 2.83362 2.48212 2.26215 1.9107 2.0256 1.96271 
2.30648 2.69419 2.78636 2.91415 3.12356 3.19119 3.19119 3.1436 3.03985 
3.03359 3.03488 3.18652 3.32889 3.29273 3.11547 3.21237 3.24803 3.5044 
3.48558 3.72317 3.92908 3.69457 3.90508 3.77194 3.65914 4.10298 4.48433 
4.38918 4.22554 4.02156 3.80009 3.70432 3.5427 2.92191 2.79473 2.44899 
2.32195 1.97936 1.93682 2.1149 2.09402 2.30474 2.18427 2.37139 2.37139 
2.34669 2.32428 2.32428 2.35384 2.28835 2.21618 2.27974 2.17521 2.07146 
2.34966 2.23515 2.30618 2.30429 2.41088 2.44737 2.59874 2.57002 2.90994 
3.02838 2.83336 3.17694 3.17694 3.25582 3.05815 3.05815 2.75324 2.78673 
2.87618 3.09456 2.82887 2.51121 2.56275 2.5091 2.55593 2.55593 2.56504 
2.58291 2.84016 2.70014 2.81222 2.90237 3.03331 2.99067 2.93095 2.86336 
2.94572 2.81726 2.4913 2.41349 2.41349 2.31364 2.28528 2.28528 2.36271 
2.3559 2.32091 2.50217 2.62015 2.78714 3.16085 3.04958 3.34427 3.92781 
4.05625 3.95274 3.78026 3.77439 1.1153 1.34813 1.81187 1.86975 1.89678 
2.1447 2.38491 2.50535 2.70386 2.86415 2.86415 2.79112 2.69712 2.78694 
2.78694 2.83243 2.58633 2.37137 2.36445 2.04604 1.85489 1.85489 1.79185 
1.79371 1.8387 1.80495 1.92682 1.93 1.87743 1.95905 2.21649 2.3337 
2.17484 2.27816 2.46103 2.26514 2.32393 2.51272 2.48168 2.37967 2.27124 
2.15283 4.61039 3.73966 3.63524 3.64056 3.93998 4.39056 3.37793 3.25997 
2.78539 3.27818 3.10998 2.99886 2.83873 2.87652 3.28537 3.70104 3.54043 
3.25057 3.16228 2.96704 2.93504 2.71127 2.55854 2.41737 2.24067 2.24082 
2.24082 2.43826 2.33973 2.51455 3.03827 3.03827 3.20692 3.93446 3.7766 
3.51537 3.36719 3.26703 3.28724 3.17986 3.36734 3.37304 3.0217 3.19879 
3.19879 3.24164 3.2638 3.38743 3.38982 3.13821 3.13821 3.1559 3.17596 