# vtk DataFile Version 3.0
vtk output
ASCII
DATASET POLYDATA
POINTS 616 float
1.07675 -0.743213 0.753169 0.310313 -0.375588 0.530733 0.302894 -0.96562 0.478699 
0.320836 0.548996 0.276792 1.74961 0.358105 0.49363 -0.298231 -0.417908 0.283481 
0.419203 0.806254 -0.0963901 -0.562333 -0.0826979 -0.108098 -0.29113 -0.991811 -0.430233 
0.385891 -1.55616 -0.452556 0.00720977 0.636458 -0.36794 0.0195417 -1.08325 -0.356242 
0.693697 -1.76733 -0.369095 -0.879242 -0.166436 -0.741172 -0.594009 0.364823 -0.876195 
-0.688163 0.0321505 -1.4652 -0.0904856 -1.19391 -1.17852 0.145417 -1.43324 -1.2501 
3.49379 -0.512697 -1.00397 0.00851145 0.734822 -1.20448 3.38391 -0.968804 -1.31976 
4.50941 -0.74177 -1.3223 -0.00702923 0.577002 -1.62182 0.497111 0.68975 -1.57692 
4.25574 0.0196316 -1.37408 -0.199231 0.418413 -1.85028 1.58259 0.871791 -1.86288 
1.78322 0.856466 -1.67418 2.52805 0.374482 -2.01479 4.33248 0.178273 -1.55614 
3.89145 -0.047573 -1.60652 3.76151 -0.116386 -1.62157 5.49185 0.351647 -1.59454 
2.99026 -1.21118 -1.77078 0.477667 0.491299 -1.99809 0.3543 0.405398 -2.01416 
0.280896 0.240568 -2.03366 4.14152 0.118027 -1.77592 5.3819 0.430072 -1.96429 
5.23736 -0.797747 -1.77968 1.58263 0.569801 -2.11564 2.14208 0.488189 -2.08387 
1.04502 0.495639 -2.36074 1.81262 0.39907 -2.38288 0.7742 -0.781426 -2.49108 
5.7408 0.337244 -2.04806 5.9416 0.180712 -2.32353 5.6923 -0.549849 -2.33013 
5.44397 0.589837 -2.58328 4.95302 0.356564 -2.50363 5.32521 0.509721 -2.66562 
5.2171 0.285133 -2.89399 5.23216 0.204361 -2.89999 5.23982 0.138675 -2.9052 
5.23421 0.0763765 -2.91103 5.24294 0.0208884 -2.91526 5.2622 -0.0307633 -2.91098 
5.2919 -0.0754432 -2.89046 5.33821 -0.0938458 -2.84413 5.38419 -0.0803636 -2.78757 
5.44266 -0.0919802 -2.7398 5.50566 -0.109139 -2.71456 5.56132 -0.103295 -2.70273 
5.61394 -0.0875932 -2.6977 5.66941 -0.0793079 -2.69312 5.72959 -0.0832282 -2.68928 
5.77958 -0.062663 -2.67655 5.81591 -0.0105691 -2.64712 5.8489 0.0424373 -2.58802 
5.88607 0.0807668 -2.50755 5.92011 0.128939 -2.41155 5.12224 0.315507 -2.79359 
5.03614 0.338445 -2.66341 5.26553 0.373845 -2.84561 5.29933 0.446259 -2.76986 
5.37193 0.561566 -2.62555 5.24328 0.524777 -2.49858 5.16712 0.530758 -2.35428 
5.10327 0.51462 -2.24833 5.04849 0.49072 -2.20205 5.0038 0.460345 -2.23017 
4.9745 0.411706 -2.3408 5.53576 0.540467 -2.5837 5.60789 0.510153 -2.55152 
5.66338 0.495572 -2.47689 5.70908 0.459786 -2.36006 5.73088 0.40241 -2.21449 
5.41674 0.491164 -2.282 4.87035 0.373521 -2.33647 4.78936 0.390066 -2.18413 
4.71306 0.398386 -2.0471 4.64456 0.390383 -1.92586 4.58007 0.377896 -1.82708 
4.53036 0.336892 -1.76704 4.48447 0.293864 -1.73672 4.44109 0.244324 -1.70679 
4.3896 0.207931 -1.64647 5.42118 0.541935 -2.2698 5.65378 -0.610058 -2.30825 
5.60825 -0.657976 -2.26343 5.56187 -0.711568 -2.18934 5.50732 -0.751818 -2.08485 
5.44853 -0.783185 -1.97242 5.3886 -0.809393 -1.87452 5.32187 -0.818989 -1.81293 
5.90881 0.230498 -2.24694 5.85284 0.269297 -2.18036 5.80341 0.306233 -2.1135 
1.77191 0.331577 -2.44875 1.72458 0.295258 -2.47757 1.67198 0.271043 -2.4585 
1.61686 0.249225 -2.41702 1.55832 0.237084 -2.37744 1.49587 0.240976 -2.35908 
1.43985 0.232141 -2.35629 1.38726 0.216337 -2.36133 1.33175 0.208145 -2.36591 
1.27084 0.213966 -2.36963 1.21533 0.205783 -2.37421 1.1627 0.190082 -2.37924 
1.10666 0.183864 -2.38368 1.04454 0.204143 -2.38623 1.00075 0.244541 -2.3932 
1.00547 0.305835 -2.40242 1.02306 0.372117 -2.41032 1.02851 0.432456 -2.39722 
5.66385 0.343949 -1.90624 5.586 0.339543 -1.75552 0.8088 -0.826919 -2.49264 
0.866138 -0.861853 -2.49171 0.930894 -0.883309 -2.48908 0.991908 -0.890008 -2.48542 
1.05666 -0.911456 -2.48279 1.114 -0.946389 -2.48185 1.1486 -0.991883 -2.48342 
1.18324 -1.03748 -2.48499 1.24117 -1.07425 -2.48417 1.3084 -1.10749 -2.4824 
1.36814 -1.14358 -2.4814 1.41386 -1.18497 -2.48183 1.4737 -1.22102 -2.48082 
1.5428 -1.25344 -2.47885 1.61289 -1.28342 -2.47659 1.67882 -1.30226 -2.47365 
1.73502 -1.29586 -2.46918 1.78695 -1.27836 -2.46405 1.83823 -1.25917 -2.4588 
1.88956 -1.24211 -2.44629 1.94336 -1.2334 -2.42689 1.99915 -1.23184 -2.40051 
2.04868 -1.21009 -2.38771 2.10648 -1.20585 -2.39078 2.16217 -1.19223 -2.40808 
2.21147 -1.16394 -2.41708 2.25778 -1.12989 -2.41834 2.3139 -1.12524 -2.40658 
2.36718 -1.11717 -2.37981 2.41665 -1.10513 -2.3306 2.46862 -1.10154 -2.2745 
2.52716 -1.11303 -2.22671 2.58541 -1.11787 -2.20073 2.6472 -1.12794 -2.18985 
2.70648 -1.13149 -2.17859 2.76659 -1.14115 -2.15289 2.81925 -1.13936 -2.0969 
2.87052 -1.14184 -2.01157 2.9288 -1.17042 -1.89821 1.90441 0.37652 -2.34617 
1.96814 0.381096 -2.31153 2.01574 0.405057 -2.27382 2.05764 0.436297 -2.22098 
2.10524 0.449251 -2.15691 1.76058 0.458055 -2.25215 1.71408 0.503637 -2.16197 
1.65231 0.538007 -2.12351 1.08244 0.548823 -2.34604 1.13141 0.568102 -2.31859 
1.18851 0.560326 -2.27059 1.24041 0.564111 -2.21446 1.28992 0.576059 -2.16526 
1.34389 0.582323 -2.1386 1.40433 0.575757 -2.12752 1.46054 0.582142 -2.12305 
1.5174 0.58683 -2.11869 0.968202 0.517123 -2.26731 0.897673 0.530175 -2.204 
0.83942 0.521209 -2.17902 0.786979 0.503067 -2.17679 0.735705 0.483871 -2.18203 
0.683265 0.465729 -2.17981 0.625012 0.456764 -2.15483 0.554482 0.469816 -2.09152 
5.39913 0.335687 -1.87319 5.44208 0.305568 -1.74986 2.66088 0.304329 -2.01913 
2.74258 0.249097 -2.03317 2.79076 0.203517 -2.02635 2.84818 0.164054 -1.98854 
2.91369 0.127133 -1.93503 2.98076 0.0931932 -1.88861 3.04588 0.0705282 -1.8637 
3.10607 0.0626207 -1.8453 3.17119 0.0399646 -1.82039 3.23836 0.00606365 -1.77396 
3.30563 -0.0300741 -1.72026 3.37276 -0.0638724 -1.67383 3.43718 -0.0847301 -1.64881 
3.49357 -0.0807863 -1.63709 3.54987 -0.0745182 -1.63263 3.61242 -0.0827357 -1.62899 
3.67882 -0.0900324 -1.62501 2.38404 0.400134 -2.03002 2.28685 0.424589 -2.057 
2.21272 0.455819 -2.07433 2.15402 0.5474 -2.01078 2.14299 0.598351 -1.94747 
2.12029 0.645777 -1.9002 2.08792 0.690887 -1.87615 2.04006 0.730576 -1.8611 
1.99469 0.770759 -1.83839 1.93189 0.802988 -1.79523 1.85865 0.83037 -1.7383 
1.60813 0.641108 -2.06571 1.61454 0.732851 -1.98179 1.68926 0.815899 -1.865 
1.75132 0.815544 -1.80203 5.15774 -0.833101 -1.72122 5.08989 -0.84865 -1.67512 
5.03795 -0.875797 -1.65874 4.98569 -0.886716 -1.68569 4.93934 -0.906871 -1.7354 
4.88392 -0.90544 -1.77639 4.82478 -0.904222 -1.78039 4.76003 -0.89797 -1.74709 
4.69731 -0.897579 -1.69179 4.63876 -0.878097 -1.62335 4.59977 -0.840061 -1.54075 
4.56232 -0.794304 -1.43874 5.24138 -0.721412 -1.57895 5.21075 -0.674753 -1.40558 
5.14621 -0.646785 -1.28091 5.07285 -0.622334 -1.20935 5.00429 -0.604232 -1.18272 
4.94329 -0.600154 -1.17915 4.88161 -0.59233 -1.18275 4.82541 -0.598724 -1.18722 
4.76924 -0.605211 -1.19169 4.70829 -0.599288 -1.19541 4.65308 -0.607428 -1.20369 
4.60237 -0.626955 -1.22383 4.55444 -0.665175 -1.26403 5.43632 0.410582 -1.76593 
4.07911 0.135623 -1.80853 4.02726 0.117928 -1.81369 3.9827 0.0694505 -1.7763 
3.93509 0.0190625 -1.70201 4.17825 0.173017 -1.76111 4.22316 0.20085 -1.72574 
4.27398 0.203463 -1.6549 4.19863 0.0688289 -1.575 0.315387 0.318019 -2.0245 
0.428732 0.436669 -2.00626 0.263333 0.45696 -2.00853 0.193832 0.497415 -1.98002 
0.141858 0.533406 -1.90596 0.0732654 0.558581 -1.78182 0.489215 0.549641 -1.88785 
0.487043 0.609327 -1.74862 1.43396 0.934437 -1.78296 1.33815 0.962564 -1.72848 
1.27566 0.957833 -1.70714 1.21876 0.951085 -1.70517 1.15712 0.958815 -1.70878 
1.09737 0.961627 -1.71269 1.03576 0.969254 -1.71631 0.980247 0.961063 -1.72088 
0.928358 0.943461 -1.72603 0.876571 0.923622 -1.7239 0.823147 0.904092 -1.70697 
0.764639 0.891848 -1.66739 0.700841 0.891361 -1.61968 0.646559 0.867949 -1.58079 
0.60256 0.820184 -1.56566 0.55312 0.76866 -1.56614 3.02742 -1.15535 -1.76332 
3.07295 -1.12124 -1.75718 3.11914 -1.08883 -1.75114 3.16007 -1.04474 -1.73699 
3.20545 -1.01617 -1.70898 3.25237 -0.999468 -1.65209 3.29789 -0.987035 -1.56585 
3.34141 -0.977276 -1.45017 2.95214 -1.29018 -1.68343 2.91553 -1.36715 -1.61817 
2.87979 -1.4405 -1.57489 2.84047 -1.50453 -1.53104 2.79567 -1.55435 -1.48632 
2.75613 -1.61584 -1.44972 2.71747 -1.6737 -1.43511 2.67143 -1.70845 -1.43389 
2.62524 -1.74087 -1.43993 2.5838 -1.78559 -1.44672 2.53688 -1.8161 -1.45264 
2.48583 -1.83784 -1.45063 2.43244 -1.85747 -1.4337 2.3739 -1.86962 -1.39412 
2.3094 -1.86829 -1.3463 2.25082 -1.88034 -1.30671 2.19721 -1.89743 -1.29702 
2.14217 -1.90487 -1.30895 2.0821 -1.89532 -1.33465 2.02282 -1.89176 -1.34592 
1.96001 -1.88298 -1.34207 1.89924 -1.88144 -1.33126 1.8388 -1.87489 -1.34234 
1.78939 -1.88907 -1.38428 1.74583 -1.91448 -1.44171 1.68791 -1.9046 -1.48959 
1.62432 -1.8856 -1.51471 1.56549 -1.87786 -1.52558 1.50993 -1.85292 -1.52726 
1.46494 -1.81343 -1.52694 1.40583 -1.77928 -1.52807 1.34098 -1.75786 -1.53071 
1.28038 -1.75057 -1.54174 1.21526 -1.7279 -1.56665 1.14809 -1.694 -1.61308 
1.08078 -1.65776 -1.66678 1.01292 -1.62206 -1.71309 0.943558 -1.58839 -1.73734 
0.873831 -1.55771 -1.74696 0.807176 -1.53697 -1.74978 0.745997 -1.53045 -1.75347 
0.680038 -1.51152 -1.7564 0.614079 -1.49259 -1.75934 0.552487 -1.48667 -1.75565 
0.486096 -1.46719 -1.7362 0.42392 -1.4369 -1.69317 0.374441 -1.40307 -1.62905 
0.311633 -1.38802 -1.53769 0.237748 -1.40425 -1.41009 3.75414 -0.211109 -1.50364 
3.72209 -0.286177 -1.39317 3.67457 -0.33979 -1.29432 3.62579 -0.397312 -1.1959 
3.56646 -0.448788 -1.10018 3.83229 -0.0756503 -1.61309 3.95035 -0.091553 -1.44229 
4.00761 -0.12141 -1.31421 4.05987 -0.122516 -1.24359 4.11483 -0.114863 -1.23165 
4.17333 -0.104557 -1.26394 4.21817 -0.0528931 -1.31594 4.29437 0.0992733 -1.46879 
1.69762 0.877245 -1.7631 -0.249745 0.335633 -1.76412 -0.298207 0.278594 -1.70539 
-0.33642 0.215714 -1.68373 -0.369803 0.147982 -1.68451 -0.406529 0.0880213 -1.68298 
-0.456058 0.0445448 -1.65295 -0.536909 0.0127981 -1.57749 -0.128276 0.442746 -1.78359 
-0.0808902 0.483826 -1.72454 -0.0405069 0.523234 -1.67356 -0.266293 0.466864 -1.67928 
-0.337677 0.484061 -1.52622 -0.403345 0.466568 -1.38325 -0.465983 0.43566 -1.23378 
-0.529504 0.400935 -1.06234 4.44869 -0.765708 -1.37706 4.4055 -0.747895 -1.37851 
4.41371 -0.709745 -1.33734 4.45558 -0.702691 -1.31146 -0.604869 -0.0910804 -1.51676 
-0.565833 -0.170484 -1.51538 -0.559159 -0.236332 -1.44614 -0.572096 -0.306854 -1.34326 
-0.572939 -0.372627 -1.23726 -0.572246 -0.436472 -1.15334 -0.583441 -0.504373 -1.07806 
-0.580431 -0.566892 -1.00132 -0.569145 -0.627171 -0.908908 -0.555654 -0.686166 -0.823679 
-0.541036 -0.743837 -0.753168 -0.522733 -0.79697 -0.734166 -0.499664 -0.845603 -0.759176 
-0.465402 -0.888462 -0.807486 -0.417575 -0.928779 -0.794268 -0.369705 -0.969726 -0.665569 
0.410148 0.727209 -1.5797 0.337032 0.749981 -1.57534 0.27344 0.754966 -1.55697 
0.203886 0.769317 -1.50838 0.133029 0.779276 -1.43045 0.0691813 0.763147 -1.3245 
0.0043625 0.633758 -1.51173 0.00121467 0.683209 -1.37346 3.40195 -0.903692 -1.30537 
3.40658 -0.844564 -1.27753 3.42377 -0.78202 -1.22615 3.44789 -0.717405 -1.16417 
3.46479 -0.654845 -1.10287 3.47052 -0.591721 -1.05225 3.33841 -1.05426 -1.1366 
3.2909 -1.12858 -0.974969 3.24043 -1.18537 -0.849268 3.1961 -1.2502 -0.753667 
3.14796 -1.30317 -0.664742 3.08365 -1.31811 -0.558718 3.0164 -1.32737 -0.444946 
2.94646 -1.32769 -0.338037 2.88049 -1.33239 -0.253593 2.81308 -1.32939 -0.183489 
2.74868 -1.33226 -0.121133 2.68247 -1.33041 -0.0585024 2.62234 -1.34439 0.00318127 
2.56585 -1.36778 0.0642949 2.51048 -1.39212 0.117948 2.45501 -1.41422 0.164333 
2.39646 -1.42637 0.203917 2.33197 -1.42504 0.251721 2.27287 -1.43773 0.298685 
2.21725 -1.45748 0.337809 2.1609 -1.46941 0.355208 2.10376 -1.47534 0.358172 
2.05796 -1.50875 0.35207 2.00965 -1.53566 0.346362 1.95483 -1.54565 0.341678 
1.89396 -1.53993 0.337945 1.83794 -1.54876 0.340734 1.78378 -1.56639 0.357787 
1.7245 -1.57663 0.397487 1.65573 -1.5642 0.445973 1.58743 -1.55103 0.487089 
1.52903 -1.55765 0.504809 1.47231 -1.56468 0.507708 1.41137 -1.55876 0.503986 
1.35585 -1.56695 0.499412 1.30378 -1.58211 0.487011 1.24976 -1.58827 0.460359 
1.19119 -1.57669 0.412582 1.13429 -1.56747 0.357248 1.07075 -1.54298 0.310252 
1.00204 -1.51101 0.285908 0.9317 -1.47872 0.276379 0.86146 -1.44868 0.274119 
0.794845 -1.42805 0.271288 0.734358 -1.42333 0.267495 0.673228 -1.41496 0.256519 
0.619251 -1.42122 0.229861 0.571524 -1.43365 0.162851 0.526077 -1.44657 0.0348385 
0.470676 -1.47738 -0.177423 -0.699432 0.141872 -1.28684 -0.683568 0.210396 -1.15491 
-0.649691 0.251661 -1.06697 -0.619546 0.304436 -0.980141 -0.0151837 0.736039 -0.960061 
-0.0154202 0.692805 -0.682113 3.43529 -0.452271 -0.938178 3.37906 -0.408136 -0.886052 
3.34471 -0.363069 -0.849731 3.32114 -0.314852 -0.819831 3.29899 -0.264971 -0.80956 
3.26816 -0.217933 -0.807597 3.22323 -0.176238 -0.807081 3.19034 -0.131774 -0.775671 
3.16573 -0.085069 -0.728578 3.14282 -0.0377212 -0.681321 3.12145 0.0115554 -0.656147 
3.0994 0.0614744 -0.645865 3.06857 0.108513 -0.643902 3.02353 0.150169 -0.643396 
2.9909 0.196523 -0.641618 2.95826 0.242877 -0.639841 2.91322 0.284533 -0.639335 
2.88229 0.331532 -0.637382 2.85896 0.381414 -0.634649 2.82792 0.428375 -0.632707 
2.78109 0.46935 -0.632386 2.73684 0.510857 -0.624382 2.67737 0.545695 -0.603118 
2.61687 0.579248 -0.567125 2.57049 0.618149 -0.529694 2.52031 0.656511 -0.507465 
2.47716 0.697982 -0.491943 2.42749 0.736987 -0.477078 2.38203 0.777134 -0.454376 
2.32127 0.811935 -0.44066 2.25166 0.843713 -0.43527 2.18152 0.873796 -0.43752 
2.11487 0.894524 -0.440345 2.05318 0.90041 -0.436665 1.98572 0.917309 -0.417522 
1.91743 0.930481 -0.376405 1.85763 0.919596 -0.329331 1.8019 0.900141 -0.290189 
1.74416 0.891829 -0.272572 1.67791 0.907572 -0.260891 1.611 0.92502 -0.249118 
1.54902 0.927711 -0.230835 1.48682 0.934891 -0.227077 1.43109 0.929243 -0.238902 
1.37572 0.926585 -0.265341 1.31083 0.946697 -0.282999 1.24187 0.975381 -0.292746 
1.17595 0.994208 -0.295686 1.11905 0.989622 -0.300043 1.06281 0.98333 -0.304503 
1.00116 0.991061 -0.308114 0.940898 0.993229 -0.304659 0.878269 0.999572 -0.293558 
0.820669 0.988912 -0.26868 0.766076 0.970443 -0.244275 0.7087 0.957229 -0.212148 
0.65002 0.949373 -0.1871 0.601987 0.913019 -0.161315 0.551648 0.881056 -0.142763 
0.492118 0.849816 -0.119816 0.16256 -1.50811 -1.10687 0.209182 -1.56089 -0.941284 
0.281465 -1.58365 -0.724084 0.0656357 -1.37894 -1.21861 0.0220496 -1.32821 -1.19485 
-0.0124849 -1.28173 -1.18325 -0.0578477 -1.24027 -1.1803 -0.0605497 -1.14722 -1.06802 
-0.0253776 -1.12706 -0.929646 0.00148562 -1.12285 -0.755983 0.00905933 -1.11673 -0.561136 
-0.164589 -1.16611 -1.13131 -0.239131 -1.13991 -1.00899 -0.292784 -1.09382 -0.767953 
-0.800254 -0.0660665 -1.09772 -0.593067 0.309139 -0.679749 -0.596392 0.266507 -0.489917 
-0.592809 0.211547 -0.323038 -0.584264 0.150494 -0.201063 -0.580781 0.0887215 -0.131684 
-0.588299 0.0253554 -0.107925 -0.58017 -0.0307355 -0.104802 0.495249 -1.67436 -0.505955 
0.578596 -1.73567 -0.515948 0.64301 -1.7636 -0.464714 0.077591 0.738787 -0.366035 
0.134703 0.786518 -0.348952 0.184197 0.806868 -0.304974 0.231882 0.82179 -0.247187 
0.280933 0.834183 -0.188037 0.33999 0.834138 -0.139218 -0.0566568 -1.05338 -0.340297 
-0.151909 -1.02214 -0.364317 0.0833082 -1.12409 -0.251029 0.147995 -1.16368 -0.160547 
0.21191 -1.20267 -0.0849668 0.266265 -1.24394 -0.0326185 0.298171 -1.29158 -0.0226358 
0.32414 -1.34204 -0.0893319 0.353541 -1.41781 -0.239995 0.0697176 0.578554 -0.127159 
0.1207 0.525451 0.0521224 0.159309 0.477175 0.151464 0.211309 0.453204 0.198699 
0.265644 0.476814 0.234353 0.369679 0.677197 0.0951009 -0.240052 -0.452788 0.254667 
-0.202955 -0.495208 0.216273 -0.166308 -0.538131 0.185259 -0.10897 -0.573064 0.186196 
-0.0468756 -0.597773 0.225626 0.00886079 -0.609614 0.28064 0.0613452 -0.638404 0.326502 
0.105262 -0.679321 0.340885 0.163663 -0.715345 0.334344 0.220818 -0.751512 0.320259 
0.252944 -0.798509 0.325845 0.272021 -0.852245 0.359739 0.287764 -0.908592 0.415543 
1.68215 0.375013 0.512774 1.62017 0.377704 0.531057 1.55797 0.384884 0.534816 
1.50224 0.379236 0.522991 1.44636 0.375935 0.503915 1.37993 0.394119 0.50834 
1.30841 0.419589 0.535405 1.23994 0.435203 0.569267 1.1815 0.428687 0.587003 
1.12478 0.421661 0.589891 1.06434 0.428217 0.578815 1.0104 0.42186 0.552142 
0.961033 0.407574 0.510202 0.911665 0.393288 0.468251 0.857688 0.387025 0.441593 
0.796558 0.395389 0.430617 0.736107 0.400016 0.426818 0.670188 0.418843 0.423878 
0.604229 0.437773 0.420944 0.54334 0.444744 0.412348 0.477173 0.467589 0.38987 
0.40405 0.504156 0.343252 0.346999 -0.418613 0.499713 0.405503 -0.454599 0.493183 
0.472268 -0.48719 0.517348 0.535566 -0.509372 0.557072 0.588372 -0.509927 0.620324 
0.639498 -0.510064 0.698407 0.695549 -0.524958 0.78299 0.751901 -0.534719 0.845683 
0.815737 -0.556024 0.878076 0.879979 -0.57444 0.895837 0.935754 -0.571179 0.914912 
0.989261 -0.569342 0.941151 1.04161 -0.593878 0.950105 1.07325 -0.637086 0.926164 
1.08656 -0.686609 0.855691 
LINES 67 767
4 51 71 72 49 
4 51 73 74 50 
3 50 75 48 
8 50 76 77 78 79 80 81 49 
7 48 82 83 84 85 86 45 
3 48 87 38 
11 49 88 89 90 91 92 93 94 95 96 29 
3 48 97 38 
9 47 98 99 100 101 102 103 104 39 
20 43 108 109 110 111 112 113 114 115 116 117 118 119 120 121 122 123 124 125 42 
4 45 126 127 32 
41 44 128 129 130 131 132 133 134 135 136 137 138 139 140 141 142 143 144 145 146 147 148 149 150 151 152 153 154 155 156 157 158 159 160 161 162 163 164 165 166 33 
7 43 167 168 169 170 171 41 
5 43 172 173 174 40 
11 42 175 176 177 178 179 180 181 182 183 40 
10 42 184 185 186 187 188 189 190 191 34 
4 38 192 193 32 
10 41 214 215 216 217 218 219 220 221 27 
4 40 222 223 26 
4 26 224 225 27 
14 39 226 227 228 229 230 231 232 233 234 235 236 237 21 
15 39 238 239 240 241 242 243 244 245 246 247 248 249 250 21 
3 38 251 32 
6 37 252 253 254 255 30 
5 37 256 257 258 29 
3 37 259 24 
3 36 260 35 
3 35 261 34 
6 35 262 263 264 265 22 
4 34 266 267 23 
18 26 268 269 270 271 272 273 274 275 276 277 278 279 280 281 282 283 23 
10 33 284 285 286 287 288 289 290 291 20 
51 33 292 293 294 295 296 297 298 299 300 301 302 303 304 305 306 307 308 309 310 311 312 313 314 315 316 317 318 319 320 321 322 323 324 325 326 327 328 329 330 331 332 333 334 335 336 337 338 339 340 17 
7 31 341 342 343 344 345 18 
3 31 346 30 
8 30 347 348 349 350 351 352 24 
3 29 353 24 
3 27 354 26 
9 25 355 356 357 358 359 360 361 15 
5 25 362 363 364 22 
7 25 365 366 367 368 369 14 
6 21 370 371 372 373 21 
18 15 374 375 376 377 378 379 380 381 382 383 384 385 386 387 388 389 8 
8 23 390 391 392 393 394 395 19 
4 22 396 397 19 
8 20 398 399 400 401 402 403 18 
52 20 404 405 406 407 408 409 410 411 412 413 414 415 416 417 418 419 420 421 422 423 424 425 426 427 428 429 430 431 432 433 434 435 436 437 438 439 440 441 442 443 444 445 446 447 448 449 450 451 452 453 9 
6 15 454 455 456 457 14 
4 19 458 459 10 
62 18 460 461 462 463 464 465 466 467 468 469 470 471 472 473 474 475 476 477 478 479 480 481 482 483 484 485 486 487 488 489 490 491 492 493 494 495 496 497 498 499 500 501 502 503 504 505 506 507 508 509 510 511 512 513 514 515 516 517 518 519 6 
5 17 520 521 522 9 
6 17 523 524 525 526 16 
6 16 527 528 529 530 11 
5 16 531 532 533 8 
3 15 534 13 
9 14 535 536 537 538 539 540 541 7 
5 9 542 543 544 12 
8 10 545 546 547 548 549 550 6 
4 11 551 552 8 
9 11 553 554 555 556 557 558 559 9 
7 10 560 561 562 563 564 3 
3 6 565 3 
15 5 566 567 568 569 570 571 572 573 574 575 576 577 578 2 
24 4 579 580 581 582 583 584 585 586 587 588 589 590 591 592 593 594 595 596 597 598 599 600 3 
17 1 601 602 603 604 605 606 607 608 609 610 611 612 613 614 615 0 
25 51 52 53 54 55 56 57 58 59 60 61 62 63 64 65 66 67 68 69 70 46 105 106 107 45 
23 31 210 209 208 207 206 205 204 203 202 201 200 199 198 197 196 195 194 28 211 212 213 41 

POINT_DATA 616
SCALARS DY_raw double
LOOKUP_TABLE default
979.844 1515.03 1265.82 1884.63 1272.81 1787.19 1618.42 1390.06 1489.86 
1572.48 1437.12 1335.02 1587.42 1155.88 1314.84 984.682 1217.46 1336.76 
1317.92 1138.64 1639.62 1594.69 1335.75 1551.08 2062.37 1021.79 1638.18 
1992.57 1179.12 2040.29 1465.2 1335.13 1457.19 1084.16 1327.58 1132.22 
1049.36 1265.17 1297.08 1071.52 1186.14 950.015 1311.6 1115.36 1461.07 
1194.92 1219.15 1587.65 1076.29 827.731 930.042 1094.83 1140.99 1117.41 
1113.52 1025.26 1025.26 971.51 1040.59 1192.29 1199.42 1199.42 1198.96 
1118.09 1095.61 1095.61 1056.43 1033.95 1026.04 1086.63 1166.38 1090.07 
1138.5 1033.03 954.872 1008.46 1149.46 1331.3 1254.91 1235.63 1235.63 
1023.69 1030.84 1095.46 1146.05 1275.94 1270.75 1341.09 937.638 1000.2 
1333.93 1799.8 1681.94 1864.08 1589.5 1667.47 1871.41 1497.46 1310.17 
1275.4 1099.92 1115.58 1169.99 1149.66 1112.07 1303.2 1327.21 1249.64 
1061.26 1019.27 1116.67 1242.17 1357.28 1357.28 1388.85 1481.27 1481.27 
1417.04 1352.63 1425.93 1320.5 1295.31 1329.98 1424.32 1326.12 1347.51 
1303.22 1406.7 1270.33 1283.91 1284.66 1175.1 1136.58 1136.69 1233.47 
1083.47 1185.72 1127.31 1095.04 1219.36 1323.82 1397.65 1382.74 1267.16 
1337.99 1337.99 1291.61 1287.26 1399.66 1439.93 1550.68 1550.68 1586.04 
1437.24 1437.24 1462.96 1648.62 1558.06 1625.1 1729.55 1526.18 1406.26 
1216.54 1158.04 1020.08 1152.5 1083.97 1031.76 975.001 946.524 768.205 
879.516 1273.11 1434.31 1329.49 1322.16 1317.06 1169.16 1268.97 1267.61 
1292.65 1292.65 1150.31 1112.43 1573.39 1748.34 1795.08 1700.93 1733.76 
1567.86 1223.82 1366.2 1141.31 1225.73 1074.16 1059.66 1109.38 1183.3 
1195.43 1233.05 1142.42 1302.01 1339.99 1317.22 1573.87 1518.06 1328.91 
1475.54 1393.2 1457.71 1369.08 1210.19 1048.42 1007.35 1071.39 1155.95 
1218.4 1243.49 1335.75 1371.78 1386.3 1548.37 1191.88 1368.34 1632.73 
1656.71 1148.26 1225.67 1299.25 1391.35 1388.09 1303.14 1351.04 1415.31 
1489.17 1516.63 1678.36 1603.71 1496.63 1731.73 1838.84 1884.81 1924.01 
1877.85 1735.74 1895.72 1792.01 1719.09 1703.45 1729.63 1655.3 1228.5 
1265.17 1373.75 1512.6 1491.98 1327.5 1387.83 1537.89 1295.59 1081.95 
1184.54 1210.5 1215.28 1251.48 1263.49 1335.42 1404.59 1604.71 1656.09 
1609.01 1446.58 1446.58 1444.4 1423.2 1423.2 1466.39 1586.98 1755.08 
1610.07 1739.11 1580.24 1656.16 1554.94 1204.57 1178.58 1304.4 1270.39 
1218.17 1327.87 1376.63 1500.22 1291.51 1346.71 1381.87 1574.44 1648.38 
1809.65 1502.1 1478.98 1347.16 1390.53 1390.53 1434.1 1601.33 1712.27 
1732.91 1550.36 1788.44 1642.86 1469.15 1632.87 1542.73 1686.07 1686.07 
1538.64 1434.67 1414.8 1344.88 1450.36 1560.96 1459.67 1552.06 1658.2 
1872.88 1740.32 1656.02 1557.63 1547.73 1566.11 1562.94 1676.65 1382.55 
1305.79 1305.79 1223.21 1173.91 1280.34 1290.51 1506.58 1591.45 1325.01 
1349.28 1411.92 1459.3 1364.83 1396.14 1766.43 1736.65 2038.84 1761.1 
1628.17 1718.03 1744.4 1862.3 1076.12 1120.48 1256.23 1126.64 1096.21 
1169.58 1163.72 1104.18 1208.25 1249.46 1183.1 1281.09 1334.35 1217.12 
1197.98 1558.16 1455.61 1513.75 1578.61 1050.04 1073.08 1231 1146.35 
1358.94 1200.48 1167.82 1231.96 1289.44 1112.66 1113.44 1307.29 1309.68 
1303.11 1297.88 1372.86 1465.58 1445.98 1476.05 1399.07 1515.31 1385.57 
1176.51 1221.58 1735.33 1775.37 1810.1 1412.31 1263.04 1193.01 1840.57 
1755.37 1533.54 1623.74 1287.95 1217.39 1445.64 1251.32 1521.61 1443.27 
1394.88 1716.42 1486.85 1436.63 1604.89 1511 1602.63 1757.33 1841.1 
2093.94 2044.24 1821.34 1821.34 1734.04 1567.86 1567.86 1499.97 1741.84 
1741.84 1901.92 2189.77 2283.69 2120.85 2120.85 1852.95 1992.18 1860.26 
1642.62 1605.98 1781.76 1637.87 1540.7 1601.48 1693.82 1871.29 1983.82 
1948.7 1722.78 1680.78 1592.61 1084.19 1118.37 1037.59 1085.94 1354.79 
1222.45 1221.6 1309.86 1449.9 1477.41 1339.07 1339.07 1320.82 1256.11 
1307.21 1355.32 1306.74 1306.74 1302.64 1346.57 1346.57 1374.63 1374.63 
1462.95 1481.44 1481.44 1599.34 1800.95 1966.91 1870.34 1760.97 1909.4 
1620.14 1683.74 1540.29 1748.68 1615.27 1703.41 1594.81 1682.62 1582.75 
1520.26 1652.34 1451.29 1254.1 1498.53 1260.22 1324.24 1324.24 1404.19 
1404.19 1472.86 1474.81 1591.9 1634.23 1629.85 1629.85 1381.06 1310.17 
1310.17 1591.31 1848.43 1848.43 2082.73 1974.25 1785.77 1255.08 1426.86 
1556.63 1266.68 1383.55 1309.5 1331.98 1300.57 1315.67 1286.73 1183.67 
1238.12 1264.3 1221.52 1137.9 1499.23 1535.52 1484.38 1502.62 1418.26 
1516.32 1375.65 1633.38 1522.14 1382.78 1537.1 1427.17 1399.68 1303.08 
1398.02 1604.77 1454.06 1510.75 1301.9 1380.04 1521.08 1574.45 1598.72 
1537.62 1473.95 1519.24 1573.82 1637.91 1442.32 1515.05 1765.69 1555.33 
1539.71 1359.25 1372.5 1404.23 1355.82 1295.44 1175.68 1175.68 1006.21 
996.167 996.167 1135.64 1160.28 1386.7 1252.33 1403.6 1387.32 1510.01 
1510.01 1632.76 1523.07 1602.71 1462.82 1382.34 1379.07 1385.04 1315.53 
1315.53 1459.87 1459.87 1518.63 1590.21 1722.07 1777.83 1159.96 1221.53 
1116.13 1072.08 1173.86 1246.76 1333.55 1317.87 1468.68 1360.97 1316.26 
1431.45 1363.97 1252.87 1153.96 
FIELD FieldData 7
DY_minmax 1 616 double
0.139651 0.492794 0.328354 0.736676 0.332967 0.672377 0.561018 0.410331 0.476187 
0.530704 0.441386 0.374014 0.540559 0.255806 0.3607 0.142843 0.296443 0.375164 
0.362732 0.24443 0.575007 0.545359 0.374499 0.516584 0.853961 0.167331 0.574057 
0.807902 0.271144 0.839387 0.459917 0.374087 0.454626 0.208484 0.369107 0.240197 
0.185519 0.327924 0.348979 0.200142 0.275773 0.119968 0.35856 0.229073 0.45719 
0.281572 0.297559 0.540712 0.203289 0.0392785 0.106789 0.215523 0.245981 0.230424 
0.227858 0.169619 0.169619 0.134151 0.179737 0.279831 0.284535 0.284535 0.284236 
0.230871 0.216038 0.216038 0.190188 0.175356 0.170135 0.210117 0.262737 0.212385 
0.244343 0.174744 0.123173 0.158533 0.25157 0.371559 0.321151 0.308429 0.308429 
0.168586 0.173302 0.215938 0.249323 0.33503 0.331606 0.378021 0.111801 0.15308 
0.373298 0.680703 0.602929 0.723116 0.541932 0.593382 0.727951 0.481204 0.357614 
0.334673 0.218885 0.229219 0.265121 0.251704 0.226901 0.353018 0.368858 0.317678 
0.193376 0.165667 0.229937 0.31275 0.388702 0.388702 0.409534 0.470518 0.470518 
0.428135 0.385632 0.434003 0.364433 0.347813 0.37069 0.432941 0.368142 0.382254 
0.353031 0.421314 0.331327 0.340292 0.340787 0.268494 0.243071 0.243143 0.307005 
0.208029 0.275501 0.236958 0.215662 0.297695 0.366623 0.415343 0.405502 0.329235 
0.375974 0.375974 0.345369 0.342503 0.416666 0.44324 0.516321 0.516321 0.539651 
0.441468 0.441468 0.458438 0.580945 0.521186 0.565425 0.634345 0.500149 0.421025 
0.295837 0.257235 0.166204 0.25358 0.208361 0.17391 0.136455 0.117664 0 
0.0734493 0.333163 0.439531 0.370365 0.365527 0.362165 0.264569 0.330433 0.329537 
0.346056 0.346056 0.252132 0.227135 0.531307 0.646746 0.677589 0.615464 0.637123 
0.527653 0.300639 0.394586 0.246193 0.301899 0.201884 0.19232 0.225123 0.273901 
0.281906 0.306732 0.246927 0.352235 0.377294 0.362266 0.53162 0.494793 0.369981 
0.466739 0.412402 0.454969 0.396492 0.291647 0.184901 0.157799 0.200059 0.255856 
0.297062 0.313616 0.374495 0.398268 0.407854 0.514798 0.279564 0.395999 0.570462 
0.586281 0.250782 0.301859 0.350409 0.411184 0.409031 0.35298 0.384587 0.426995 
0.475733 0.493853 0.600568 0.551312 0.480652 0.635783 0.706464 0.736792 0.762662 
0.7322 0.638434 0.743996 0.675558 0.627448 0.617122 0.634398 0.585355 0.303728 
0.327924 0.399571 0.491195 0.477583 0.369053 0.408859 0.50788 0.347999 0.207024 
0.274721 0.291849 0.295002 0.318889 0.326814 0.374278 0.419923 0.551972 0.585872 
0.55481 0.447625 0.447625 0.446188 0.432199 0.432199 0.460699 0.540271 0.651191 
0.555507 0.640655 0.535821 0.585917 0.519126 0.287935 0.270789 0.353811 0.331369 
0.296909 0.369295 0.401472 0.483023 0.345305 0.381728 0.404927 0.531997 0.580783 
0.687199 0.484264 0.469008 0.382028 0.410642 0.410642 0.439391 0.549741 0.622946 
0.636563 0.516105 0.673208 0.577144 0.462518 0.570553 0.511072 0.605657 0.605657 
0.508376 0.439772 0.42666 0.380524 0.450122 0.523102 0.456264 0.517227 0.587266 
0.728925 0.64145 0.585831 0.520904 0.514374 0.526502 0.524405 0.599438 0.405375 
0.354725 0.354725 0.300235 0.267709 0.337934 0.344643 0.487218 0.543221 0.367406 
0.383425 0.424755 0.456022 0.393682 0.414348 0.658684 0.639031 0.838433 0.655165 
0.567449 0.626746 0.644148 0.721945 0.20318 0.232448 0.322022 0.236511 0.216438 
0.264846 0.260979 0.221694 0.290365 0.317559 0.273769 0.338428 0.373572 0.296217 
0.28359 0.521252 0.453587 0.491949 0.534751 0.185971 0.201171 0.305374 0.249522 
0.389798 0.28524 0.263689 0.306008 0.343938 0.227287 0.227802 0.355719 0.357291 
0.352956 0.349509 0.398985 0.460165 0.447233 0.467073 0.416278 0.492982 0.407368 
0.269425 0.299161 0.638161 0.664582 0.687496 0.425018 0.326521 0.280312 0.707603 
0.651385 0.505011 0.564528 0.342956 0.296396 0.447009 0.318784 0.497136 0.445447 
0.413515 0.625684 0.474198 0.441062 0.552092 0.490138 0.550597 0.652674 0.707951 
0.87479 0.841994 0.694914 0.694914 0.637309 0.527656 0.527656 0.48286 0.642459 
0.642459 0.748085 0.938024 1 0.892544 0.892544 0.715773 0.807644 0.720595 
0.576982 0.552811 0.668794 0.573854 0.509735 0.549839 0.610771 0.727873 0.802126 
0.778951 0.629878 0.602168 0.543989 0.208506 0.231055 0.177756 0.209661 0.387059 
0.299737 0.299174 0.357413 0.449821 0.467973 0.376689 0.376689 0.364642 0.321948 
0.355667 0.387412 0.355354 0.355354 0.352652 0.381634 0.381634 0.400148 0.400148 
0.458432 0.470632 0.470632 0.548429 0.681457 0.790968 0.727246 0.655078 0.75302 
0.562153 0.604122 0.509461 0.646968 0.55894 0.617099 0.545439 0.603378 0.537479 
0.496246 0.583399 0.450739 0.320619 0.481907 0.324659 0.366904 0.366904 0.419656 
0.419656 0.464968 0.466253 0.543515 0.571451 0.568561 0.568561 0.404397 0.357621 
0.357621 0.543129 0.712791 0.712791 0.867393 0.79581 0.671447 0.321268 0.434616 
0.520248 0.328918 0.406041 0.357178 0.372011 0.351282 0.361247 0.342149 0.274146 
0.310074 0.327353 0.299119 0.243943 0.482372 0.506315 0.472568 0.484608 0.428939 
0.493645 0.400827 0.570888 0.497489 0.405531 0.507355 0.434823 0.416678 0.352939 
0.415582 0.552011 0.452563 0.489972 0.352161 0.403721 0.496785 0.532001 0.548021 
0.507698 0.46569 0.495571 0.53159 0.573875 0.444817 0.492806 0.658193 0.519388 
0.50908 0.39 0.398749 0.419682 0.387739 0.347896 0.268873 0.268873 0.157048 
0.150422 0.150422 0.242455 0.258712 0.408118 0.319453 0.419264 0.408527 0.489483 
0.489483 0.570481 0.498098 0.550651 0.458345 0.405236 0.40308 0.407021 0.361154 