# vtk DataFile Version 3.0
vtk output
ASCII
DATASET POLYDATA
POINTS 580 float
1.15647 -0.138226 0.848258 0.846395 -0.163679 0.84574 1.74961 -0.214416 0.657738 
0.72173 -0.484896 0.222902 0.377545 -0.262247 0.310492 -0.19525 0.0753739 0.157528 
-0.509991 0.295282 -0.148092 -0.385504 0.0567125 -0.101268 5.9929 -0.0146885 -0.102707 
4.38794 0.0485159 -0.123275 -0.636586 0.415878 -0.194215 5.92578 0.348806 -0.317675 
4.62586 0.212962 -0.458692 4.37752 0.195719 -0.329243 4.16597 0.251064 -0.467209 
4.06745 0.170265 -0.331761 1.51236 1.8321 -0.424838 -0.295378 1.4126 -0.629204 
5.92854 0.653063 -0.529563 6.12852 0.398463 -0.797693 1.72465 -1.04901 -0.644701 
1.4199 -0.834809 -0.522982 4.99344 0.815335 -0.746557 6.08757 -0.470843 -0.970438 
4.50982 0.380448 -0.86865 -0.887707 0.683471 -0.807878 5.64108 0.881316 -1.07539 
6.32045 -0.123404 -0.895455 6.46452 -0.688425 -1.39241 6.34621 -0.960448 -1.2131 
6.01505 -0.921809 -0.86805 4.30792 0.439137 -1.0829 -0.0897537 1.44291 -1.02838 
1.65305 -1.26039 -0.904227 -0.830856 0.485273 -0.999739 4.29395 0.82008 -1.15496 
4.34651 0.664475 -1.24844 2.70218 -0.456007 -1.23668 2.54119 -0.649512 -1.11797 
5.94754 -1.23956 -1.35694 5.59019 -1.17395 -1.26343 2.87011 -0.357479 -1.3257 
-0.658637 0.327629 -1.39203 5.38312 -1.4848 -1.45392 1.20316 1.91524 -1.63251 
5.87402 1.12102 -1.74924 5.81414 0.905511 -1.80831 5.81992 0.682403 -1.86633 
6.71737 -0.603351 -1.67307 4.35863 0.456537 -1.84075 2.18354 -0.822205 -1.78254 
1.21989 -1.13262 -1.7147 6.56602 0.0799834 -2.09318 6.12656 0.202258 -2.2363 
6.215 -1.1204 -1.85893 1.76478 -1.0958 -1.91014 -0.409055 0.675316 -2.00313 
5.65864 0.93156 -2.14467 6.3177 -0.924916 -2.06548 3.90739 0.397885 -2.14382 
3.83228 -0.115169 -2.12485 2.52231 0.635105 -2.16863 5.46609 -0.18655 -2.37052 
5.85861 -0.0426252 -2.50509 5.62334 -0.0152174 -2.64225 5.57372 0.121037 -2.71479 
5.70824 -0.569765 -2.68658 5.66632 -0.534215 -2.68843 5.62439 -0.498666 -2.69027 
5.58245 -0.462746 -2.68472 5.5415 -0.424525 -2.65948 5.5073 -0.374453 -2.59755 
5.4867 -0.294139 -2.4971 5.6056 0.0671453 -2.68023 5.70346 -0.0441382 -2.60563 
5.78154 -0.0490722 -2.56008 5.56822 -0.0730894 -2.52202 5.5299 -0.134334 -2.43113 
5.9039 -0.00593246 -2.41425 5.96247 0.0254967 -2.32956 6.02831 0.0878355 -2.26913 
5.87413 -0.103883 -2.39876 5.906 -0.146276 -2.30039 5.94537 -0.17946 -2.19488 
5.9844 -0.2115 -2.05975 6.01534 -0.250729 -1.87573 6.02998 -0.309603 -1.63394 
6.04755 -0.382467 -1.32592 5.41128 -0.222673 -2.14487 5.37757 -0.266428 -1.9434 
5.37058 -0.328761 -1.78291 5.37526 -0.398313 -1.65168 5.39071 -0.459877 -1.55275 
5.43055 -0.494037 -1.47685 5.48957 -0.507527 -1.43859 5.54793 -0.522574 -1.41511 
5.61734 -0.524603 -1.392 5.69195 -0.519751 -1.35428 5.76118 -0.521054 -1.31638 
5.8195 -0.532751 -1.28138 5.88289 -0.525412 -1.22694 5.95958 -0.497081 -1.12232 
6.00946 0.331108 -2.21944 5.942 0.401406 -2.21087 5.9039 0.450735 -2.21691 
5.87942 0.507243 -2.21969 5.84696 0.555321 -2.17495 5.82034 0.6083 -2.05128 
6.25659 0.0456857 -2.33165 6.28994 -0.0458525 -2.37499 6.29256 -0.118332 -2.36104 
6.28831 -0.185746 -2.3242 6.27366 -0.244412 -2.29244 6.27174 -0.31127 -2.25281 
6.28357 -0.37582 -2.18347 6.30632 -0.428312 -2.06701 6.3236 -0.492592 -1.89678 
6.36337 -0.575973 -1.66627 6.35468 0.146154 -2.16577 6.47981 0.110887 -2.11573 
2.59702 0.646863 -2.06446 2.6629 0.665682 -1.97548 2.70821 0.701504 -1.90221 
2.74305 0.745991 -1.83683 2.76725 0.799717 -1.76449 2.77048 0.871505 -1.67826 
2.76328 0.950182 -1.5776 2.74816 1.02213 -1.48417 2.72215 1.08026 -1.41259 
2.69841 1.13992 -1.36327 2.6625 1.18525 -1.31353 2.61485 1.21674 -1.26338 
2.56394 1.24402 -1.22054 2.53928 1.30105 -1.20078 2.52118 1.36505 -1.19604 
2.48697 1.40969 -1.19816 2.4399 1.43918 -1.19983 2.38833 1.46298 -1.20875 
2.35638 1.50913 -1.23313 2.32018 1.54911 -1.27956 2.2723 1.57496 -1.333 
2.21342 1.58824 -1.37865 2.16412 1.61356 -1.40984 2.1212 1.64641 -1.44125 
2.07846 1.67869 -1.48746 2.02933 1.70307 -1.54086 1.96922 1.71451 -1.59387 
1.91229 1.7301 -1.63959 1.85093 1.74007 -1.69256 1.79402 1.75528 -1.74569 
1.7325 1.76545 -1.79126 1.67408 1.78042 -1.81473 1.60568 1.78441 -1.82308 
1.53711 1.78897 -1.81661 1.47818 1.80565 -1.79568 1.41566 1.81926 -1.75244 
1.35765 1.83856 -1.70194 1.29645 1.85372 -1.65874 1.24649 1.88096 -1.63812 
3.88325 -0.140073 -2.12331 3.94416 -0.153648 -2.12951 4.00309 -0.170326 -2.15044 
4.07333 -0.174846 -2.19395 4.15018 -0.172171 -2.25249 4.22691 -0.167218 -2.31854 
4.29593 -0.155367 -2.37753 4.35167 -0.131618 -2.41488 4.40946 -0.108735 -2.42252 
4.45258 -0.0727784 -2.4086 4.48031 -0.023765 -2.39535 4.49362 0.0374648 -2.38274 
4.50924 0.0966002 -2.37002 4.51042 0.165877 -2.34303 4.49617 0.23296 -2.30873 
4.46389 0.283006 -2.248 4.42953 0.333249 -2.15396 4.40099 0.397402 -2.0122 
3.95518 0.42945 -2.1445 4.02214 0.444772 -2.14434 4.09804 0.452831 -2.13267 
4.17614 0.459993 -2.08758 4.26045 0.463502 -1.98669 6.35591 -0.818535 -1.73408 
6.3417 -0.943584 -1.64748 6.25468 -0.945299 -2.12472 6.21909 -0.986997 -2.11609 
6.21214 -1.0504 -2.01735 6.60317 0.0140365 -2.08743 6.6359 -0.0394661 -2.09054 
6.66719 -0.0886056 -2.09201 6.68248 -0.155658 -2.09109 6.69005 -0.23128 -2.08067 
6.69613 -0.307515 -2.048 6.70171 -0.382404 -1.97833 6.70695 -0.456148 -1.87904 
6.71212 -0.529607 -1.77236 5.73549 0.929478 -1.97569 -0.333162 0.674768 -2.09863 
-0.271562 0.658542 -2.17144 -0.237599 0.610923 -2.2211 -0.202737 0.564364 -2.2708 
-0.169188 0.516257 -2.32047 -0.145605 0.456801 -2.36238 -0.118855 0.402226 -2.38221 
-0.0956063 0.343913 -2.39452 -0.062392 0.296951 -2.41457 -0.0277493 0.250517 -2.45686 
0.00363785 0.199865 -2.50645 0.0481494 0.165054 -2.54908 0.0792859 0.11526 -2.57646 
0.113762 0.0693987 -2.60395 0.147362 0.0217387 -2.64621 0.173605 -0.0349714 -2.69561 
0.217288 -0.0707588 -2.73822 0.283512 -0.0788482 -2.7594 0.352009 -0.0834931 -2.76586 
0.411939 -0.0978422 -2.76463 0.481744 -0.100562 -2.76373 0.558013 -0.0956697 -2.76306 
0.63546 -0.0893899 -2.76243 0.712979 -0.0830265 -2.7618 0.790497 -0.076663 -2.76117 
0.868016 -0.0702993 -2.76054 0.945534 -0.063936 -2.75991 1.02305 -0.0575723 -2.75928 
1.1005 -0.0512927 -2.75865 1.17677 -0.0463999 -2.75798 1.24649 -0.0488343 -2.74968 
1.30632 -0.0625349 -2.73365 1.3758 -0.0644809 -2.71055 1.45074 -0.0607729 -2.70243 
1.52055 -0.0638704 -2.70894 1.5808 -0.0789942 -2.72992 1.6507 -0.08237 -2.74382 
1.7258 -0.0792341 -2.75051 1.79553 -0.0820458 -2.74961 1.85538 -0.0961015 -2.74098 
1.92361 -0.0995257 -2.71784 1.99034 -0.103563 -2.67245 2.04056 -0.126262 -2.6117 
2.08299 -0.157759 -2.54328 2.12291 -0.192213 -2.47477 2.15505 -0.235827 -2.40601 
2.16967 -0.300292 -2.34405 2.17535 -0.373236 -2.29668 2.17242 -0.442052 -2.27181 
2.15786 -0.501154 -2.24745 2.15458 -0.569081 -2.19545 2.15889 -0.642785 -2.09123 
2.16761 -0.724227 -1.94713 -0.42575 0.740578 -2.00584 -0.458636 0.786774 -2.008 
-0.498005 0.825719 -2.00253 -0.531142 0.872988 -1.97508 -0.547046 0.939875 -1.90371 
-0.553116 1.00225 -1.78757 -0.547343 1.0379 -1.64803 -0.522441 1.0767 -1.53064 
-0.490488 1.12153 -1.45046 -0.463091 1.17176 -1.4002 -0.438238 1.22428 -1.35006 
-0.38415 1.25224 -1.29122 -0.330407 1.28098 -1.21018 -0.308099 1.33514 -1.08599 
-0.293909 1.38284 -0.887507 -0.463343 0.652052 -1.90647 -0.480774 0.597752 -1.80078 
-0.487891 0.534491 -1.70204 -0.506138 0.479807 -1.63342 -0.529052 0.42822 -1.59461 
-0.576527 0.397459 -1.55689 -0.620487 0.364576 -1.4894 1.84032 -1.08691 -1.87997 
1.90678 -1.07009 -1.8428 1.95276 -1.03613 -1.81394 1.9913 -0.996492 -1.80763 
2.03619 -0.962663 -1.81831 2.09281 -0.936866 -1.82114 2.13978 -0.892058 -1.80752 
6.28422 -1.06664 -1.54701 6.1494 -1.13669 -1.84792 6.09945 -1.16674 -1.76578 
6.0408 -1.20221 -1.59085 6.0623 0.266014 -1.87086 6.06026 0.32298 -1.51706 
6.08958 0.369398 -1.16342 5.81957 0.796764 -1.8411 1.17673 -1.09892 -1.72391 
1.12734 -1.07331 -1.7477 1.06839 -1.06011 -1.79335 1.01926 -1.03573 -1.84675 
0.975269 -1.00492 -1.89291 0.924553 -0.980877 -1.91665 0.857478 -0.975326 -1.92504 
0.790321 -0.969489 -1.92602 0.739354 -0.944585 -1.92756 0.694787 -0.912145 -1.92932 
0.643821 -0.887241 -1.93085 0.576663 -0.881404 -1.93184 0.509505 -0.875567 -1.93282 
0.45861 -0.850579 -1.93436 0.415292 -0.816668 -1.93616 0.372117 -0.782589 -1.93797 
0.323726 -0.754653 -1.93959 0.271995 -0.730648 -1.94111 0.239873 -0.683553 -1.94329 
0.204341 -0.640475 -1.94535 0.16226 -0.604723 -1.93979 0.112523 -0.577601 -1.92658 
0.0528223 -0.56183 -1.90563 0.0030986 -0.535078 -1.89981 -0.0400767 -0.500999 -1.90161 
-0.0821454 -0.465617 -1.90345 -0.125655 -0.430394 -1.87565 -0.175796 -0.402212 -1.83282 
-0.235832 -0.385297 -1.78226 -0.28589 -0.357401 -1.74685 -0.3294 -0.322178 -1.71904 
-0.371493 -0.286056 -1.70608 -0.412409 -0.248547 -1.69317 -0.44805 -0.204443 -1.67303 
-0.479341 -0.154447 -1.63826 -0.523698 -0.119837 -1.60303 -0.553572 -0.068943 -1.58309 
-0.581262 -0.016243 -1.57803 -0.603166 0.0428848 -1.58056 -0.628357 0.0985264 -1.57558 
-0.64281 0.167966 -1.54877 -0.651145 0.246532 -1.48519 2.27861 -0.811883 -1.72009 
2.36024 -0.800813 -1.64545 2.42703 -0.781814 -1.55401 2.47196 -0.744248 -1.43386 
2.50744 -0.697932 -1.28698 4.3493 0.421134 -1.46352 4.37047 0.56814 -1.54469 
6.36214 -0.82192 -1.30946 6.52992 -0.664649 -1.61648 6.59517 -0.646823 -1.7469 
6.65133 -0.621773 -1.75169 6.62856 -0.643257 -1.5302 5.90432 0.665066 -1.70409 
5.96773 0.6467 -1.58405 5.9996 0.60166 -1.49101 6.0279 0.55185 -1.35483 
6.06174 0.484623 -1.11907 5.74261 0.934309 -1.56558 5.68964 0.920286 -1.321 
5.83581 0.994241 -1.77937 5.84929 1.06766 -1.75981 5.37817 -1.40787 -1.43471 
5.38223 -1.33857 -1.4151 5.40716 -1.2871 -1.40198 5.4439 -1.24373 -1.381 
5.49898 -1.20493 -1.33739 5.84008 -1.2199 -1.34038 5.75155 -1.21439 -1.31565 
5.67108 -1.20528 -1.28726 -0.71725 0.345451 -1.35631 -0.751392 0.394011 -1.28444 
-0.78834 0.44196 -1.16068 2.77775 -0.42875 -1.28321 2.83133 -0.397086 -1.31164 
5.59456 -1.08832 -1.25927 5.62028 -1.03134 -1.23895 5.66291 -0.993208 -1.19546 
5.72002 -0.96798 -1.14389 5.77481 -0.940838 -1.09243 5.84335 -0.925357 -1.04036 
5.92383 -0.919358 -0.965553 5.97915 -1.18798 -1.14729 6.00283 -1.12868 -0.989929 
6.00983 -1.04177 -0.904246 4.32129 0.566626 -1.16551 2.57683 -0.607701 -1.12474 
2.61263 -0.56456 -1.14453 2.65052 -0.513376 -1.185 2.50359 -0.684775 -0.94652 
2.46486 -0.719721 -0.797337 2.41876 -0.749281 -0.678099 2.36013 -0.769298 -0.596442 
2.30578 -0.7938 -0.544216 2.24774 -0.816033 -0.521775 2.20142 -0.848637 -0.513622 
2.15526 -0.881591 -0.51287 2.09888 -0.905872 -0.512568 2.05272 -0.939042 -0.519224 
2.00534 -0.971607 -0.540738 1.94028 -0.989808 -0.582773 1.87292 -1.00689 -0.624888 
1.80994 -1.03229 -0.646856 4.40842 0.391899 -0.981088 4.40832 0.690327 -1.09677 
4.44758 0.670604 -0.936171 4.46259 0.612313 -0.790423 4.47045 0.53945 -0.71462 
4.48378 0.461175 -0.748514 4.32705 0.759358 -1.20043 6.21406 -0.942013 -1.0763 
6.11137 -0.932729 -0.961057 6.47098 -0.966088 -1.12882 6.52571 -0.928863 -1.11221 
6.5178 -0.838077 -1.20774 6.39467 -0.818664 -1.29439 6.53351 -0.586082 -1.07829 
6.52378 -0.529072 -0.847828 6.50571 -0.463323 -0.728994 6.4966 -0.387192 -0.690526 
6.48872 -0.311165 -0.686137 6.47336 -0.244612 -0.696298 6.43933 -0.199199 -0.728092 
6.38945 -0.162218 -0.796798 5.55605 0.864824 -1.10043 5.49131 0.873896 -1.0941 
5.42777 0.88694 -1.03849 5.36917 0.907725 -0.946046 5.30615 0.92326 -0.85098 
5.24812 0.94033 -0.785581 5.18722 0.936503 -0.756467 5.13306 0.913081 -0.748757 
5.07535 0.890067 -0.74852 5.03059 0.855929 -0.747706 -0.846577 0.553604 -0.965487 
-0.871317 0.612852 -0.901342 -0.815033 0.429364 -0.797237 -0.775292 0.401621 -0.595554 
-0.710385 0.403515 -0.394733 1.6865 -1.21249 -0.826626 1.71298 -1.14816 -0.739851 
-0.182761 1.43443 -0.836354 4.22797 0.396244 -0.837856 4.18296 0.340536 -0.632867 
4.5722 0.32785 -0.885069 4.63224 0.303124 -0.820424 4.65931 0.2657 -0.656191 
6.04961 -0.825981 -0.804639 6.06607 -0.748111 -0.758753 6.08263 -0.684254 -0.758912 
6.08751 -0.597528 -0.835288 6.26933 -0.184081 -0.819558 6.25173 -0.251781 -0.753589 
6.23295 -0.31421 -0.734445 6.1729 -0.371541 -0.813402 6.31155 -0.0242902 -0.810424 
6.30251 0.0613473 -0.732289 6.28772 0.132602 -0.683318 6.26234 0.188538 -0.673907 
6.23817 0.248028 -0.70316 6.19508 0.310015 -0.747556 6.1028 0.494842 -0.696433 
6.06412 0.554671 -0.613192 6.00892 0.600792 -0.559252 5.68064 0.851308 -0.913166 
5.70663 0.803143 -0.792395 5.7406 0.761775 -0.718755 5.78309 0.726688 -0.660083 
5.84082 0.691426 -0.598761 -0.881419 0.749155 -0.847415 -0.85564 0.797453 -0.915705 
-0.820683 0.837324 -1.00581 -0.785978 0.878052 -1.07372 -0.761035 0.92921 -1.068 
-0.756167 0.999757 -0.981707 -0.751885 1.07231 -0.843608 -0.728363 1.12854 -0.704662 
-0.694192 1.1751 -0.587459 -0.650432 1.21246 -0.506863 -0.593311 1.23762 -0.455298 
-0.539797 1.26498 -0.433513 -0.481958 1.28818 -0.433756 -0.434375 1.32174 -0.46417 
-0.379662 1.36367 -0.531887 -0.839068 0.666206 -0.606499 -0.781726 0.658806 -0.41282 
-0.73408 0.638835 -0.241002 -0.693562 0.607778 -0.120728 -0.6611 0.56339 -0.0741603 
-0.645314 0.495135 -0.108414 1.66271 -0.998553 -0.679476 1.59939 -0.97508 -0.703336 
1.54918 -0.947313 -0.707449 1.50566 -0.912117 -0.682118 1.46292 -0.874077 -0.617357 
4.09364 0.225022 -0.40524 6.03412 0.368785 -0.555937 5.87743 0.59109 -0.498092 
5.84615 0.534898 -0.451797 5.84317 0.468618 -0.397368 5.8664 0.402239 -0.350064 
-0.213604 1.42354 -0.346995 -0.135948 1.43602 -0.131606 -0.060857 1.44767 -0.0200084 
0.00578465 1.46412 0.00976257 0.0537483 1.49511 -0.00572533 0.101628 1.52639 -0.0138094 
0.168414 1.54207 -0.00624507 0.242656 1.55186 0.016453 0.310836 1.56635 0.0240788 
0.366324 1.59118 0.0163299 0.425836 1.61217 -0.00604686 0.479936 1.63796 -0.0212546 
0.539197 1.65959 -0.0288373 0.59313 1.68595 -0.0292469 0.652392 1.70779 -0.0294218 
0.707712 1.73298 -0.0297704 0.774589 1.74836 -0.0296097 0.841542 1.76369 -0.0294457 
0.898425 1.78733 -0.0371329 0.967108 1.80054 -0.0591059 1.04374 1.80615 -0.110349 
1.12201 1.80972 -0.183744 1.20053 1.81266 -0.271922 1.27889 1.81616 -0.345312 
1.35699 1.82052 -0.396491 1.43476 1.82603 -0.418063 4.25279 0.231563 -0.401233 
4.32489 0.219587 -0.35547 4.45599 0.202771 -0.282292 4.54106 0.204096 -0.316601 
4.38269 0.12226 -0.222562 5.93385 0.258321 -0.217709 5.94767 0.186008 -0.148044 
5.97127 0.129361 -0.115934 5.98524 0.0612195 -0.105727 -0.44907 0.109806 -0.149384 
-0.488861 0.183208 -0.157234 -0.295282 0.0578719 0.00572202 -0.58239 0.366317 -0.172412 
-0.412304 0.349896 0.0910947 -0.338448 0.365528 0.27073 -0.294948 0.337155 0.362761 
-0.269359 0.282899 0.376015 -0.236234 0.2335 0.33135 -0.206065 0.172744 0.252493 
0.795099 -0.564398 0.213212 0.849337 -0.613791 0.219436 0.900459 -0.641687 0.240858 
0.961123 -0.654555 0.258103 1.01955 -0.669731 0.274181 1.08748 -0.670359 0.297211 
1.15268 -0.654791 0.341821 1.19982 -0.621523 0.385554 1.24581 -0.58756 0.414415 
1.30367 -0.564533 0.414179 1.35892 -0.539289 0.413827 1.42563 -0.523539 0.421388 
1.49086 -0.506112 0.443689 1.53823 -0.473546 0.465203 1.58414 -0.439734 0.486653 
1.63856 -0.412926 0.515886 1.67243 -0.368686 0.544213 1.68091 -0.302707 0.578828 
1.69692 -0.243114 0.613777 -0.133393 0.0251999 0.199707 -0.0703254 0.00258587 0.24577 
-0.0206181 -0.0234655 0.294296 0.0222289 -0.0563728 0.328177 0.0642263 -0.0918387 0.330022 
0.106416 -0.128616 0.302266 0.147582 -0.166983 0.267143 0.183388 -0.210828 0.249476 
0.21776 -0.256194 0.25409 0.284785 -0.268167 0.277547 0.406678 -0.357749 0.223078 
0.444357 -0.415642 0.166432 0.485901 -0.454427 0.157281 0.531656 -0.486522 0.181276 
0.601261 -0.502398 0.208627 0.459416 -0.218896 0.537085 0.537477 -0.195932 0.707588 
0.614299 -0.18447 0.801908 0.691442 -0.176693 0.837077 0.768877 -0.170043 0.84511 
0.805546 -0.393272 0.406879 0.847079 -0.321276 0.571361 0.852469 -0.245067 0.714274 
0.913348 -0.148358 0.845904 0.970076 -0.12451 0.845623 1.03719 -0.111996 0.845897 
1.10427 -0.114947 0.846769 
LINES 81 760
8 66 67 68 69 70 71 72 62 
3 64 73 65 
4 64 74 75 63 
4 64 76 77 62 
5 63 78 79 80 53 
9 63 81 82 83 84 85 86 87 23 
16 62 88 89 90 91 92 93 94 95 96 97 98 99 100 101 23 
8 53 102 103 104 105 106 107 47 
12 53 108 109 110 111 112 113 114 115 116 117 28 
41 61 120 121 122 123 124 125 126 127 128 129 130 131 132 133 134 135 136 137 138 139 140 141 142 143 144 145 146 147 148 149 150 151 152 153 154 155 156 157 158 44 
20 60 159 160 161 162 163 164 165 166 167 168 169 170 171 172 173 174 175 176 49 
7 59 177 178 179 180 181 49 
3 58 182 28 
3 58 183 29 
5 58 184 185 186 54 
3 57 196 46 
55 56 197 198 199 200 201 202 203 204 205 206 207 208 209 210 211 212 213 214 215 216 217 218 219 220 221 222 223 224 225 226 227 228 229 230 231 232 233 234 235 236 237 238 239 240 241 242 243 244 245 246 247 248 249 50 
17 56 250 251 252 253 254 255 256 257 258 259 260 261 262 263 264 17 
9 56 265 266 267 268 269 270 271 42 
9 55 272 273 274 275 276 277 278 50 
3 54 279 29 
5 54 280 281 282 39 
5 53 283 284 285 19 
3 47 286 46 
44 51 287 288 289 290 291 292 293 294 295 296 297 298 299 300 301 302 303 304 305 306 307 308 309 310 311 312 313 314 315 316 317 318 319 320 321 322 323 324 325 326 327 328 42 
7 50 329 330 331 332 333 38 
3 49 334 31 
3 49 335 36 
3 28 336 29 
5 28 337 338 339 48 
3 48 340 28 
7 47 341 342 343 344 345 19 
4 46 346 347 26 
4 46 348 349 45 
7 43 350 351 352 353 354 40 
5 39 355 356 357 40 
5 42 358 359 360 34 
9 40 363 364 365 366 367 368 369 30 
5 39 370 371 372 30 
3 36 373 31 
16 38 377 378 379 380 381 382 383 384 385 386 387 388 389 390 20 
3 31 391 24 
7 36 392 393 394 395 396 24 
3 36 397 35 
4 29 398 399 30 
5 29 400 401 402 28 
3 29 403 28 
10 28 404 405 406 407 408 409 410 411 27 
12 26 412 413 414 415 416 417 418 419 420 421 22 
4 34 422 423 25 
5 34 424 425 426 10 
4 33 427 428 20 
3 32 429 17 
4 31 430 431 14 
6 30 435 436 437 438 23 
6 27 439 440 441 442 23 
8 27 443 444 445 446 447 448 19 
5 19 449 450 451 18 
7 26 452 453 454 455 456 18 
17 25 457 458 459 460 461 462 463 464 465 466 467 468 469 470 471 17 
8 25 472 473 474 475 476 477 10 
7 20 478 479 480 481 482 21 
3 14 483 15 
3 19 484 11 
6 18 485 486 487 488 11 
28 17 489 490 491 492 493 494 495 496 497 498 499 500 501 502 503 504 505 506 507 508 509 510 511 512 513 514 16 
4 14 515 516 13 
3 13 519 9 
6 11 520 521 522 523 8 
3 10 527 6 
8 6 528 529 530 531 532 533 5 
21 3 534 535 536 537 538 539 540 541 542 543 544 545 546 547 548 549 550 551 552 2 
12 5 553 554 555 556 557 558 559 560 561 562 4 
7 4 563 564 565 566 567 3 
7 4 568 569 570 571 572 1 
5 3 573 574 575 1 
6 1 576 577 578 579 0 
14 53 118 119 52 187 188 189 190 191 192 193 194 195 48 
8 38 374 375 376 37 361 362 41 
8 24 432 433 434 12 518 517 13 
6 6 525 524 7 526 5 

POINT_DATA 580
SCALARS DY_raw double
LOOKUP_TABLE default
237.697 192.498 214.58 182.297 219.921 266.826 177.119 163.408 259.655 
174.796 185.042 240.192 171.889 194.75 179.022 210.96 224.557 171.319 
304.397 262.142 182.669 215.188 129.352 250.717 211.845 162.095 199.334 
253.047 255.392 220.964 253.318 170.459 180.649 108.16 135.729 132.103 
144.579 174.843 219.536 212.599 266.131 290.17 164.983 203.592 150.235 
360.081 238.721 208.776 227.631 162.282 180.534 212.14 252.537 263.377 
250.19 85.2455 153.778 107.007 190.474 91.727 103.297 118.563 181.384 
173.138 160.82 143.355 229.095 237.837 237.837 229.412 220.214 200.466 
192.523 155.121 178.688 186.629 178.036 188.875 179.361 200.975 219.052 
184.511 175.59 194.45 192.413 187.726 213.584 231.659 195.12 205.865 
216.519 216.268 205.624 210.501 230.144 206.661 226.565 196.744 184.938 
189.91 213.82 231.16 237.007 242.896 233.112 223.021 237.65 218.151 
193.71 167.524 156.032 161.24 162.479 158.32 154.1 171.32 189.075 
221.876 299.692 266.862 138.221 160.499 177.975 182.381 189.419 190.743 
183.86 186.871 211.175 189.833 187.226 206.474 185.35 176.962 176.962 
174.14 174.14 186.391 207.517 187.523 184.686 185.576 185.576 174.338 
176.794 171.292 156.734 145.774 177.302 175.578 160.104 154.683 145.871 
145.871 145.947 163.257 171.614 171.614 176.407 139.337 144.951 148.413 
181.395 169.914 150.138 147.015 157.545 138.276 159.748 163.737 163.169 
155.837 138.906 143.849 145.25 165.532 162.778 101.714 117.795 123.383 
146.093 154.26 239.443 236.878 180.765 180.765 216.342 241.01 239.979 
243.832 243.965 232.351 237.978 261.921 264.854 220.864 161.363 136.015 
134.383 149.751 132.913 134.866 152.291 149.689 149.689 169.8 165.254 
149.199 140.035 156.672 138.371 124.343 121.859 135.975 132.28 140.717 
159.957 183.538 193.066 213.767 233.244 239.953 254.198 253.991 259.868 
259.868 239.828 207.573 196.393 190.349 190.349 177.49 160.223 155.336 
152.306 140.504 134.569 116.297 100.468 108.619 99.7682 99.6584 105.965 
114.964 121.707 128.893 140.328 157.391 163.362 168.404 151.973 137.451 
134.012 134.012 151.094 134.056 153.629 127.372 129.338 140.499 119.558 
129.259 144.733 152.907 156.152 149.277 172.78 182.532 191.463 208 
201.275 178.335 87.6718 104.769 104.305 118.973 127.323 141.703 162.854 
237.867 230.728 215.997 228.366 304.054 319.522 279.018 193.448 191.805 
191.805 183.076 169.397 148.354 146.593 146.47 146.47 173.529 183.659 
183.659 195.587 195.587 182.485 158.602 158.602 147.422 145.735 145.735 
147.19 147.723 143.431 143.431 171.095 174.976 170.962 170.962 168.897 
176.333 176.333 183.763 146.804 151.005 151.005 137.64 128.62 144.891 
155.944 148.505 145.83 175.528 190.295 206.822 211.528 201.493 192.622 
188.308 173.81 162.533 228.987 241.041 223.712 223.107 242.568 249.212 
257.269 278.576 275.351 270.155 297.719 251.008 286.028 316.881 188.756 
192.569 198.5 204.134 219.6 193.707 195.102 245.543 164.983 163.422 
137.612 190.474 206.91 252.606 239.792 239.004 215.388 221.943 213.79 
215.969 249.611 259.934 256.921 162.739 220.213 216.917 192.232 215.172 
180.096 193.446 225.278 217.639 217.639 214.613 195.499 195.499 196.638 
196.638 190.676 183.935 185.707 211.587 192.509 231.284 243.72 251.497 
226.657 135.45 249.823 261.465 239.502 249.51 230.864 235.707 208.702 
207.926 260.268 279.742 273.769 298.167 297.532 286.941 179.476 148.4 
112.543 127.829 155.772 158.343 146.416 139.516 139.523 139.523 155.134 
189.397 187.185 155.908 157.377 138.818 163.065 189.273 198.96 177.953 
197.362 177.021 173.069 262.357 285.011 270.243 268.582 257.196 273.703 
276.199 257.663 280.214 297.886 312.566 323.3 317.293 300.798 283.668 
277.447 289.852 226.05 265.653 288.387 291.179 301.314 171.862 157.699 
147.317 142.087 148.206 160.112 168.622 160.866 155.206 139.477 138.45 
149.593 156.853 162.711 177.488 236.034 231.338 223.998 212.132 207.08 
192.255 167.163 167.242 163.463 173.675 188.923 189.466 237.663 282.653 
246.174 222.908 208.514 226.538 200.247 209.443 225.286 206.441 200.453 
184.508 199.94 189.806 177.118 158.306 159.976 165.674 163.38 172.888 
169.383 169.383 187.599 195.971 186.411 185.784 167.384 178.764 164.693 
159.265 175.804 199.91 194.493 174.729 166.375 187.702 237.592 268.646 
250.22 259.655 148.687 166.035 212.029 177.356 205.37 250.108 270.398 
272.462 279 289.272 162.527 148.572 138.865 150.145 166.038 170.676 
166.908 174.787 154.567 145.988 154.443 148.125 143.285 143.285 145.866 
145.866 159.976 165.929 164.217 269.45 259.109 242.511 211.657 188.871 
172.912 146.951 154.299 177.729 208.093 198.164 174.235 172.449 165.777 
174.119 233.646 236.457 224.752 217.597 196.439 234.947 236.501 197.758 
205.428 211.646 219.937 223.418 
FIELD FieldData 7
DY_minmax 1 580 double
0.554701 0.390241 0.470589 0.353126 0.490021 0.660687 0.334285 0.284397 0.634596 
0.325833 0.363114 0.56378 0.315254 0.398437 0.341209 0.457416 0.50689 0.313181 
0.797391 0.643646 0.354479 0.4728 0.160484 0.602074 0.460637 0.279619 0.415115 
0.610552 0.619086 0.493818 0.61154 0.310054 0.347131 0.0833745 0.183685 0.170492 
0.215887 0.326006 0.48862 0.463382 0.658157 0.745627 0.290127 0.43061 0.236466 
1 0.558426 0.44947 0.518075 0.280299 0.34671 0.461712 0.608697 0.64814 
0.600157 0 0.249359 0.0791806 0.382877 0.0235833 0.0656817 0.121226 0.349805 
0.319799 0.274982 0.211435 0.523404 0.55521 0.55521 0.524555 0.491089 0.419234 
0.390335 0.254245 0.339995 0.368889 0.337624 0.377062 0.342442 0.421087 0.486859 
0.361181 0.328721 0.397345 0.389933 0.37288 0.466964 0.532732 0.399782 0.43888 
0.477642 0.476731 0.438003 0.455746 0.527219 0.441774 0.514198 0.405693 0.362736 
0.380827 0.467823 0.530917 0.552189 0.573616 0.538017 0.501302 0.554529 0.483582 
0.394654 0.299373 0.257561 0.276508 0.281016 0.265886 0.250531 0.313187 0.377787 
0.497137 0.780273 0.660819 0.192754 0.273812 0.337398 0.353431 0.379039 0.383855 
0.358812 0.369768 0.458201 0.380546 0.371058 0.441094 0.364234 0.333713 0.333713 
0.323444 0.323444 0.368021 0.444889 0.372142 0.361817 0.365055 0.365055 0.324166 
0.333102 0.313082 0.260114 0.220236 0.334951 0.328678 0.272375 0.25265 0.220589 
0.220589 0.220866 0.283848 0.314256 0.314256 0.331696 0.196816 0.21724 0.229837 
0.349842 0.308068 0.236115 0.22475 0.263065 0.192954 0.271082 0.285594 0.283528 
0.256849 0.195247 0.213233 0.21833 0.292125 0.282105 0.0599207 0.118434 0.138766 
0.221396 0.251113 0.561052 0.551721 0.347551 0.347551 0.477 0.566754 0.563005 
0.577024 0.577507 0.53525 0.555724 0.642842 0.653513 0.493454 0.276957 0.184727 
0.178789 0.234704 0.173441 0.180548 0.243949 0.234482 0.234482 0.307654 0.291116 
0.232697 0.199353 0.259887 0.193299 0.142259 0.133219 0.18458 0.171137 0.201836 
0.271841 0.35764 0.39231 0.46763 0.538497 0.562911 0.614739 0.613987 0.63537 
0.63537 0.562454 0.445093 0.404414 0.382425 0.382425 0.335636 0.272808 0.255028 
0.244004 0.201062 0.179464 0.112982 0.0553892 0.0850436 0.0528413 0.0524418 0.0753894 
0.108133 0.132666 0.158811 0.20042 0.262504 0.28423 0.302577 0.24279 0.189952 
0.177438 0.177438 0.239592 0.177599 0.248815 0.15328 0.160434 0.201043 0.124848 
0.160146 0.216449 0.24619 0.257997 0.232981 0.318499 0.35398 0.386477 0.446647 
0.42218 0.338712 0.00882809 0.0710388 0.0693489 0.122717 0.153102 0.205424 0.282381 
0.555318 0.529345 0.475744 0.520748 0.796143 0.852425 0.705049 0.393699 0.387722 
0.387722 0.355961 0.30619 0.229622 0.223214 0.222768 0.222768 0.321222 0.35808 
0.35808 0.401483 0.401483 0.353809 0.26691 0.26691 0.226231 0.220092 0.220092 
0.225387 0.227328 0.211711 0.211711 0.312367 0.326489 0.311884 0.311884 0.304369 
0.331426 0.331426 0.358458 0.223984 0.23927 0.23927 0.19064 0.15782 0.217022 
0.257241 0.230173 0.22044 0.328498 0.382225 0.442361 0.459485 0.42297 0.390693 
0.374995 0.322245 0.281214 0.523007 0.566868 0.503814 0.501613 0.572424 0.596597 
0.625916 0.703442 0.691707 0.672802 0.773093 0.603133 0.730554 0.842816 0.376629 
0.3905 0.412081 0.43258 0.488854 0.39464 0.399716 0.583247 0.290127 0.284449 
0.190537 0.382879 0.44268 0.608948 0.562324 0.559455 0.47353 0.49738 0.467716 
0.475641 0.598051 0.635612 0.624649 0.281963 0.491086 0.479092 0.389275 0.472744 
0.345116 0.393692 0.509515 0.481718 0.481718 0.470708 0.401163 0.401163 0.405306 
0.405306 0.383613 0.359087 0.365534 0.459697 0.390284 0.531368 0.576616 0.604911 
0.51453 0.182669 0.598823 0.641182 0.561268 0.597685 0.529839 0.54746 0.449201 
0.446377 0.636827 0.707684 0.685952 0.774722 0.772414 0.733878 0.342863 0.229791 
0.0993248 0.15494 0.256612 0.265967 0.222573 0.197464 0.197492 0.197492 0.254292 
0.37896 0.370912 0.257108 0.262454 0.194925 0.283149 0.378509 0.413754 0.337318 
0.407941 0.33393 0.31955 0.644428 0.726856 0.673122 0.667077 0.625648 0.685709 
0.694792 0.627349 0.709401 0.773701 0.827116 0.866172 0.844314 0.784297 0.721969 
0.699333 0.744468 0.512322 0.656421 0.739137 0.749297 0.786174 0.315159 0.263626 
0.22585 0.20682 0.229082 0.272406 0.303367 0.275148 0.254553 0.197325 0.193586 
0.234132 0.260547 0.28186 0.33563 0.548649 0.531562 0.504858 0.461682 0.4433 
0.389358 0.29806 0.298347 0.284596 0.321755 0.377236 0.379211 0.554577 0.718275 
0.585545 0.50089 0.448516 0.514097 0.418438 0.451897 0.509542 0.440973 0.419186 
0.361169 0.41732 0.380447 0.334282 0.265832 0.27191 0.292641 0.284294 0.318891 
0.306138 0.306138 0.372419 0.402877 0.368096 0.365814 0.298863 0.34027 0.289072 
0.269321 0.329502 0.41721 0.397501 0.325591 0.295192 0.372791 0.554319 0.667311 
0.600266 0.634596 0.230833 0.293955 0.461308 0.335148 0.437077 0.599861 0.673683 
0.681193 0.704985 0.742358 0.281194 0.230418 0.195096 0.236141 0.293967 0.310841 
0.297131 0.325802 0.252229 0.221014 0.251779 0.228791 0.211178 0.211178 0.220571 
0.220571 0.27191 0.293569 0.287341 0.670234 0.632609 0.572217 0.459953 0.377045 
0.318978 0.224517 0.251256 0.336507 0.446986 0.41086 0.323792 0.317292 0.293016 
0.323371 0.539962 0.55019 0.5076 0.481565 0.404583 0.544696 0.550349 0.40938 
0.437287 0.459912 0.490082 0.502746 
WidthEq 1 580 double
3.41473 4.36442 3.32152 5.94453 3.19266 3.25224 5.59319 5.05099 4.03328 
2.53244 4.93137 5.96826 6.7997 5.30306 6.05547 3.65867 4.53267 7.37806 
5.46635 6.38944 5.58814 2.92908 5.96503 8.62491 6.40625 5.78891 5.08851 
7.71561 8.84925 7.80054 7.7915 7.76914 4.34655 2.98245 5.20333 8.53003 
8.64248 6.01012 5.42641 7.70577 5.86712 2.83692 5.12976 4.88305 4.05206 
1 5.73059 7.95758 6.93962 8.09144 6.32591 3.8006 6.61408 9.02523 
5.45358 3.27385 7.51439 5.04836 9.19403 4.24096 5.83405 6.26007 9.06931 
8.8339 9.3699 8.50489 5.5222 5.98755 5.98755 6.75729 7.09156 7.64265 
8.43758 9.32976 9.47584 9.46513 9.36505 8.98412 9.20569 9.7228 9.6821 
9.60035 8.34093 8.38915 7.68047 8.54255 8.65899 9.24427 8.72085 8.24918 
7.39346 6.79874 6.4829 5.84844 5.52654 5.09866 4.78004 5.29114 6.31082 
7.50339 8.32528 8.9101 9.44468 8.68015 8.59249 8.40652 7.12498 7.28157 
9.53966 8.84698 8.79709 8.30478 7.68582 7.35806 7.4841 8.07973 9.18595 
9.49836 7.11918 6.78531 8.71191 8.41975 8.57028 8.5628 8.42425 7.75601 
6.74683 5.84592 5.21212 5.45827 5.63738 5.62324 5.90176 6.03764 6.03764 
6.25315 6.25315 6.18185 5.84016 6.02219 5.8291 5.55063 5.55063 5.66343 
5.80598 6.07602 6.0796 6.14999 6.16852 6.09975 6.19604 6.5189 6.57793 
6.57793 6.50557 6.33621 5.916 5.916 4.56943 7.07807 7.12574 7.56883 
6.83858 6.88645 6.96638 7.13882 6.68311 6.85499 6.60282 6.31789 5.69943 