# vtk DataFile Version 3.0
vtk output
ASCII
DATASET POLYDATA
POINTS 813 float
1.90225 1.41563 0.849601 2.74389 1.70533 0.609288 2.45045 1.78325 0.430819 
1.24296 0.706693 1.38676 1.35158 0.723979 1.38522 0.747934 1.28215 0.434896 
3.55362 1.18692 0.831339 0.951773 1.05326 0.457462 2.35668 0.361271 1.42183 
0.803158 0.300972 1.17 1.66672 0.347259 1.0529 3.42836 0.61794 0.833355 
1.15052 0.543173 0.891067 1.24821 0.621025 0.798348 3.76802 1.00705 0.188429 
0.362062 1.19654 -0.23927 1.77829 0.132515 1.27289 2.97823 0.603851 0.84482 
3.98806 0.974564 0.284231 1.74886 -0.351573 1.61843 3.15755 0.398181 0.708789 
3.63729 1.2574 -0.326345 1.05695 1.31408 -0.974506 3.00611 -0.225905 1.35199 
0.0346409 -0.169157 0.618082 0.849308 -0.0395147 0.606469 5.29735 0.699482 0.497397 
3.2984 0.630607 0.160588 3.64539 1.18428 -0.574968 3.89336 0.40165 0.268904 
4.69708 0.59186 0.16612 4.88152 0.808132 -0.110488 4.02856 0.890474 -0.41797 
4.12078 0.99861 -0.556274 3.06604 -0.614408 1.21943 3.46798 -0.702734 1.07935 
0.154735 -0.890778 0.986954 -0.0446039 -0.837103 0.626255 3.6974 -0.210463 0.527248 
4.75402 0.557669 -0.128862 4.47388 0.280495 -0.213028 -0.132121 0.359933 -1.26664 
2.94174 0.973709 -1.49311 2.91439 1.12513 -1.72104 4.1181 -0.653754 0.345408 
0.663292 0.567876 -1.7548 -0.534461 -0.365786 -1.12537 -0.441427 -0.149636 -1.30262 
0.56823 0.447189 -1.95629 -0.824663 -0.990573 -1.10746 4.36545 0.0926546 -1.3202 
3.5189 -1.5576 0.317313 4.31226 -0.99117 -0.220011 -0.690798 -1.04771 -1.47115 
3.90377 -0.191933 -1.71931 2.25803 -0.360368 -1.83283 1.18499 -0.325149 -2.47701 
4.068 -1.4673 -0.529128 -0.52733 -1.70012 -1.19423 -0.598049 -1.61791 -1.33021 
2.0564 -2.42259 0.0729769 1.07827 -2.38436 -0.912388 0.87441 -2.21546 -1.0854 
0.937137 -2.46913 -0.81905 0.284266 -1.63841 -2.17964 1.19115 -1.40063 -2.32955 
0.75495 -2.41676 -1.29328 1.02104 -2.34326 -1.34273 3.04073 -1.46109 -2.19346 
1.34068 -1.63817 -2.30621 1.45853 -2.62843 -1.18651 2.52834 -2.36472 -1.33875 
2.47791 -2.39483 -1.30566 2.42497 -2.41105 -1.29349 2.37067 -2.41975 -1.29262 
2.31609 -2.42797 -1.30578 2.2618 -2.43986 -1.33996 2.21154 -2.47724 -1.37563 
2.162 -2.51965 -1.41704 2.10904 -2.54207 -1.47522 2.05218 -2.53977 -1.53077 
1.99332 -2.52427 -1.57963 1.93355 -2.50269 -1.62435 1.87398 -2.48217 -1.66747 
1.81558 -2.46822 -1.70071 1.75987 -2.46911 -1.7116 1.70517 -2.47557 -1.71411 
1.64967 -2.47764 -1.72323 1.59286 -2.47245 -1.74328 1.53855 -2.48109 -1.74251 
1.48674 -2.50357 -1.7209 1.43271 -2.51271 -1.7061 1.37606 -2.50526 -1.6897 
1.3175 -2.48409 -1.65409 1.25954 -2.46518 -1.60178 1.20026 -2.43901 -1.56043 
1.14118 -2.4139 -1.51748 1.08189 -2.38447 -1.44117 2.58791 -2.38518 -1.29572 
2.6463 -2.39913 -1.26248 2.702 -2.39818 -1.25168 2.75652 -2.39066 -1.25077 
2.81084 -2.38208 -1.25145 2.86515 -2.37343 -1.25222 2.91946 -2.36479 -1.253 
2.97286 -2.35007 -1.24963 3.02445 -2.32321 -1.23797 3.07331 -2.27807 -1.21398 
3.12108 -2.22585 -1.18735 3.16876 -2.17421 -1.17315 3.21765 -2.13239 -1.18402 
3.26967 -2.11004 -1.19214 3.3226 -2.09376 -1.2044 3.37332 -2.06414 -1.22346 
3.42391 -2.03178 -1.22009 3.47377 -1.99221 -1.18773 3.52441 -1.9559 -1.13714 
3.57447 -1.91738 -1.10318 3.62534 -1.88551 -1.08578 3.67604 -1.8527 -1.0698 
3.7251 -1.80868 -1.04412 3.77335 -1.75808 -1.00177 3.82239 -1.71081 -0.941128 
3.8702 -1.65569 -0.879014 3.9188 -1.6039 -0.798594 3.96751 -1.55161 -0.705669 
4.01729 -1.50638 -0.615369 2.55048 -2.41087 -1.43842 2.59381 -2.42884 -1.52178 
2.64446 -2.41559 -1.58309 2.69438 -2.38324 -1.61956 2.74319 -2.34101 -1.63105 
2.78778 -2.27221 -1.64267 2.83046 -2.19183 -1.65843 2.87387 -2.11653 -1.67984 
2.92 -2.05945 -1.71368 2.96814 -2.01557 -1.7542 3.01837 -1.98433 -1.78899 
3.07039 -1.96199 -1.7971 3.12197 -1.93507 -1.78554 3.17201 -1.89649 -1.75166 
3.22266 -1.86024 -1.70099 3.27273 -1.82179 -1.66693 3.3247 -1.79706 -1.65208 
3.3784 -1.78295 -1.6345 3.43288 -1.77206 -1.59881 3.48412 -1.74011 -1.55496 
3.53495 -1.70486 -1.50278 3.58391 -1.65927 -1.46618 3.6318 -1.60876 -1.45028 
3.67726 -1.54376 -1.44289 3.72503 -1.49154 -1.41627 3.77522 -1.45379 -1.38115 
3.82457 -1.41352 -1.37639 3.87544 -1.3816 -1.35907 3.92661 -1.34929 -1.31576 
3.97346 -1.29094 -1.28508 4.01591 -1.20718 -1.27936 4.05708 -1.11528 -1.27263 
4.09853 -1.02453 -1.25088 4.13566 -0.919616 -1.23762 4.16193 -0.823197 -1.24074 
4.16492 -0.741891 -1.25332 4.1679 -0.672963 -1.27424 4.18393 -0.58952 -1.28709 
4.19292 -0.494757 -1.29158 4.20532 -0.38703 -1.28786 4.20468 -0.293862 -1.29211 
4.20786 -0.21362 -1.30308 4.23895 -0.148069 -1.3129 4.2832 -0.0884404 -1.29792 
4.32744 -0.0288032 -1.28292 4.35853 0.0367473 -1.29274 1.39993 -2.60388 -1.11613 
1.3387 -2.56553 -1.06658 1.2731 -2.51494 -1.02264 1.19149 -2.45339 -0.971824 
1.31486 -1.58003 -2.33086 1.2606 -1.50156 -2.33858 3.09393 -1.44525 -2.19178 
3.14432 -1.41176 -2.1901 3.1903 -1.35066 -2.19014 3.23569 -1.2853 -2.18327 
3.27958 -1.21162 -2.18897 3.32456 -1.14501 -2.19729 3.37113 -1.08617 -2.18065 
3.4178 -1.02681 -2.15148 3.46294 -0.957953 -2.12333 3.50757 -0.886249 -2.09946 
3.55503 -0.830235 -2.05199 3.60097 -0.765805 -2.01717 3.6444 -0.687483 -2.00327 
3.688 -0.61011 -1.98795 3.73027 -0.525341 -1.98375 3.77282 -0.441067 -1.96553 
3.81776 -0.367946 -1.90394 3.86082 -0.281282 -1.82289 0.950854 -2.2746 -1.21595 
0.969851 -2.37865 -1.42127 0.919199 -2.41489 -1.47193 0.869394 -2.45058 -1.45701 
0.814702 -2.45083 -1.38917 0.808416 -2.32563 -1.18558 0.696751 -2.40387 -1.32491 
0.640881 -2.40388 -1.33713 0.584464 -2.39982 -1.34219 0.526812 -2.38786 -1.34586 
0.471083 -2.38551 -1.32179 0.414582 -2.37993 -1.31585 0.354943 -2.35697 -1.33608 
0.295035 -2.33148 -1.34682 0.236316 -2.31047 -1.32427 0.174851 -2.27321 -1.31288 
0.114092 -2.23986 -1.29562 0.0532584 -2.20504 -1.26727 -0.0072126 -2.17224 -1.23588 
-0.0654702 -2.15212 -1.19868 -0.117424 -2.15876 -1.14734 -0.158219 -2.17038 -1.08627 
-0.184678 -2.16217 -1.01141 -0.217029 -2.13629 -0.923981 -0.235125 -2.0895 -0.82437 
-0.241452 -2.04084 -0.72492 -0.236915 -1.98423 -0.6215 -0.214595 -1.931 -0.522459 
-0.198178 -1.87251 -0.419207 -0.17486 -1.8129 -0.316049 -0.161166 -1.73619 -0.200369 
-0.145099 -1.64044 -0.0723277 -0.147513 -1.5227 0.0724066 -0.150373 -1.38941 0.225156 
-0.130102 -1.23288 0.375394 -0.0949713 -1.04607 0.506564 1.04668 -2.48331 -0.880231 
0.997855 -2.50677 -0.856529 1.15753 -1.54168 -2.35532 1.12019 -1.659 -2.37694 
1.07572 -1.73048 -2.38785 1.02521 -1.76123 -2.36709 0.968462 -1.7522 -2.33978 
0.909806 -1.73154 -2.31668 0.852773 -1.72197 -2.30348 0.797362 -1.72347 -2.30016 
0.740958 -1.71948 -2.30512 0.681233 -1.695 -2.31436 0.620292 -1.66064 -2.29861 
0.559437 -1.6257 -2.27043 0.499671 -1.59785 -2.24489 0.442649 -1.58834 -2.2316 
0.387633 -1.59203 -2.22499 0.3347 -1.6083 -2.21273 1.23787 -1.36204 -2.37588 
1.27191 -1.31925 -2.4179 1.2748 -1.26277 -2.44708 1.25331 -1.17909 -2.45527 
1.22029 -1.06614 -2.44263 1.21536 -0.936294 -2.42214 1.20726 -0.80696 -2.40161 
1.20458 -0.689187 -2.38941 1.22581 -0.573834 -2.38168 1.24787 -0.476993 -2.38635 
1.23796 -0.403896 -2.40296 1.20495 -0.359346 -2.43577 0.884774 -2.48375 -0.756119 
0.832394 -2.48594 -0.68493 0.789079 -2.48046 -0.609733 0.76274 -2.47228 -0.534783 
0.736034 -2.47038 -0.46396 0.737058 -2.45786 -0.389401 0.773888 -2.43341 -0.311219 
0.82327 -2.40075 -0.229086 0.872869 -2.36805 -0.146955 0.912702 -2.33685 -0.0647822 
0.937384 -2.30703 0.0161013 0.976041 -2.26932 0.0884914 1.02395 -2.22771 0.143948 
1.0759 -2.19923 0.206275 1.12885 -2.17681 0.264456 1.17957 -2.14092 0.315658 
1.23161 -2.11235 0.377898 1.28438 -2.08886 0.434478 1.33754 -2.0707 0.459219 
1.39142 -2.0576 0.478314 1.44571 -2.0457 0.512495 1.49578 -2.00725 0.546548 
1.54412 -1.95822 0.577981 1.59327 -1.91369 0.616179 1.64483 -1.88352 0.662698 
1.69399 -1.83899 0.700904 1.74233 -1.78996 0.732336 1.79149 -1.74543 0.770535 
1.84306 -1.71532 0.817145 1.8924 -1.6718 0.85686 1.94174 -1.62827 0.89658 
1.9924 -1.59209 0.947335 2.04245 -1.55357 0.981297 2.09061 -1.50354 1.01122 
2.13878 -1.45351 1.04114 2.18883 -1.41499 1.0751 2.24311 -1.40304 1.10919 
2.29679 -1.38882 1.12659 2.34856 -1.36296 1.13977 2.39725 -1.31688 1.16233 
2.44402 -1.25915 1.18068 2.48929 -1.1931 1.18647 2.53697 -1.14146 1.20067 
2.58473 -1.08918 1.22721 2.63248 -1.0369 1.25375 2.68017 -0.985258 1.26795 
2.72905 -0.943433 1.25708 2.78108 -0.921083 1.24896 2.834 -0.904754 1.23662 
2.88451 -0.874002 1.21585 2.93372 -0.833956 1.20766 2.9795 -0.771783 1.20601 
3.02398 -0.700307 1.21693 0.997632 -2.42213 -0.861444 0.934512 -2.2302 -1.00208 
0.987876 -2.2846 -0.950406 2.10275 -2.36041 0.111184 2.15098 -2.30975 0.153436 
2.20254 -2.27958 0.199963 2.25532 -2.25928 0.221497 2.30891 -2.24563 0.226467 
2.36324 -2.23705 0.225784 2.41755 -2.2284 0.22501 2.47186 -2.21976 0.224236 
2.52617 -2.21112 0.223461 2.57957 -2.1964 0.226832 2.63116 -2.16954 0.238486 
2.68003 -2.12446 0.262569 2.72799 -2.07331 0.290802 2.77685 -2.02817 0.314793 
2.82824 -2.00025 0.324848 2.88046 -1.97896 0.318339 2.93208 -1.95541 0.29512 
2.98521 -1.94021 0.284466 3.03931 -1.93044 0.282001 3.09342 -1.92067 0.279537 
3.14655 -1.90547 0.268882 3.19726 -1.87584 0.249809 3.24766 -1.84242 0.251584 
3.29633 -1.79622 0.273975 3.34385 -1.74188 0.301859 3.39159 -1.68155 0.321012 
3.44642 -1.61751 0.318608 -0.554078 -1.64207 -1.28517 -0.534923 -1.67017 -1.23978 
-0.666782 -1.53065 -1.28335 -0.739436 -1.39832 -1.23718 -0.800254 -1.21373 -1.17672 
-0.554726 -1.63582 -1.41366 -0.525465 -1.64975 -1.49279 -0.483059 -1.64915 -1.56383 
-0.435415 -1.62906 -1.62257 -0.399667 -1.59844 -1.67287 -0.394262 -1.56027 -1.71439 
-0.414032 -1.5147 -1.74578 -0.465073 -1.45497 -1.75181 -0.529805 -1.38228 -1.72686 
-0.599203 -1.27851 -1.68226 -0.657793 -1.16452 -1.5973 4.01564 -1.48192 -0.466196 
3.96689 -1.5084 -0.411581 3.92891 -1.53938 -0.361245 3.90318 -1.54975 -0.298693 
3.86066 -1.55037 -0.227639 3.80839 -1.55254 -0.156451 3.75884 -1.57293 -0.097692 
3.72087 -1.6039 -0.0473562 3.69752 -1.63052 0.00420685 3.65507 -1.63605 0.0736293 
[...]
POINT_DATA 813
SCALARS DY_raw double
LOOKUP_TABLE default
1079.68 1207.8 1320.09 1361.67 1365.22 1192.35 1521.83 1214.03 1186.04 
1124.95 925.114 1191.26 1190.12 1100.81 1584.94 1477.91 1496.27 1357.39 
1559.74 1372.47 1285.42 1812.57 1776.22 1048.74 858.101 814.642 1759.31 
1028.89 1442.01 1464.66 1454.57 1395.22 982.183 1158.11 1038.41 1498.6 
1746.65 1013.97 1301.81 997.751 1049.1 807.991 1419.37 1040.62 1174.75 
864.721 1199.69 1053.19 626.179 1337.82 651.678 895.893 712.964 992.327 
1094.76 1211.34 959.137 894.156 1014.98 1019.55 1068.86 998.129 1002.35 
968.361 1340.49 1274.48 951.943 865.166 1260.34 1413.03 806.469 1027.11 
1039.8 1044.5 1044.5 1129.44 1205.64 1030.6 1095.89 995.404 934.687 
846.94 846.94 871.791 1000.99 1000.99 1039.17 1098.15 1098.15 1020.97 
922.654 1005.14 873.238 934.945 915.929 907.009 955.801 941.093 1053.26 
1106.94 1053.9 1053.9 1019.2 1019.2 1017.88 1068.28 1176.89 1139.56 
1213.06 1330.19 1313.85 1282.1 1218.16 1166.64 1166.64 1222.22 1125.07 
1229.32 1102.14 953.396 1052.38 888.212 852.305 960.291 993.18 977.667 
1026.42 851.973 776.62 842.757 859.315 867.093 984.359 1118.25 1176.12 
1101.27 1062.25 959.745 926.866 1009.02 873.86 890.637 970.019 923.379 
923.379 842.437 864.611 946.177 972.835 935.653 1064.21 982.45 859.965 
938.769 795.398 813.269 902.245 930.872 1023.91 992.583 969.05 872.543 
931.368 904.496 975.035 1087.42 979.948 1036.02 1010.46 854.943 780.746 
754.429 659.241 813.047 845.154 925.591 1000.42 1073.37 1341.34 984.811 
894.803 974.208 853.387 943.003 893.882 864.499 872.824 896.824 866.172 
952.862 1046.86 1082.98 1085.25 909.164 837.231 909.066 898.085 860.147 
820.939 754.623 731.9 791.316 965.119 1012.63 1012.63 999.608 999.608 
984.682 1037.36 1037.36 887.729 889.502 959.385 1003.37 965.754 974.355 
974.355 986.212 984.54 1045.51 1073.58 1213.35 1109.47 1064.43 1142.07 
1000.07 1128.95 1019.1 1134.26 1071.08 1103.64 931.643 906.123 996.551 
944.258 1141.58 1132.14 973.405 973.405 898.854 891.173 969.624 946.356 
940.451 940.451 1058.36 1149.92 1100.01 1210.54 1210.54 1175.97 1116.96 
1026.78 975.217 927.037 1069.53 966.108 1046.96 1042.79 1064.02 1038.32 
974.338 869.953 993.832 967.462 887.555 813.446 813.446 831.974 783.781 
817.783 841.337 777.706 753.288 780.281 968.843 899.718 954.024 1136.39 
996.94 1008.2 1008.2 954.618 954.618 957.137 978.381 1047.24 1007.71 
967.726 1115.78 1046.21 1008.36 1034.44 1037.69 1083.58 1105.09 1125.97 
1197.7 1176.69 1007.73 1007.73 1015.32 1030.63 1149.25 1248.97 1305.89 
1361.55 1208.08 1262.34 1230.75 1155.11 1155.11 1122.56 1054.98 1086.22 
1067.02 1049.8 856.342 865.544 1135.55 1142.13 1081.08 1081.08 1033.28 
921.042 921.042 831.09 789.372 789.372 805.297 854.381 934.116 875.519 
944.125 917.011 947.929 947.929 1042.47 987.824 987.824 930.938 886.422 
941.863 965.15 946.76 923.083 975.396 975.396 1165.78 1285.2 1333.26 
944.16 865.344 935.525 922.294 910.814 845.391 774.651 760.105 782.182 
818.881 849.619 922.596 959.719 963.998 901.163 1002.03 974.615 972.005 
957.413 772.525 766.103 778.696 1018.88 922.47 812.925 738.507 1211.34 
1202.41 1254.43 1208.39 1309.89 1266.4 1116.4 1178.04 1241.34 1241.34 
1173.44 1115.62 1115.62 1093.19 1072.26 1132.45 1056.35 1020.63 992.293 
941.666 977.935 1019.55 1019.55 915.276 910.036 910.036 815.966 815.966 
807.875 897.139 974.996 914.385 820.022 877.81 727.173 751.057 888.042 
844.08 844.08 884.317 879.694 942.616 995.571 999.389 1125.94 949.1 
895.24 1028.6 974.987 982.427 1107.58 940.215 1054.37 1050.32 1023.61 
994.392 1049.54 953.337 1012.25 1004.75 1012.86 1065.17 1124.35 1219.75 
1315.72 1256.19 1044.72 1179.84 1234.67 910.165 972.715 1122.62 706.76 
736.44 716.498 793.362 906.696 959.494 919.351 1023.82 900.311 949.781 
939.48 988.975 951.906 972.251 1005.2 1010.19 1216.26 1262.21 1241.41 
1247.84 1265.13 1314.42 1362.89 1350.9 1316.9 1310.47 1243.8 751.616 
1103.93 1081.63 1124.1 1256.88 1279.51 1273.21 1161.06 1378.78 1395.09 
975.338 954.744 983.309 975.283 1148.39 1078.15 1176.27 1314.32 1352 
784.225 874.258 876.149 850.896 968.1 898.646 952.996 1030.06 1030.06 
1055.58 1084.36 1084.36 1117.98 1115.28 1219.08 1127.31 1221.13 1307.22 
1134.4 1227.8 1181.49 1031.42 1126.77 977.21 1005.05 1163.03 1043.53 
1038.59 1157.68 1029.6 1111.54 1185.43 1074.84 1247.25 1108.31 1180.56 
1328.53 1041.94 1129.46 1221.06 1052.53 1365.29 1249.73 1232.93 1266.29 
1147.61 1132.94 1182.61 1092.91 1215.82 1256.94 1256.94 1469.01 1444.33 
1509.63 1541.78 1656.84 1562.12 1561.63 1442.05 1393.83 1508.13 1320.86 
1345.95 1267.58 1161.87 1051.43 980.632 1028.44 1066.94 1218.95 1150.24 
1247.15 1385.09 1314.4 860.963 943.967 1027.95 1082.7 1057.96 1072.17 
1027.76 1126.91 1022.42 1080.52 1219.79 1251.42 1286.54 1317.47 1018.42 
962.568 951.354 946.452 1367.08 1322.45 1349.4 1462.49 1180.9 1301.87 
1500.7 1444.83 1287.28 1302.71 1400.13 1324.85 1238.93 1294.53 932.127 
928.2 952.426 1090.61 1495.8 1609.67 1522.39 1381.33 1260.91 1087.25 
997.751 1086.25 1296.29 1065.68 1237.68 1402.82 1253.27 1150.41 1353.13 
1557.67 1339.02 1184.91 1425.7 1223.85 1188.6 1109.3 1065.45 1125.32 
1048.74 1232.17 867.635 941.576 1007.74 1141.61 1413.84 1485.4 1486.59 
1454.45 1432.95 1432.95 1376.34 1559.9 1559.9 1764.29 1691.32 1237.74 
1257.35 1075.07 1034.1 1068.69 1591.18 1695.11 1507.29 1492.28 1185.59 
1255.6 1147.13 1006.77 902.152 848.912 825.675 781.787 831.063 852.978 
819.956 819.956 992.975 1061.8 1122.47 749.847 767.835 859.427 975.32 
1126.63 975.859 906.009 897.402 884.69 917.963 1050.72 1139.43 1118.05 
1166.41 1306.43 1223.96 1347.95 1513.17 1482.95 1450.44 1450.44 1548.06 
1429.32 1367.04 1520.98 1520.98 1396.64 1364.34 1456.67 1508.17 1403.13 
1368.79 1345.77 1345.77 1240.03 1149.1 1107.29 1190.44 1156.72 1191.95 
1227.39 1040.39 1589.23 1672.67 1737.85 1723.35 1188.87 1445.82 1492.17 
1378.04 1425.98 1518.77 1533.33 1575.77 1653.81 1670.23 1634.08 908.794 
1172.54 1320.58 1490.09 1614.65 1665.48 1449.8 1396.07 1285.26 1305.51 
1227.37 1187.47 1187.47 1232.84 1263.13 1263.13 1193.99 1198.65 1207.25 
1161.03 1197.04 850.916 839.971 902.273 1011.96 1173.48 1101.84 1150.25 
1172.75 1217.52 1217.52 1140.99 1215.73 1268.66 1238.08 1258.7 1155.2 
1105.35 1132.36 1157.91 1249.31 1218.73 1287.42 1173.1 1163.96 1228.04 
1204.73 1287.78 1153.86 1280.97 1344.34 1103.53 1238.24 1303.79 1298.67 
1350.96 1384.37 1386.75 1386.75 1190.25 1209.51 1248.41 1275.08 1300.87 
1416.29 1564.98 1632.64 1692.43 1769.96 1769.96 1663.51 1405.38 1494.2 
1448.7 1318.9 1343.05 1176.67 1232.06 1452.97 1365.22 1264.6 1352.45 
1240.76 1192.84 1207.8 
FIELD FieldData 7
DY_minmax 1 813 double
0.382255 0.490243 0.584891 0.61994 0.62293 0.477224 0.754939 0.495496 0.471901 
0.420414 0.251971 0.476306 0.475344 0.400065 0.808134 0.717919 0.733395 0.616334 
0.786891 0.629043 0.555674 1 0.969364 0.356176 0.195486 0.158854 0.955114 
0.339444 0.687656 0.706749 0.698243 0.648224 0.300074 0.448358 0.347465 0.735357 
0.944437 0.326864 0.569482 0.313196 0.356476 0.153248 0.668572 0.349327 0.462386 
0.201066 0.483408 0.359923 0 0.59984 0.0214929 0.227341 0.0731506 0.308624 
0.394967 0.493226 0.280649 0.225877 0.327717 0.331574 0.373137 0.313515 0.317073 
0.288424 0.602089 0.546446 0.274585 0.201441 0.53453 0.663233 0.151965 0.337939 
0.348638 0.352603 0.352603 0.424194 0.488423 0.340881 0.39592 0.311218 0.26004 
0.186079 0.186079 0.207025 0.31593 0.31593 0.348109 0.39782 0.39782 0.332767 
0.249897 0.319424 0.208245 0.260257 0.244228 0.236711 0.277837 0.26544 0.359981 
0.405231 0.360528 0.360528 0.331273 0.331273 0.330165 0.372643 0.464191 0.432725 
0.494678 0.593404 0.579635 0.552868 0.498975 0.455553 0.455553 0.502397 0.42051 
0.508386 0.401182 0.27581 0.359244 0.220866 0.190601 0.281621 0.309343 0.296267 
0.337363 0.19032 0.126806 0.182552 0.196509 0.203066 0.301908 0.414767 0.463545 
0.400452 0.367558 0.281161 0.253447 0.322697 0.208769 0.222911 0.289821 0.250508 
0.250508 0.182283 0.200973 0.269724 0.292194 0.260854 0.369215 0.300299 0.197057 
0.263481 0.142634 0.157697 0.232695 0.256824 0.335245 0.30884 0.289004 0.207659 
0.257242 0.234592 0.294049 0.388778 0.29819 0.345452 0.323905 0.192824 0.130283 
0.108102 0.0278676 0.15751 0.184573 0.252372 0.315446 0.376932 0.602809 0.302289 
0.226422 0.293352 0.191512 0.267049 0.225645 0.200878 0.207896 0.228126 0.202289 
0.27536 0.354593 0.385038 0.386945 0.238527 0.177895 0.238444 0.229188 0.19721 
0.164162 0.108265 0.0891116 0.139193 0.285691 0.325742 0.325742 0.314761 0.314761 
0.30218 0.346584 0.346584 0.220459 0.221953 0.280858 0.317928 0.286226 0.293476 
0.293476 0.30347 0.302061 0.35345 0.377112 0.494923 0.407367 0.369402 0.434838 
0.315148 0.423782 0.331192 0.428258 0.375001 0.40245 0.257474 0.235963 0.312184 
0.268107 0.434428 0.426471 0.292675 0.292675 0.229836 0.223362 0.289488 0.269875 
0.264898 0.264898 0.364286 0.441456 0.399387 0.492558 0.492558 0.46342 0.413681 
0.33766 0.294202 0.253592 0.373697 0.286525 0.354672 0.351158 0.36905 0.347393 
0.293461 0.205476 0.309893 0.287666 0.220312 0.157846 0.157846 0.173464 0.132842 
0.161502 0.181356 0.127722 0.107139 0.129892 0.28883 0.230565 0.276339 0.430052 
0.312512 0.322005 0.322005 0.27684 0.27684 0.278963 0.296869 0.354908 0.321587 
0.287888 0.412683 0.354045 0.322142 0.344121 0.346859 0.385538 0.403672 0.421267 
0.48173 0.464027 0.321609 0.321609 0.328005 0.340911 0.440891 0.52495 0.572922 
0.619842 0.490479 0.53622 0.509594 0.445833 0.445833 0.418399 0.361431 0.387762 
0.37158 0.357068 0.194003 0.201759 0.429345 0.434888 0.383436 0.383436 0.343143 
0.248539 0.248539 0.172719 0.137554 0.137554 0.150978 0.19235 0.259559 0.210167 
0.267995 0.245141 0.271201 0.271201 0.350892 0.304829 0.304829 0.25688 0.219358 
0.266088 0.285717 0.270216 0.250259 0.294353 0.294353 0.454829 0.555483 0.595996 
0.268025 0.201591 0.260746 0.249594 0.239918 0.184773 0.125146 0.112886 0.131494 
0.162427 0.188336 0.249848 0.281139 0.284745 0.231782 0.316799 0.293695 0.291495 
0.279195 0.123354 0.117941 0.128556 0.331002 0.249742 0.157407 0.0946809 0.493226 
0.485703 0.529552 0.490741 0.5763 0.539639 0.413208 0.465162 0.518513 0.518513 
0.461286 0.412549 0.412549 0.393643 0.376 0.426731 0.362587 0.332478 0.308595 
0.265922 0.296493 0.331568 0.331568 0.243678 0.239261 0.239261 0.15997 0.15997 
0.153151 0.228391 0.294016 0.242927 0.16339 0.212098 0.0851274 0.105259 0.220723 
0.183668 0.183668 0.217583 0.213687 0.266723 0.311359 0.314577 0.421248 0.272188 
0.22679 0.339203 0.294008 0.300279 0.405772 0.2647 0.360919 0.357505 0.334992 
0.310365 0.356852 0.275759 0.325417 0.319096 0.325933 0.370022 0.419907 0.500316 
0.581207 0.531029 0.352786 0.466678 0.512891 0.239371 0.292093 0.418444 0.0679209 
0.0929386 0.0761293 0.140918 0.236446 0.28095 0.247113 0.335171 0.231064 0.272762 
0.26408 0.305799 0.274553 0.291702 0.319479 0.323677 0.497374 0.536105 0.518577 
0.523995 0.538572 0.580113 0.620971 0.610866 0.582202 0.576787 0.520587 0.10573 
0.402698 0.383894 0.419693 0.531614 0.550687 0.545382 0.450846 0.634365 0.64811 
0.294304 0.276945 0.301023 0.294258 0.440171 0.380968 0.463672 0.580032 0.61179 
0.133216 0.209105 0.210698 0.189412 0.288204 0.229661 0.275472 0.340429 0.340429 
0.361944 0.386197 0.386197 0.414538 0.412261 0.499754 0.422405 0.501479 0.574048 
0.428375 0.5071 0.468066 0.341576 0.421949 0.295882 0.319352 0.452513 0.351786 
0.347618 0.447996 0.340045 0.409105 0.471386 0.378176 0.523493 0.406386 0.467281 
0.592008 0.350442 0.424212 0.501421 0.359371 0.622996 0.525587 0.511423 0.539548 
0.439508 0.427144 0.469009 0.393405 0.497008 0.531665 0.531665 0.710421 0.689612 
0.744657 0.771754 0.86874 0.788897 0.788488 0.687691 0.64705 0.743392 0.585541 
0.606695 0.540635 0.451528 0.358444 0.298766 0.339066 0.371513 0.499644 0.441732 
0.523415 0.639683 0.580095 0.197899 0.267862 0.338655 0.384795 0.363943 0.375924 
0.338493 0.42206 0.333986 0.382963 0.500349 0.527013 0.556612 0.582682 0.330614 
0.283541 0.274089 0.269956 0.624499 0.586884 0.609602 0.704921 0.467573 0.569534 
0.73713 0.690036 0.557238 0.570245 0.652357 0.588909 0.516484 0.563347 0.257882 
0.254572 0.274992 0.391466 0.732995 0.82898 0.755409 0.636515 0.535007 0.388632 
0.313196 0.387793 0.564837 0.370455 0.51543 0.654627 0.528572 0.441874 0.612745 
0.785152 0.600846 0.470949 0.67391 0.503776 0.474063 0.407223 0.370256 0.420724 
0.356176 0.510785 0.203522 0.265846 0.321619 0.434454 0.663919 0.724229 0.725232 
0.698149 0.680025 0.680025 0.632307 0.787026 0.787026 0.959311 0.897803 0.515481 
0.532013 0.378367 0.343839 0.372991 0.813397 0.900993 0.742683 0.730028 0.471526 
0.530539 0.439105 0.320797 0.232616 0.187741 0.168154 0.131161 0.172696 0.191167 
0.163334 0.163334 0.309171 0.367181 0.418325 0.104239 0.119401 0.196603 0.294289 
0.421827 0.294743 0.235867 0.228612 0.217898 0.245943 0.35784 0.432616 0.414593 
0.455358 0.573381 0.503862 0.608377 0.74764 0.72217 0.694768 0.694768 0.777045 
0.676963 0.624469 0.754224 0.754224 0.649415 0.622188 0.700014 0.743425 0.654892 
0.625944 0.606539 0.606539 0.517412 0.440768 0.40553 0.475613 0.447193 0.476882 
0.506756 0.349134 0.811753 0.882085 0.937021 0.924804 0.474293 0.690869 0.729942 
0.633741 0.674152 0.752361 0.764634 0.800402 0.866181 0.880029 0.849557 0.238215 
0.460524 0.585309 0.728188 0.833176 0.876019 0.694224 0.648941 0.555538 0.572602 
0.506742 0.473111 0.473111 0.511353 0.536879 0.536879 0.478609 0.482533 0.489779 
0.450824 0.481176 0.18943 0.180204 0.232718 0.325175 0.461317 0.40093 0.441739 
0.460704 0.498435 0.498435 0.433932 0.496932 0.541545 0.515768 0.533146 0.44591 
0.403892 0.426657 0.44819 0.525232 0.49946 0.557354 0.460994 0.453294 0.507301 
0.48766 0.557662 0.444782 0.551924 0.605337 0.402361 0.515903 0.571159 0.566842 
0.610913 0.639071 0.64108 0.64108 0.475449 0.491684 0.524472 0.546955 0.568693 
0.66598 0.791314 0.848337 0.898736 0.964086 0.964086 0.874365 0.656787 0.731648 
0.693302 0.583887 0.604249 0.464004 0.510694 0.696901 0.62293 0.538124 0.612167 
0.518031 0.477639 0.490243 
WidthEq 1 813 double
1.94045 2.0623 1.87296 1.90359 1.95802 1.97227 1.71272 1.96479 1.70825 
2.77934 2.76691 3.38209 1.98369 2.06782 2.2808 1.73778 1.60578 2.89091 
2.32173 1.95713 3.23926 1.58925 1.50252 2.79962 2.11074 1.15244 1 
2.30836 1.62025 1.90053 2.18646 1.28572 1.46609 1.52857 2.7545 2.42876 
1.63359 3.21185 2.40681 2.50188 3.08235 1.82471 2.20012 3.31139 2.6508 
4.61852 2.75935 1.95065 3.60462 2.89185 3.42029 3.83489 3.76692 4.39311 
3.02713 2.82731 3.36547 2.95194 2.89904 3.51389 2.61278 4.40181 4.62819 
4.19074 1.75112 2.77507 4.3035 4.59857 2.43136 1.67162 3.2296 2.85933 
2.92857 2.76367 2.76367 2.55906 2.39523 2.5868 2.46556 2.5944 2.68559 
3.14317 3.14317 3.3643 3.28731 3.28731 3.15592 3.0938 3.0938 3.1709 
3.31079 3.20939 3.7182 3.63687 3.65125 3.94934 3.75473 4.10692 2.937 
2.76977 2.79087 2.79087 2.6477 2.6477 2.62742 2.65067 2.59166 2.92213 
2.93973 2.82877 2.7988 2.7383 2.89283 2.77373 2.77373 2.71966 2.89166 
2.7919 3.02345 3.43873 3.34366 3.91933 4.09572 3.79023 3.39918 3.03908 
2.91429 3.26053 3.16936 2.83155 2.70992 2.50115 2.64123 2.32103 2.46704 
2.73795 2.65358 2.80687 2.89899 2.83724 3.0504 3.06704 2.95443 3.25908 
3.25908 3.38171 3.5037 3.35905 3.23307 3.09573 2.8107 2.76745 2.9626 
2.80394 3.05542 3.03606 2.91616 2.82247 2.73299 2.78369 2.92763 3.13418 
3.08609 2.68143 2.35781 2.3384 2.5716 2.73443 3.08775 3.61885 3.71229 
3.80048 3.65097 4.28399 4.45794 4.34463 4.17713 2.90481 2.63836 3.21786 
3.34822 3.26634 3.24185 3.09922 2.91801 2.85063 2.6315 2.63546 2.7485 
2.64745 2.67944 2.71479 2.70889 3.29114 3.55742 3.4424 3.51498 5.26155 
4.75385 4.24184 4.64417 4.84946 4.70756 3.98319 3.98319 3.6732 3.6732 
3.65043 3.51761 3.51761 3.55606 3.68969 3.60298 3.59485 3.92432 4.07024 
4.07024 4.30877 4.33249 4.07431 4.20264 3.9752 4.16499 4.23452 4.01525 
4.21217 4.0374 4.35478 4.113 4.02428 3.76555 3.62508 3.62369 4.31655 
4.37597 2.83881 2.26706 2.28345 2.28345 2.56929 3.06817 3.00776 3.15965 
3.1189 3.1189 2.96418 2.91437 2.78895 2.74028 2.74028 2.61924 3.37153 
3.67371 3.56611 3.50133 3.34579 3.48824 3.42069 3.79234 3.89519 3.92541 
4.0587 3.62418 4.2781 4.26293 4.43161 4.63307 4.63307 4.56048 4.48078 
4.30781 4.06106 4.15606 4.1346 3.90187 3.35388 3.27289 3.06759 2.71176 
2.74469 2.81089 2.81089 3.22245 3.22245 3.30809 3.42126 3.31112 3.42256 
3.49115 3.23445 3.44885 3.51197 3.43546 3.39294 3.31882 3.21844 3.06294 
2.92897 2.90682 3.10779 3.10779 2.97207 2.85629 2.70175 2.45777 2.32674 
2.2836 2.34303 2.26019 2.30613 2.32544 2.32544 2.38728 2.57509 2.56286 
2.75092 4.25571 5.22816 5.05017 2.67943 2.94587 3.25866 3.25866 3.32572 
3.34898 3.34898 3.28971 3.28521 3.28521 3.15927 3.07638 2.95742 2.94387 
2.84526 2.81474 2.58794 2.58794 2.25799 2.24394 2.24394 2.33318 2.38869 
2.52074 2.89895 3.20336 3.54299 3.52638 3.52638 3.4815 3.07106 2.79004 
3.77726 3.79326 3.75256 4.00309 3.88354 4.30289 4.60668 4.82944 4.65257 
4.8098 4.75246 2.84661 2.88618 2.70513 2.632 2.43967 2.45214 2.43127 
2.50578 3.03962 3.36518 3.66811 3.03997 3.05864 3.26647 3.61261 2.82731 
2.95559 2.86679 2.87765 2.53957 2.34348 2.54339 2.49797 2.52009 2.52009 
2.92689 3.09553 3.09553 3.20266 3.19032 3.13824 3.23467 3.27277 3.27056 
3.14679 3.36877 3.36327 3.36327 3.32383 3.22462 3.22462 2.96568 2.96568 
2.84832 2.66586 2.61266 2.85501 3.13116 3.05457 3.66266 3.68544 3.38955 
3.61944 3.61944 3.58516 3.31325 3.30158 3.06334 2.77722 2.73539 2.91702 
3.03478 2.82958 3.05207 3.27667 3.12495 3.69851 3.49701 3.58925 3.48013 
3.17124 2.87692 2.93953 2.68806 2.451 2.31984 2.18325 1.95088 1.84423 
1.5997 1.49001 4.37789 3.78721 3.47861 3.94361 3.4233 2.93167 3.90296 
3.73135 3.57732 3.46405 3.26603 3.05146 3.08708 2.71374 2.88682 2.87231 
2.92387 3.02814 3.27182 3.2215 3.67543 3.45994 3.06534 2.85167 2.60648 
2.3691 2.47989 2.40448 2.28291 2.23358 2.13716 2.30704 2.54995 4.93179 
2.52945 2.7 2.81292 2.4965 2.46068 2.65662 3.21539 2.88127 2.52993 
4.3519 3.97995 3.51513 3.45537 3.17147 3.30243 3.1656 2.86705 2.16727 
4.83038 4.21536 3.85473 3.88635 3.33412 3.19339 3.01143 2.82664 2.82664 
2.55261 2.5336 2.5336 2.4446 2.4361 2.38113 2.37759 2.34267 2.35843 
2.70558 2.61844 2.75214 3.21464 3.08659 3.41241 3.45689 3.27348 3.38442 
3.14114 2.91967 2.8334 2.75727 2.56362 2.55629 2.45416 2.44679 2.29069 
2.11889 2.13957 1.9373 1.91708 1.79904 1.60367 1.71816 1.73576 1.87287 
1.97135 2.11154 2.04837 2.11548 1.8599 1.74023 1.74023 1.48899 1.55068 
1.4776 1.46362 1.4458 1.59084 1.62279 1.76083 1.824 2.02882 2.35034 
2.26759 2.22026 2.2522 2.42101 2.80807 3.00295 3.14832 2.98999 3.23363 
3.10482 2.71536 2.76708 2.19794 2.64131 2.58394 2.65836 2.60489 2.46457 
2.40521 2.30073 2.28593 2.21916 2.09908 2.12244 2.17432 2.10942 2.97737 
2.73312 2.59502 2.42259 2.73052 2.47104 2.44587 2.37819 2.86649 2.63085 
2.26792 2.25259 2.34578 2.2243 2.13486 2.27463 2.56121 2.87356 3.31859 
3.24734 3.0509 2.8733 2.11743 2.18262 2.1776 2.26484 2.38636 2.72965 
2.50188 2.52833 2.34034 2.18422 1.53438 2.19216 2.70016 2.77994 2.40603 
2.17818 2.30671 2.35569 2.3447 2.49904 2.51631 2.64082 2.75298 2.67194 
2.79962 2.59924 1.75546 1.78283 2.22654 2.41399 2.37475 2.14307 2.05444 
1.89463 1.75507 1.75507 1.73989 1.55785 1.55785 1.3803 1.2022 2.14229 
2.09452 2.3918 2.60285 2.92736 1.70568 1.6552 2.434 2.4443 2.34138 
2.20299 2.24092 2.10066 1.89667 2.05125 2.20728 2.39709 2.29165 2.52695 
2.97158 2.97158 2.82809 3.02205 3.0911 1.96921 2.49066 2.47946 2.91505 
2.58033 2.32372 2.52536 2.58411 2.54379 2.72861 2.71258 2.63347 2.63293 
2.25968 3.38025 3.676 3.06198 1.96244 2.12479 2.12305 2.12305 1.97989 
1.9978 2.01339 1.90396 1.90396 1.94455 2.00022 1.96314 1.92546 2.06745 
2.15547 2.37221 2.37221 2.55851 2.62221 2.4186 2.32981 2.34445 2.32852 
2.44739 2.94246 2.26321 2.21537 2.1886 2.2118 2.76643 1.97465 1.7626 
2.65463 2.57115 2.23972 2.11594 2.07751 2.07165 2.16144 2.69153 2.63304 
2.27262 2.0527 1.91765 1.7196 1.69327 1.61619 1.62833 1.61277 1.62631 
1.62729 1.63335 1.63335 1.54382 1.55472 1.55472 1.74237 1.80027 1.84163 
1.95372 1.97249 3.15714 3.1967 3.0645 2.66552 2.0249 2.09462 2.08286 