# vtk DataFile Version 3.0
vtk output
ASCII
DATASET POLYDATA
POINTS 913 float
2.67954 0.635058 1.68417 2.20413 1.08542 1.58026 0.513811 0.236249 1.35937 
2.57727 -0.481233 1.24289 3.27621 0.207316 1.24608 1.34783 -1.06676 0.833399 
2.90443 1.21015 1.08696 1.12617 -1.28322 0.559986 1.50166 -1.24713 0.583487 
-0.316719 -0.489542 0.512548 1.89878 -1.24857 0.390516 2.63057 1.87895 0.841857 
2.82886 1.66472 0.7917 0.315915 1.25364 0.312691 2.93357 1.92029 0.656898 
3.96858 0.581192 0.335843 3.75347 -0.0104965 -0.0379649 2.64825 -1.02473 -0.557862 
1.54074 2.25885 -0.0632883 0.376354 1.66769 -0.416644 -0.190616 0.982621 -0.331169 
-0.64823 0.00954339 -0.678062 -0.606782 -0.280488 -0.823382 2.51969 -1.07672 -0.783736 
2.0725 -1.31005 -0.931844 0.899687 1.84247 -0.336696 6.06765 0.559184 -0.55973 
5.49856 0.0643116 -0.575271 6.14907 0.195972 -0.516018 5.33992 0.398243 -0.698748 
3.82775 1.52684 -0.658911 4.06586 0.287965 -0.982415 6.62021 0.326177 -0.878155 
6.76693 0.0940349 -0.935016 4.81309 0.568417 -1.25265 5.62333 0.687272 -1.09427 
6.19821 0.738473 -0.990307 4.64018 0.306877 -1.43967 6.76851 0.313766 -1.08322 
2.58027 2.45817 -1.0578 3.02847 2.23448 -0.912936 3.46555 2.15986 -0.916863 
6.12873 0.607921 -1.23508 1.3552 -1.06738 -1.92915 0.877799 1.8196 -1.31056 
6.50648 -0.697915 -1.7786 2.54053 2.2768 -1.33394 3.33319 0.114922 -1.95366 
5.11272 -0.340166 -1.94115 6.8942 -0.0207928 -1.94724 6.58677 -0.0469661 -2.13057 
0.1081 0.914631 -1.996 -0.171208 0.421202 -2.13862 3.55257 1.37539 -1.74565 
5.2168 0.991056 -1.78748 5.32545 0.858938 -1.81892 5.8982 0.888083 -1.79002 
6.26382 0.611435 -2.05796 6.35187 0.309597 -1.92847 1.03786 1.45689 -2.02355 
3.58668 1.66305 -1.87445 5.28897 1.17869 -1.9417 1.49768 -0.365208 -2.49531 
1.53361 1.45196 -2.21382 0.708563 1.16527 -2.32108 2.9179 1.64985 -2.1098 
1.56692 0.419822 -2.60645 2.84897 0.399018 -2.44781 2.3814 -0.0088248 -2.5744 
5.98404 0.752271 -2.23768 0.965519 1.02074 -2.55758 0.862388 0.984905 -2.57099 
1.43821 0.392244 -2.70875 2.87407 0.608053 -2.59802 2.85146 0.50709 -2.5185 
1.4962 0.409715 -2.66164 1.63684 0.379668 -2.57052 1.67596 0.325091 -2.55877 
1.70928 0.279662 -2.57357 1.75605 0.2416 -2.59165 1.79921 0.205613 -2.61506 
1.85493 0.184274 -2.63408 1.91487 0.18001 -2.64837 1.98098 0.156802 -2.64448 
2.04981 0.118892 -2.62142 2.11839 0.0790653 -2.59121 2.18407 0.0520568 -2.57301 
2.24503 0.0426695 -2.56561 2.31151 0.0214142 -2.56887 0.905926 1.02392 -2.55892 
0.804433 1.00496 -2.49868 0.770303 1.03511 -2.43046 0.74778 1.07295 -2.37509 
0.727857 1.11718 -2.34094 0.921718 0.97981 -2.5625 1.01472 1.0214 -2.48653 
1.06545 1.03367 -2.45835 1.11714 1.05909 -2.47265 1.16586 1.09754 -2.49892 
1.20818 1.14759 -2.50696 1.25176 1.1891 -2.50189 1.29325 1.2335 -2.48846 
1.33998 1.26411 -2.47853 1.38672 1.29472 -2.4686 1.42791 1.33729 -2.44799 
1.46946 1.37108 -2.4067 1.50379 1.41081 -2.32572 6.58648 0.133061 -2.2264 
6.55276 0.231593 -2.2933 6.51144 0.281771 -2.29501 6.45186 0.302316 -2.22603 
6.39159 0.306953 -2.09655 5.925 0.671037 -2.23095 5.86865 0.621646 -2.19255 
5.80999 0.592474 -2.12579 5.74589 0.57601 -2.04048 5.68783 0.551671 -1.98008 
5.6345 0.527937 -1.95771 5.58302 0.517626 -1.98539 5.52868 0.520046 -2.02511 
5.46921 0.530731 -2.04746 5.41686 0.50706 -2.03271 5.37244 0.454684 -2.00234 
5.32402 0.412858 -1.9693 5.27579 0.37834 -1.95732 5.2292 0.344737 -1.96037 
5.17169 0.342441 -1.9631 5.11184 0.34631 -1.96427 5.04522 0.365346 -1.95394 
4.97516 0.388178 -1.92737 4.90661 0.394564 -1.86935 4.83981 0.374688 -1.77226 
4.75446 0.347848 -1.62144 6.07096 0.69603 -2.1805 6.15811 0.648505 -2.12097 
5.95398 0.816089 -2.1833 5.9099 0.848645 -2.09945 5.88837 0.868144 -1.96456 
2.41385 0.0514974 -2.53401 2.44976 0.102736 -2.49592 2.4921 0.142278 -2.47609 
2.53386 0.188584 -2.4698 2.58205 0.223194 -2.48177 2.63343 0.246802 -2.4889 
2.68461 0.268552 -2.48885 2.73309 0.298371 -2.47907 2.78232 0.348215 -2.46389 
2.39685 -0.085648 -2.487 2.41463 -0.158007 -2.41367 2.44412 -0.222649 -2.35318 
2.49948 -0.274532 -2.30366 2.56592 -0.31704 -2.26658 2.6312 -0.345902 -2.24122 
2.69067 -0.359197 -2.2119 2.75073 -0.379253 -2.16903 2.80462 -0.3857 -2.11505 
2.85524 -0.380951 -2.06587 2.90538 -0.367121 -2.03729 2.95256 -0.340283 -2.02068 
2.99472 -0.297649 -2.0077 3.04149 -0.267128 -1.99779 3.08799 -0.238526 -1.98073 
3.1296 -0.199636 -1.95343 3.17554 -0.174767 -1.92205 3.22144 -0.143593 -1.90688 
3.25955 -0.0823342 -1.90695 3.2955 0.00515545 -1.92821 2.92904 0.354779 -2.38766 
2.99339 0.331118 -2.33025 3.05502 0.308808 -2.28792 3.11446 0.294097 -2.25386 
3.17975 0.257844 -2.20235 3.25166 0.196053 -2.10117 2.9882 1.61594 -2.10863 
3.05734 1.57985 -2.09275 3.12219 1.54719 -2.05308 3.18091 1.52805 -2.00233 
3.24164 1.50622 -1.9599 3.30048 1.49459 -1.93016 3.36174 1.47661 -1.90203 
3.42072 1.45939 -1.85844 3.48504 1.42289 -1.80447 1.51458 1.50197 -2.20111 
1.49555 1.55198 -2.1884 1.47652 1.602 -2.17568 1.45738 1.65197 -2.16298 
1.43628 1.69944 -2.14336 1.40518 1.73978 -2.11066 1.35737 1.76883 -2.05858 
1.31405 1.79762 -1.99874 1.26433 1.82601 -1.94691 1.22018 1.8617 -1.91594 
1.16104 1.89202 -1.89463 1.09599 1.90447 -1.86299 1.03646 1.88201 -1.79447 
0.976797 1.84671 -1.67567 0.917938 1.82661 -1.50673 1.60759 1.44489 -2.31276 
1.67989 1.43181 -2.38267 1.74741 1.41823 -2.41453 1.8089 1.41268 -2.42142 
1.87537 1.39142 -2.42468 1.945 1.35927 -2.42307 2.0141 1.32327 -2.40715 
2.07896 1.29061 -2.36748 2.13767 1.27147 -2.31674 2.19871 1.25147 -2.28149 
2.25923 1.24586 -2.28076 2.32627 1.23614 -2.31927 2.39321 1.23193 -2.37166 
2.45115 1.24875 -2.41106 2.50398 1.26855 -2.41915 2.55577 1.28068 -2.39864 
2.61055 1.27449 -2.35224 2.67376 1.24353 -2.3045 2.73728 1.21439 -2.26394 
2.79352 1.21219 -2.23943 2.84969 1.2154 -2.22883 2.91133 1.20684 -2.22886 
2.97118 1.20298 -2.22769 3.03349 1.19266 -2.22816 3.09369 1.18499 -2.22033 
3.15752 1.15746 -2.20234 3.21469 1.11173 -2.16646 3.25793 1.05746 -2.12571 
3.31385 1.00931 -2.09052 3.36875 0.966278 -2.07702 3.40051 0.918864 -2.08089 
3.42136 0.869484 -2.09337 3.43867 0.818876 -2.1063 3.44652 0.764977 -2.12047 
3.43991 0.704228 -2.12933 3.44687 0.644544 -2.12206 3.4607 0.58177 -2.09235 
3.46625 0.512461 -2.04934 3.45562 0.435706 -2.00125 3.44804 0.36058 -1.95516 
3.42399 0.282724 -1.92577 3.38541 0.202459 -1.9257 6.29292 0.501038 -1.98673 
6.31438 0.421166 -1.9383 6.33306 0.361628 -1.92289 1.47854 -0.452224 -2.41959 
1.49147 -0.52079 -2.36844 1.51957 -0.576784 -2.34405 1.50989 -0.645905 -2.32457 
1.47852 -0.731124 -2.27441 1.44165 -0.829869 -2.18202 1.40112 -0.941858 -2.06007 
5.25302 1.08583 -1.86816 3.60133 1.59508 -1.82307 3.60516 1.52518 -1.78028 
3.58414 1.45029 -1.7551 0.975513 1.50122 -2.11372 0.917361 1.52409 -2.17879 
0.856104 1.54208 -2.20691 0.796252 1.54594 -2.20808 0.733859 1.54864 -2.18663 
0.676552 1.53016 -2.14765 0.622514 1.50047 -2.10388 0.569999 1.46939 -2.06811 
0.521807 1.43478 -2.05614 0.480051 1.38848 -2.06243 0.437444 1.34702 -2.07511 
0.400708 1.29013 -2.09172 0.366838 1.22571 -2.11025 0.32984 1.1669 -2.11971 
0.286443 1.11969 -2.11094 0.243406 1.0637 -2.0815 0.19487 1.01956 -2.0414 
0.147189 0.975774 -2.00886 6.70374 -0.0516996 -2.06827 6.7788 -0.0485081 -2.01862 
6.83836 -0.0411091 -1.9782 6.92095 0.032047 -1.90523 6.9478 0.0944847 -1.86831 
6.98217 0.1443 -1.82299 7.02116 0.180264 -1.78504 7.04368 0.225136 -1.74148 
7.03762 0.272189 -1.70607 7.01938 0.315059 -1.66455 6.9967 0.351019 -1.60202 
6.96172 0.375289 -1.51238 6.90071 0.379394 -1.39074 6.83156 0.361196 -1.24469 
6.55264 -0.0539542 -1.87875 6.54324 -0.0467347 -1.66996 6.51711 -0.028337 -1.5415 
6.46235 0.0027848 -1.50788 6.40871 0.0535533 -1.54996 6.38063 0.127815 -1.64618 
6.36495 0.215516 -1.77672 6.23233 0.586837 -1.75875 6.19133 0.581307 -1.48548 
5.8299 0.875762 -1.68329 5.77065 0.822218 -1.54123 5.70943 0.741128 -1.34269 
5.92147 0.811727 -1.63314 5.96563 0.758493 -1.48463 6.03528 0.692948 -1.35384 
5.30441 0.90825 -1.80647 5.27238 0.953747 -1.79544 5.16839 0.99615 -1.87999 
5.1184 0.989737 -1.92959 5.06631 0.967985 -1.92199 5.01313 0.93866 -1.88577 
4.95905 0.909074 -1.84197 4.90155 0.888481 -1.7959 4.8386 0.871789 -1.71674 
4.78736 0.816853 -1.59677 4.77193 0.708825 -1.43599 3.60815 1.33808 -1.75361 
3.64018 1.29259 -1.76464 3.66112 1.24324 -1.7771 3.68026 1.19326 -1.7898 
3.69929 1.14325 -1.80251 3.71795 1.09128 -1.80809 3.73465 1.03681 -1.80674 
3.74145 0.975243 -1.79231 3.7343 0.910656 -1.78687 3.74137 0.851006 -1.77958 
3.75833 0.79845 -1.78538 3.7763 0.740767 -1.7695 3.79567 0.679912 -1.73906 
3.82485 0.613454 -1.67139 3.87827 0.553637 -1.5857 3.93826 0.499083 -1.46767 
3.9922 0.452559 -1.32468 4.03937 0.380764 -1.15802 -0.156458 0.353266 -2.08723 
-0.150708 0.284029 -2.04419 -0.158739 0.213658 -2.01732 -0.153492 0.153378 -2.01028 
-0.147813 0.0968997 -2.01754 -0.156347 0.0354822 -2.02665 -0.160456 -0.0280487 -2.02082 
-0.170466 -0.100935 -1.98702 -0.165346 -0.174044 -1.92969 -0.151282 -0.247694 -1.85685 
-0.134986 -0.316921 -1.79807 -0.11806 -0.382274 -1.75358 -0.100608 -0.443791 -1.7234 
-0.0834191 -0.507226 -1.68606 -0.0662306 -0.570664 -1.64872 -0.0486753 -0.632144 -1.61852 
-0.0286242 -0.68728 -1.60955 0.00131903 -0.735327 -1.61366 0.0458328 -0.776485 -1.62306 
0.0778581 -0.821981 -1.63408 0.109977 -0.867445 -1.64509 0.156404 -0.907938 -1.65424 
0.199708 -0.949516 -1.6638 0.258922 -0.985565 -1.67129 0.3259 -1.01892 -1.67777 
0.384954 -1.05685 -1.67809 0.429597 -1.1015 -1.67308 0.487561 -1.14147 -1.65865 
0.551697 -1.16719 -1.64784 0.612297 -1.17854 -1.63331 0.677938 -1.20544 -1.61507 
0.745846 -1.24351 -1.58442 0.810292 -1.27249 -1.55145 0.86657 -1.27479 -1.52697 
0.92297 -1.26957 -1.5235 0.984764 -1.27071 -1.54455 1.0427 -1.25389 -1.58395 
1.10091 -1.23515 -1.6305 1.16385 -1.22779 -1.68249 1.22254 -1.20305 -1.73765 
1.28366 -1.15055 -1.82107 6.5562 -0.238958 -1.95893 6.53181 -0.369592 -1.82604 
6.52194 -0.455704 -1.7557 6.50132 -0.528007 -1.7409 6.48343 -0.592675 -1.75122 
6.48947 -0.647202 -1.76563 5.04691 -0.320675 -1.93834 4.98583 -0.31326 -1.9386 
[...]
POINT_DATA 913
SCALARS DY_raw double
LOOKUP_TABLE default
711.661 701.415 531.836 576.379 670.858 626.208 655.915 546.493 615.935 
554.605 668.266 746.605 599.461 584.954 607.058 708.651 655.542 696.385 
486.119 476.976 607.515 524.411 643.733 520.765 643.376 592.674 971.075 
725.665 900.267 856.659 563.912 700.727 724.606 1081.51 636.08 797.448 
1020.93 779.233 869.229 700.198 557.215 897.294 861.378 438.55 594.092 
574.923 531.533 557.721 756.86 728.978 642.056 593.08 764.412 738.308 
769.605 845.46 701.57 709.967 694.378 823.795 868.663 1137.26 607.801 
777.733 843.779 957.432 724.286 640.731 550.959 575.881 632.601 612.676 
629.052 838.765 672.794 652.218 755.192 732.556 805.883 814.394 886.394 
889.505 907.851 827.385 1002.02 938.858 764.96 665.463 601.628 632.601 
634.294 705.572 843.988 814.606 662.276 751.068 841.799 867.673 818.646 
845.738 863.253 863.253 829.539 709.903 718.645 680.253 713.776 891.795 
875.193 874.306 912.362 793.328 559.11 575.815 612.641 678.923 780.33 
780.33 776.088 732.545 732.545 747.167 794.357 865.797 835.593 835.593 
823.883 772.486 838.081 765.598 796.019 809.054 844.833 627.179 706.313 
653.928 701.552 673.496 689.59 800.12 885.792 777.016 644.139 644.139 
586.235 558.153 560.904 653.693 678.835 591.39 703.177 700.985 610.521 
544.308 577.193 628.151 570.365 611.126 560.808 504.631 504.631 544.896 
529.404 569.495 525.445 550.736 558.448 635.419 625.187 689.42 644.19 
527.76 485.147 891.557 873.134 845.266 847.341 890.171 856.587 829.398 
751.353 695.247 785.947 785.947 853.973 841.393 841.393 799.22 799.22 
727.067 724.079 693.151 668.416 644.406 689.274 647.926 609.641 870.453 
825.342 870.382 1077.86 1001.14 1132.29 1041.22 964.068 969.921 1005.54 
881.443 997.903 912.918 949.789 967.395 847.034 872.924 916.985 859.839 
846.825 755.881 755.881 674.462 674.462 614.787 596.518 587.746 649.825 
685.595 816.486 789.071 789.071 766.212 659.699 659.699 584.295 604.962 
639.069 597.628 635.58 646.961 651.175 688.815 665.994 665.744 670.437 
669.967 478.524 490.61 425.775 432.694 428.53 940.39 801.387 842.697 
790.049 653.568 686.689 635.292 678.972 680.981 680.981 675.875 652.063 
663.617 663.617 616.87 591.248 591.248 581.277 525.389 563.3 587.023 
599.307 713.204 738.112 670.687 744.11 789.3 862.289 913.312 957.372 
936.93 936.93 855.3 917.047 858.957 915.834 768.022 777.084 764.478 
787.581 768.519 750.172 698.122 803.759 715.666 680.967 704.019 754.862 
766.491 775.761 800.015 750.47 840.709 751.814 704.143 691.442 766.089 
791.043 690.187 718.798 752.757 670.712 738.308 755.887 782.315 782.315 
816.023 826.416 881.972 868.194 932.804 902.899 807.041 863.246 724.764 
783.006 821.419 780.832 661.125 610.401 818.926 811.155 668.563 730.314 
636.278 559.555 529.928 502.686 526.429 562.48 575.733 592.065 651.515 
658.742 712.012 775.827 794.716 794.716 750.742 711.484 787.02 656.813 
669.577 762.789 630.95 678.708 634.789 615.492 585.254 524.59 671.052 
750.659 735.788 771.679 768.854 768.854 644.29 583.964 545.043 514.127 
471.194 593.633 625.137 656.509 606.089 637.597 621.048 715.987 789.901 
813.458 845.087 845.087 862.385 862.385 876.726 866.584 831.446 752.094 
708.641 682.427 691.984 586.711 633.192 675.678 638.961 563.113 623.593 
566.274 556.04 512.433 589.8 585.892 606.359 597.914 614.385 657.417 
644.484 656.454 670.362 568.066 626.831 528.421 517.176 549.24 469.202 
440.26 454.446 487.09 466.768 513.094 492.891 552.198 588.332 530.766 
546.654 543.708 546.07 575.261 574.849 956.398 815.308 814.63 796.906 
738.476 897.294 813.313 702.682 702.682 672.978 650.771 631.237 603.311 
594.784 561.674 550.56 557.215 572.155 601.124 633.983 639.257 669.275 
644.475 955.082 1006.74 1056.82 702.243 689.483 767.869 879.297 879.297 
885.442 987.434 947.867 881.995 833.826 833.826 732.838 675.107 675.107 
665.003 758.166 843.327 863.502 758.316 718.35 794.083 912.422 990.033 
924.373 845.961 801.603 788.945 788.945 746.054 732.065 723.665 831.912 
958.809 1081.37 947.606 970.301 1005.58 759.364 740.581 746.939 655.885 
659.103 781.693 843.998 886.523 799.273 855.792 752.826 728.352 834.85 
830.532 847.241 886.012 864.692 716.896 870.306 660.581 706.649 637.322 
697.913 729.519 658.204 643.425 697.47 649.438 651.482 651.482 570.265 
593.047 597.913 649.772 671.258 733.193 863.925 751.349 751.349 785.73 
890.071 862.303 939.96 806.087 741.894 433.638 472.657 446.929 482.344 
497.452 639.278 603.315 603.315 623.141 638.46 619.418 623.769 606.516 
627.677 569.799 541.027 527.365 536.559 536.971 553.441 550.787 849.073 
838.608 810.321 753.237 682.735 682.735 660.795 720.677 720.677 690.389 
959.61 1018.63 1017.15 1034.69 618.928 558.715 522.699 512.113 514.96 
608.916 611.414 678.943 678.943 739.27 739.27 776.14 689.834 769.334 
679.8 711.225 711.225 615.866 604.294 613.415 573.561 544.78 535.527 
526.729 525.865 553.013 560.153 553.216 535.824 561.389 544.118 508.981 
534.975 528.29 510.49 468 506.679 535.573 518.198 634.575 580.567 
543.944 520.025 602.878 635.882 625.29 620.955 588.544 557.802 571.326 
566.347 566.052 568.188 492.647 492.647 516.506 467.284 467.284 441.802 
449.986 460.67 722.664 812.789 879.574 870.147 746.933 738.765 725.092 
582.031 540.663 572.134 633.844 611.227 538.403 559.163 599.13 601.289 
687.697 801.054 797.702 770.431 770.716 794.262 775.342 804.709 684.816 
645.417 672.315 649.257 612.384 580.789 507.617 502.503 600.184 617.203 
642.107 611.266 581.801 602.623 599.405 468.527 520.933 564.83 548.394 
638.079 639.769 639.769 579.329 620.674 620.674 593.452 596.408 574.644 
606.059 550.13 595.587 646.888 635.274 734.281 658.299 658.121 577.144 
599.15 581.075 567.336 565.26 546.237 578.74 649.64 696.511 739.85 
765.897 771.637 701.856 705.585 699.773 658.053 657.363 633.84 646.125 
538.002 556.818 591.085 556.358 630.323 600.922 554.284 584.826 599.796 
624.901 594.623 631.474 607.697 544.445 591.76 579.489 585.235 587.555 
626.725 667.284 724.18 690.057 694.343 646.454 552.98 568.584 548.601 
544.212 537.986 708.651 696.096 689.759 733.602 780.445 745.504 798.868 
748.741 822.519 759.898 815.387 845.424 899.069 862.463 756.366 696.347 
651.191 605.292 613.147 667.624 695.539 723.747 789.065 801.347 765.122 
600.583 620.843 731.035 744.252 668.12 746.249 646.318 569.521 640.903 
559.979 553.736 556.703 656.921 642.694 673.509 798.322 581.579 684.22 
676.346 710.151 684.518 595.562 575.047 540.308 564.154 607.903 482.167 
497.649 517.385 523.665 492.158 504.492 473.698 456.675 460.786 571.448 
614.734 676.107 740.116 808.858 832.368 782.886 737.774 623.403 524.017 
494.037 511.339 571.193 539.71 526.817 511.289 548.64 649.379 695.937 
626.675 567.122 599.433 630.41 634.596 842.365 891.334 830.028 839.659 
879.086 1002.81 855.485 758.569 667.652 695.506 746.853 795.41 779.94 
724.504 637.116 674.458 662.162 581.321 619.368 597.054 611.573 611.573 
649.062 649.062 654.231 640.444 640.444 647.668 675.812 615.587 627.74 
583.426 583.426 552.46 543.143 510.262 574.421 544.447 666.963 629.724 
654.03 665.834 722.916 664.665 676.588 634.373 650.285 632.911 587.825 
637.094 700.655 776.327 730.125 726.976 727.824 727.824 759.98 714.999 
714.999 687.17 624.807 624.807 639.053 679.815 651.327 572.342 570.419 
568.591 616.351 616.351 572.133 599.342 559.09 559.402 545.873 545.873 
625.31 625.31 767.867 755.559 794.393 734.503 768.377 806.363 750.83 
758.259 753.593 724.687 692.277 
FIELD FieldData 7
DY_minmax 1 913 double
0.401817 0.387416 0.14907 0.211675 0.344467 0.281711 0.323465 0.169671 0.267272 
0.181072 0.340825 0.450931 0.244117 0.223728 0.254796 0.397585 0.32294 0.380346 
0.0848152 0.0719643 0.255438 0.138635 0.306343 0.133509 0.305841 0.234579 0.766425 
0.421499 0.666904 0.605612 0.194153 0.386448 0.420011 0.921647 0.295586 0.522391 
0.836497 0.49679 0.62328 0.385705 0.184741 0.662726 0.612245 0.0179565 0.236572 
0.209629 0.148645 0.185452 0.465345 0.426156 0.303986 0.235149 0.475959 0.439269 
0.483257 0.589873 0.387633 0.399436 0.377525 0.559421 0.622484 1 0.25584 
0.494682 0.587509 0.74725 0.419561 0.302123 0.175949 0.210976 0.290696 0.262691 
0.285709 0.580463 0.347188 0.318269 0.463 0.431185 0.534246 0.546209 0.647406 
0.651778 0.677564 0.564467 0.809914 0.721144 0.476729 0.336884 0.247164 0.290696 
0.293077 0.393259 0.587803 0.546506 0.332405 0.457203 0.584727 0.621093 0.552185 
0.590263 0.614881 0.614881 0.567495 0.399346 0.411632 0.357672 0.404789 0.654997 
0.631662 0.630415 0.683905 0.516601 0.187405 0.210883 0.262643 0.355802 0.498331 
0.498331 0.492369 0.431169 0.431169 0.45172 0.518047 0.618456 0.576005 0.576005 
0.559545 0.487307 0.579501 0.477626 0.520382 0.538703 0.588992 0.283075 0.394299 
0.320672 0.387608 0.348175 0.370795 0.526146 0.64656 0.493674 0.306914 0.306914 
0.225529 0.186059 0.189925 0.320342 0.355679 0.232774 0.389893 0.386812 0.259663 
0.1666 0.21282 0.284442 0.203223 0.260514 0.189791 0.110833 0.110833 0.167426 
0.145653 0.202001 0.140088 0.175635 0.186473 0.294658 0.280276 0.370557 0.306986 
0.143342 0.0834481 0.654662 0.628769 0.5896 0.592516 0.652714 0.605512 0.567297 
0.457604 0.378746 0.506226 0.506226 0.601838 0.584156 0.584156 0.524881 0.524881 
0.42347 0.41927 0.3758 0.341036 0.307289 0.370352 0.312236 0.258425 0.625001 
0.561596 0.6249 0.916514 0.808676 0.993021 0.86501 0.756578 0.764804 0.814864 
0.640447 0.804132 0.684685 0.736508 0.761254 0.592085 0.628474 0.690401 0.610082 
0.591791 0.463968 0.463968 0.349533 0.349533 0.265658 0.239981 0.227652 0.314905 
0.36518 0.549149 0.510617 0.510617 0.478489 0.328783 0.328783 0.222802 0.25185 
0.299788 0.241541 0.294883 0.31088 0.316802 0.369706 0.337631 0.337279 0.343876 
0.343215 0.0741395 0.0911271 0 0.00972547 0.00387247 0.723298 0.527927 0.585989 
0.511992 0.320166 0.366718 0.294479 0.355872 0.358695 0.358695 0.351519 0.31805 
0.33429 0.33429 0.268586 0.232575 0.232575 0.218561 0.14001 0.193293 0.226636 
0.243901 0.403985 0.438993 0.344227 0.447423 0.510939 0.613525 0.68524 0.747166 
0.718435 0.718435 0.603703 0.690488 0.608843 0.688784 0.481032 0.493769 0.476052 
0.508523 0.481731 0.455944 0.382787 0.531262 0.407445 0.358675 0.391075 0.462536 
0.478881 0.491909 0.526 0.456363 0.583195 0.458251 0.39125 0.373398 0.478316 
0.513389 0.371635 0.411847 0.459578 0.344261 0.439269 0.463976 0.501122 0.501122 
0.548498 0.563105 0.64119 0.621825 0.712636 0.670604 0.535874 0.614871 0.420234 
0.502093 0.556082 0.499036 0.330788 0.259494 0.552578 0.541656 0.341242 0.428034 
0.295865 0.18803 0.146388 0.1081 0.141471 0.192141 0.210767 0.233722 0.31728 
0.327439 0.402309 0.492002 0.518551 0.518551 0.456745 0.401568 0.507734 0.324727 
0.342666 0.473678 0.288376 0.3555 0.293772 0.26665 0.224151 0.138886 0.34474 
0.456629 0.435728 0.486172 0.482201 0.482201 0.307126 0.222337 0.167633 0.12418 
0.0638378 0.235927 0.280207 0.3243 0.253434 0.297718 0.274459 0.407896 0.511783 
0.544893 0.589348 0.589348 0.61366 0.61366 0.633817 0.619562 0.570175 0.458645 
0.397571 0.360728 0.37416 0.226197 0.291527 0.351242 0.299636 0.19303 0.278036 
0.197474 0.18309 0.121799 0.23054 0.225047 0.253813 0.241943 0.265094 0.325576 
0.307398 0.324223 0.343771 0.199991 0.282587 0.14427 0.128465 0.173532 0.0610377 
0.0203586 0.0402983 0.0861798 0.0576171 0.122728 0.0943325 0.177689 0.228476 0.147567 
0.169897 0.165756 0.169076 0.210105 0.209525 0.745797 0.547493 0.546541 0.521629 
0.439506 0.662726 0.544689 0.389196 0.389196 0.347447 0.316235 0.288779 0.249529 
0.237544 0.191008 0.175387 0.184741 0.205739 0.246455 0.292639 0.300051 0.342242 
0.307385 0.743947 0.816554 0.886943 0.38858 0.370645 0.480817 0.63743 0.63743 
0.646067 0.789418 0.733806 0.641223 0.573521 0.573521 0.431581 0.350439 0.350439 
0.336238 0.46718 0.586875 0.61523 0.467391 0.411218 0.517661 0.683988 0.793071 
0.700785 0.590577 0.528231 0.510439 0.510439 0.450156 0.430494 0.418688 0.570831 
0.749185 0.921452 0.73344 0.765337 0.81492 0.468864 0.442464 0.451401 0.323422 
0.327946 0.500247 0.587817 0.647587 0.524957 0.604395 0.459674 0.425276 0.574961 
0.568891 0.592376 0.646869 0.616903 0.409175 0.624793 0.330023 0.394771 0.297333 
0.382493 0.426916 0.326682 0.305909 0.381871 0.314361 0.317234 0.317234 0.203082 
0.235102 0.241942 0.314831 0.34503 0.432079 0.615826 0.457598 0.457598 0.505921 
0.652573 0.613545 0.722693 0.534534 0.444309 0.0110521 0.0658932 0.0297331 0.0795089 
0.100743 0.300081 0.249535 0.249535 0.2774 0.298932 0.272168 0.278284 0.254033 
0.283776 0.202428 0.161989 0.142786 0.155708 0.156287 0.179437 0.175707 0.59495 
0.580242 0.540484 0.460252 0.361161 0.361161 0.330324 0.414488 0.414488 0.371918 
0.750312 0.833262 0.831181 0.855839 0.271479 0.186849 0.136228 0.12135 0.125351 
0.257407 0.260918 0.355831 0.355831 0.440622 0.440622 0.492443 0.371138 0.482876 
0.357035 0.401203 0.401203 0.267175 0.25091 0.263731 0.207715 0.167264 0.154258 
0.141892 0.140678 0.178834 0.188871 0.17912 0.154676 0.190607 0.166333 0.116947 
0.153482 0.144086 0.119068 0.0593487 0.113712 0.154323 0.129902 0.293471 0.217562 
0.166088 0.13247 0.248921 0.295308 0.280421 0.274327 0.228774 0.185565 0.204574 
0.197576 0.197162 0.200163 0.0939894 0.0939894 0.127524 0.0583413 0.0583413 0.0225268 
0.0340298 0.0490455 0.417281 0.543954 0.637819 0.624571 0.451392 0.439912 0.420694 
0.219619 0.161477 0.20571 0.292444 0.260655 0.158301 0.187478 0.243653 0.246687 
0.368135 0.52746 0.522748 0.484419 0.484818 0.517913 0.491321 0.532597 0.364085 
0.308709 0.346516 0.314107 0.262281 0.217874 0.115031 0.107843 0.245134 0.269055 
0.304058 0.26071 0.219297 0.248563 0.244039 0.0600894 0.133746 0.195443 0.172343 
0.298395 0.300771 0.300771 0.215823 0.273933 0.273933 0.235672 0.239827 0.209237 
0.253392 0.174783 0.238673 0.310778 0.294453 0.433609 0.326815 0.326566 0.212752 
0.24368 0.218276 0.198967 0.196048 0.169311 0.214994 0.314645 0.380522 0.441436 
0.478046 0.486113 0.388036 0.393276 0.385108 0.32647 0.325501 0.292439 0.309705 
0.157737 0.184182 0.232346 0.183536 0.287495 0.246171 0.180621 0.223548 0.244589 
0.279874 0.237318 0.289112 0.255694 0.166792 0.233294 0.216048 0.224123 0.227385 
0.282438 0.339444 0.419413 0.371451 0.377475 0.310168 0.178788 0.20072 0.172634 
0.166465 0.157715 0.397585 0.37994 0.371033 0.432655 0.498494 0.449384 0.524387 
0.453933 0.557629 0.469614 0.547604 0.589822 0.665221 0.613771 0.46465 0.380292 
0.316825 0.252314 0.263354 0.339922 0.379157 0.418804 0.510608 0.527871 0.476956 
0.245695 0.274171 0.429047 0.447624 0.340619 0.45043 0.309976 0.202037 0.302365 
0.188625 0.179851 0.184022 0.324878 0.304883 0.348193 0.52362 0.218985 0.363248 
0.352181 0.399694 0.363667 0.238638 0.209804 0.160977 0.194494 0.255984 0.0792604 
0.10102 0.128759 0.137586 0.093303 0.110638 0.0673573 0.0434313 0.0492086 0.204746 
0.265584 0.351845 0.441811 0.538429 0.571472 0.501924 0.438518 0.277769 0.138081 
0.0959441 0.120262 0.204387 0.160138 0.142015 0.120191 0.172689 0.314279 0.379716 
0.282368 0.198665 0.244079 0.287617 0.293501 0.585523 0.654349 0.568183 0.581719 
0.637134 0.811029 0.603962 0.467747 0.339962 0.37911 0.451279 0.519526 0.497784 
0.419868 0.297042 0.349527 0.332245 0.218622 0.272098 0.240735 0.261141 0.261141 
0.313833 0.313833 0.321097 0.30172 0.30172 0.311874 0.351431 0.266783 0.283864 
0.22158 0.22158 0.178058 0.164962 0.118748 0.208924 0.166795 0.338993 0.286653 
0.320815 0.337405 0.417635 0.335763 0.352522 0.293188 0.315551 0.291133 0.227764 
0.297012 0.386347 0.492704 0.427768 0.423341 0.424534 0.424534 0.469729 0.406509 
0.406509 0.367394 0.279742 0.279742 0.299764 0.357056 0.317016 0.206003 0.203299 
0.20073 0.267858 0.267858 0.205709 0.243951 0.187376 0.187815 0.168799 0.168799 
0.280449 0.280449 0.480814 0.463515 0.518097 0.433921 0.481531 0.534921 0.456868 
0.46731 0.460753 0.420124 0.374572 
WidthEq 1 913 double
2.29583 1.9089 2.2055 1.95832 1.87979 1.50419 3.12979 1.57258 1.6181 
2.20568 1.64549 2.40602 2.7312 3.16132 2.47157 1.619 2.67198 2.23722 
3.50086 3.5501 1.68688 2.46162 2.31834 2.84918 2.11497 2.99146 2.49517 
2.07516 2.13196 2.7318 3.30281 2.49106 2.97133 1.90186 3.3173 3.01809 
2.40347 2.70992 2.6191 2.38253 1.94121 1.5072 3.1208 2.60803 2.96438 
2.00702 1.96303 1.94603 1.50579 3.18955 3.28037 1.66859 1.15109 2.05332 
2.30151 2.08804 2.80841 2.9451 2.56181 1.36485 1.03036 1.26479 1.9428 
1.34228 1.44032 1.5377 1.67539 1.99048 1.93804 3.15281 1.86056 1.93885 
1.27785 1.12709 1.71304 1.69203 1.66432 1.71134 1.55942 1.5257 1.37457 
1.34837 1.28332 1.32691 1.16118 1.24801 1.45796 1.67194 1.90397 1.86056 
1.82996 1.74384 1.46981 1.5033 1.67079 1.56362 1.30002 1.19332 1.26547 
1.0804 1.14034 1.14034 1.1408 1.34508 1.28835 1.53229 1.52505 2.51058 
2.40984 2.29504 2.14024 2.402 2.99924 2.81951 2.57053 2.19553 1.95171 
1.95171 1.95866 1.92847 1.92847 1.83672 1.79536 1.68511 1.64808 1.64808 
1.69438 1.99295 2.01523 2.17036 2.24071 2.37053 2.41629 2.94367 2.76044 
2.90049 2.72991 2.86607 1.71881 1.5523 1.43539 1.55296 1.75104 1.75104 
2.03167 2.1439 2.21353 1.84814 1.76537 1.8217 1.67641 1.6279 1.75672 
1.76568 1.7286 1.69151 1.77939 1.78301 1.83021 1.91206 1.91206 2.00711 
1.98195 2.10078 2.05879 2.03601 2.01436 2.1317 2.17289 2.04089 2.03766 
2.17781 2.25028 1.7392 1.82396 1.83104 1.73017 1.66918 1.71036 1.70195 
1.89688 2.1003 1.38322 1.38322 1.37552 1.41824 1.41824 1.55641 1.55641 
1.83041 1.88553 2.07802 2.23979 2.32522 2.2197 2.30971 2.56891 1.27011 
1.36414 1.2315 1.08343 1.12852 1 1.09274 1.12385 1.10957 1.06703 
1.16014 1.07234 1.18033 1.22037 1.21116 1.35434 1.32547 1.33261 1.35377 
1.52916 1.71381 1.71381 1.99976 1.99976 2.13992 2.19439 2.23687 2.20568 
2.08764 1.95142 1.91157 1.91157 1.88404 1.84185 1.84185 1.73713 1.71942 
1.72477 1.6749 1.66238 1.65426 1.74158 2.9689 2.95113 2.90833 1.88616 
2.10756 2.69099 2.82922 2.86669 2.74257 2.66393 1.77098 1.51105 1.51216 
1.80826 1.69172 1.78648 1.88736 1.93907 1.95306 1.95306 1.95772 1.88605 
1.79986 1.79986 1.81156 1.90364 1.90364 1.96275 2.06676 2.00283 1.91164 
1.82441 3.32789 3.35177 3.33086 3.01068 2.75399 2.72124 2.44158 2.19182 
2.22939 2.22939 2.18127 2.1801 2.37237 2.33347 3.30766 3.13786 2.75591 
2.33663 2.4311 2.42775 2.59789 2.60863 3.0165 3.34001 3.32956 3.03571 
3.00354 3.01413 3.15603 2.23443 2.16311 2.29017 2.26455 2.28941 2.27567 
2.36074 2.69549 2.69783 2.80404 3.21343 2.05332 1.9912 1.94486 1.94486 
1.85001 1.8132 1.75733 1.71264 1.6293 1.69138 1.78654 1.74493 1.9002 
1.84939 1.7077 1.76097 2.19838 2.5646 1.19626 1.37477 1.74838 1.67179 
1.94291 1.96964 2.06738 1.99803 1.9767 1.96262 2.0499 2.022 1.92851 
1.83974 1.75956 1.61882 1.51224 1.51224 1.49309 1.50506 1.42144 1.51656 
1.50927 1.38044 1.56284 1.52515 1.55418 1.61428 1.65235 1.70955 1.49123 
1.37791 1.36036 1.31878 1.33273 1.33273 1.51358 1.90295 2.15778 2.38438 
2.5497 3.71732 3.55335 3.08141 2.77681 2.64691 2.49593 1.9298 1.9186 
1.94184 1.8636 1.8636 1.7111 1.7111 1.57426 1.56798 1.62428 2.05012 
2.35664 2.59203 2.73878 2.59883 2.68044 3.08069 2.70045 2.74626 2.58953 
2.60046 2.65077 3.04642 3.05095 3.18663 3.02241 3.03916 3.02189 2.76486 
2.75474 2.61396 2.47998 2.73399 2.61535 2.93057 2.93617 2.82952 2.93312 
2.93328 2.97827 3.1029 2.44713 2.32775 2.25089 2.18017 2.11595 2.30852 
2.34592 2.33932 2.45272 2.38315 2.23642 2.87008 2.62798 2.53207 2.56018 
2.89486 1.5072 1.88805 2.40617 2.40617 2.62642 2.69784 2.66872 2.84968 
2.90663 3.16008 3.1597 1.94121 2.21289 2.34768 2.52719 2.61515 2.57376 
2.61001 2.36492 2.28138 2.13961 2.6459 2.22824 1.86824 1.5521 1.5521 
1.4354 1.39276 1.28626 1.39691 1.48522 1.48522 1.69329 1.81206 1.81206 
2.04164 2.64518 2.16754 2.01897 1.9527 2.11367 1.99733 2.53172 2.65565 
2.8024 2.84863 2.74126 2.57115 2.57115 2.56093 2.7506 2.86563 2.7676 
2.24803 1.82521 2.07801 2.16924 2.20113 3.09523 3.11962 3.07383 3.18104 
3.15683 3.05885 2.96906 2.84656 2.96839 2.83429 2.95591 2.75927 2.44917 
2.14528 2.04008 2.07713 2.10307 2.57304 2.29141 2.74571 2.51407 2.88638 
2.85111 2.78818 3.0717 3.07061 2.88138 3.03711 2.92251 2.92251 3.00142 
2.81672 2.76783 2.47073 2.45562 2.2654 1.96426 2.13521 2.13521 2.11659 
2.52798 2.25218 2.08204 2.07045 2.08404 3.4685 3.14229 3.03984 2.5892 