# vtk DataFile Version 3.0
vtk output
ASCII
DATASET POLYDATA
POINTS 977 float
2.4594 0.0912559 2.09652 1.96697 -0.802276 1.75248 2.99075 1.11814 1.5505 
2.57547 1.48189 1.27018 1.44139 1.65616 1.53304 0.991579 1.63808 1.32735 
0.550655 -0.875354 1.13237 0.211552 -0.577823 1.17912 2.89069 1.26177 1.26939 
2.7371 1.36587 1.21822 1.66422 1.79322 1.28489 1.42421 1.89382 1.23311 
0.676148 1.4778 1.30178 -0.165318 0.383362 1.1282 3.46617 0.365248 0.925718 
3.39891 -0.404 0.804128 0.210362 1.34803 1.07843 1.99188 2.09628 0.671599 
0.181467 1.76244 0.603934 5.54985 0.196865 0.15833 3.5895 0.83734 0.325464 
5.48207 -0.079792 0.0470693 4.90736 0.136415 -0.121705 -0.372014 1.32063 0.263716 
7.47775 -0.622642 -0.442088 7.20428 -0.685205 -0.604048 6.38024 -1.10146 -0.653587 
4.79307 0.657931 -0.241879 4.17405 0.108466 -0.329179 5.20189 0.964997 -0.395523 
6.62023 -0.908963 -0.892962 7.44733 0.220647 -1.22004 6.34076 -1.09941 -1.12575 
4.85731 -0.784686 -1.0772 4.72109 -0.876637 -1.09183 -0.515285 -0.101745 -1.04103 
7.23075 -0.506566 -1.63883 5.6181 1.16379 -0.97123 6.67543 -0.974 -1.30816 
6.18803 -1.03979 -1.31893 5.82478 -1.28499 -1.35796 2.06131 2.22856 -0.805804 
3.35046 0.269193 -1.11436 1.83428 2.07531 -0.830196 4.53808 0.509728 -1.2779 
6.34166 1.1856 -1.64215 7.31219 0.42415 -1.96417 0.074797 1.82363 -1.68127 
7.34582 0.62113 -2.06801 7.02049 -0.256515 -2.20693 5.51957 -0.14183 -2.39247 
-0.210374 1.07917 -2.20408 6.24949 0.535531 -2.48736 5.64254 0.257433 -2.53178 
1.50256 0.753055 -2.45673 1.57113 0.73975 -2.39128 1.63219 0.738464 -2.33144 
1.70187 0.727047 -2.2882 1.77711 0.710888 -2.2682 1.85189 0.693386 -2.2559 
1.91847 0.669072 -2.2372 1.97253 0.632842 -2.19789 2.03909 0.603903 -2.1499 
2.11384 0.581778 -2.10835 2.18908 0.564463 -2.08103 2.25877 0.555365 -2.05241 
2.31984 0.556384 -2.00721 2.38843 0.545391 -1.95639 2.45701 0.534399 -1.90558 
2.51808 0.535426 -1.86038 2.58769 0.522942 -1.8098 2.66191 0.502638 -1.75296 
2.73151 0.487841 -1.68774 2.79262 0.485317 -1.6206 2.86229 0.470432 -1.55541 
2.93759 0.447398 -1.49149 3.01391 0.421725 -1.4205 3.09029 0.394805 -1.34219 
3.16657 0.36667 -1.25659 3.24127 0.339768 -1.18578 3.30623 0.309749 -1.13798 
1.51522 0.821642 -2.40839 1.51964 0.888131 -2.38288 1.50999 0.948569 -2.38085 
1.503 1.01311 -2.39315 1.48191 1.06698 -2.39965 1.45247 1.11407 -2.39973 
1.42162 1.15905 -2.39265 1.39217 1.20497 -2.38542 1.37098 1.25647 -2.3773 
1.36221 1.31636 -2.36785 1.33942 1.36678 -2.3599 1.30013 1.40606 -2.35372 
1.24683 1.43589 -2.34905 1.20586 1.47288 -2.33574 1.17162 1.51212 -2.30707 
1.13052 1.54327 -2.25719 1.0755 1.56386 -2.20147 1.02465 1.58844 -2.15264 
0.967967 1.61252 -2.12638 0.915468 1.64173 -2.11431 0.849048 1.6627 -2.11105 
0.775883 1.67912 -2.10851 0.710968 1.69995 -2.09777 0.666697 1.73241 -2.07018 
0.622409 1.76141 -2.02064 0.557368 1.77524 -1.966 0.482575 1.78365 -1.91974 
0.406205 1.79445 -1.8956 0.329696 1.80635 -1.87878 0.252285 1.8161 -1.8473 
0.169369 1.8211 -1.77909 1.4571 0.723651 -2.46892 1.41061 0.696885 -2.48818 
1.3585 0.679423 -2.51347 1.29776 0.672095 -2.52218 1.24446 0.651681 -2.51794 
1.19013 0.63044 -2.49885 1.12258 0.629455 -2.48406 1.05402 0.63111 -2.47635 
0.99297 0.623065 -2.47767 0.924348 0.625966 -2.47727 0.855727 0.628866 -2.47686 
0.794621 0.620904 -2.47817 0.724905 0.625386 -2.47752 0.649551 0.638016 -2.47558 
0.573261 0.652191 -2.4734 0.498412 0.66747 -2.47105 0.431901 0.688377 -2.4678 
0.379485 0.717647 -2.45571 0.324314 0.743906 -2.43661 0.28173 0.776356 -2.40152 
0.239228 0.808862 -2.36642 0.185641 0.832733 -2.32519 0.14314 0.865239 -2.29009 
0.10055 0.896533 -2.24768 0.0454495 0.920537 -2.21394 -0.00529146 0.947481 -2.17973 
-0.0603742 0.97495 -2.16793 -0.10302 1.01312 -2.16944 -0.147075 1.05264 -2.18572 
5.71785 0.248361 -2.55565 5.78752 0.247436 -2.57823 5.8476 0.258048 -2.58401 
5.91053 0.263376 -2.58312 5.96944 0.273338 -2.574 6.03123 0.281487 -2.58016 
6.08336 0.302416 -2.57682 6.12876 0.33191 -2.56462 6.16742 0.368814 -2.53626 
6.19639 0.420893 -2.51302 6.22724 0.471411 -2.49751 5.59838 0.293427 -2.52612 
5.53497 0.31643 -2.52254 5.47014 0.338474 -2.51911 5.41774 0.368906 -2.51434 
5.36107 0.3953 -2.50271 5.31024 0.423339 -2.47583 5.25522 0.445091 -2.42744 
5.21412 0.475087 -2.37023 5.17986 0.510854 -2.31962 5.13879 0.545475 -2.29169 
5.08379 0.573006 -2.27988 5.03307 0.603418 -2.26761 4.97798 0.628576 -2.24118 
4.93535 0.658564 -2.19149 4.89223 0.683735 -2.12755 4.83399 0.684442 -2.05248 
4.77609 0.663665 -1.95833 4.71737 0.653533 -1.83248 4.67213 0.646735 -1.68361 
4.62863 0.61091 -1.53931 4.58356 0.561036 -1.40474 5.62811 0.182019 -2.5437 
5.6126 0.106868 -2.54809 5.59074 0.0351485 -2.52944 5.55596 -0.03751 -2.47346 
-0.196056 1.14427 -2.12628 -0.181732 1.21053 -2.05581 -0.167334 1.27901 -1.99999 
-0.151892 1.34947 -1.96635 -0.130801 1.4141 -1.94862 -0.101149 1.46752 -1.94015 
-0.0799964 1.53206 -1.92244 -0.0634651 1.60095 -1.88905 -0.0422381 1.65968 -1.83476 
-0.0107426 1.70466 -1.77512 0.0231619 1.76112 -1.72118 -0.255913 1.02194 -2.04067 
-0.301503 0.967098 -1.89188 -0.348108 0.916058 -1.7575 -0.400401 0.875567 -1.63645 
-0.46223 0.851379 -1.52784 -0.520722 0.829046 -1.44142 -0.580508 0.827427 -1.35923 
-0.631892 0.843561 -1.27422 -0.686883 0.857138 -1.17463 -0.726242 0.881396 -1.07334 
-0.747359 0.917837 -0.970113 -0.743579 0.97121 -0.879177 -0.72423 1.02314 -0.788466 
-0.694682 1.06255 -0.692224 -0.672509 1.11047 -0.579648 -0.649304 1.15807 -0.474615 
-0.612927 1.19013 -0.394532 -0.576601 1.22459 -0.329065 -0.554349 1.2759 -0.23845 
-0.536617 1.32791 -0.110227 -0.506534 1.35859 0.0371284 -0.44595 1.34751 0.162918 
5.42506 -0.124278 -2.38978 5.34229 -0.10882 -2.3874 5.26658 -0.093304 -2.38501 
5.20154 -0.0713609 -2.38159 5.15737 -0.0353676 -2.37594 5.11471 0.00164004 -2.37013 
5.05964 0.029115 -2.35833 5.0089 0.0572154 -2.33143 4.9538 0.0789119 -2.28305 
4.91119 0.107887 -2.22601 4.86868 0.138082 -2.17628 4.8151 0.164266 -2.14969 
4.77261 0.199083 -2.12922 4.73012 0.232745 -2.10144 4.6767 0.255579 -2.05288 
4.63737 0.286772 -1.99548 4.61454 0.329102 -1.93632 4.60573 0.380888 -1.87565 
4.58457 0.419736 -1.78704 4.55671 0.44715 -1.65523 4.53707 0.473202 -1.47865 
5.59824 -0.190243 -2.37006 5.66612 -0.228196 -2.33101 5.71878 -0.268142 -2.28478 
5.77552 -0.302646 -2.2452 5.82793 -0.336394 -2.22799 5.89335 -0.355728 -2.23099 
5.96149 -0.357818 -2.25377 6.02254 -0.342982 -2.29637 6.0912 -0.337788 -2.348 
6.1598 -0.333672 -2.39228 6.21978 -0.320578 -2.41266 6.28162 -0.311355 -2.42616 
6.33389 -0.287138 -2.44479 6.38151 -0.252699 -2.4843 6.43381 -0.225013 -2.52489 
6.49566 -0.214635 -2.54569 6.55559 -0.208476 -2.52218 6.62412 -0.218232 -2.47866 
6.69265 -0.227986 -2.43516 6.75265 -0.221908 -2.41166 6.81563 -0.218983 -2.39614 
6.87567 -0.214152 -2.36533 6.94528 -0.228948 -2.30013 7.06711 -0.228775 -2.19501 
7.12015 -0.215633 -2.1554 7.18457 -0.241129 -2.05438 7.23215 -0.327839 -1.87307 
7.01797 -0.331007 -2.17371 7.03422 -0.403286 -2.08012 7.08567 -0.47324 -1.89615 
7.33002 0.529488 -2.02501 0.0529327 1.88619 -1.54391 0.054436 1.94665 -1.42187 
0.0679981 2.00697 -1.32234 0.0900911 2.05955 -1.23902 0.127568 2.09118 -1.1665 
0.171834 2.11417 -1.10284 0.218233 2.13523 -1.04698 0.270393 2.14914 -0.999749 
0.332129 2.14804 -0.947381 0.390948 2.15115 -0.894339 0.45269 2.15121 -0.84929 
0.504868 2.16858 -0.824009 0.55142 2.19641 -0.812073 0.597977 2.2254 -0.807457 
0.650105 2.24517 -0.79679 0.710781 2.25143 -0.78076 0.762953 2.26764 -0.748159 
0.810514 2.29052 -0.71451 0.862742 2.30549 -0.674604 0.924496 2.30786 -0.644184 
0.983333 2.31444 -0.613099 1.04515 2.31788 -0.590012 1.09842 2.33368 -0.564979 
1.15168 2.34832 -0.532626 1.21355 2.34936 -0.494913 1.27352 2.34965 -0.434825 
1.34305 2.33378 -0.362288 1.41719 2.3101 -0.28348 1.48571 2.29804 -0.225337 
1.54012 2.30986 -0.185928 1.59453 2.32167 -0.146519 1.66309 2.30721 -0.0737607 
1.73833 2.27449 0.0516179 1.81549 2.2306 0.229225 1.89802 2.17315 0.442192 
6.34457 1.11677 -1.82301 6.36567 1.07489 -1.96459 6.39522 1.042 -2.06476 
6.42463 1.00595 -2.13543 6.44586 0.961389 -2.18744 6.45456 0.904912 -2.21886 
6.47576 0.854571 -2.23429 6.5052 0.809798 -2.24885 6.53617 0.768351 -2.27787 
6.56724 0.730432 -2.32882 6.59832 0.694826 -2.39442 6.62931 0.659158 -2.46003 
6.65879 0.620166 -2.51117 6.67999 0.570975 -2.53391 6.68867 0.509879 -2.53606 
6.70993 0.453819 -2.5149 6.74103 0.403248 -2.48538 6.78346 0.358021 -2.44 
6.84834 0.327944 -2.39219 6.923 0.305759 -2.35065 6.99818 0.28969 -2.33063 
7.06668 0.284648 -2.31637 7.11885 0.30202 -2.29109 7.15872 0.333036 -2.23617 
7.19037 0.374701 -2.15706 7.23921 0.402582 -2.06262 7.39849 0.326461 -1.59582 
6.24706 1.18312 -1.51263 6.16413 1.18465 -1.42246 6.08679 1.19292 -1.38122 
6.01189 1.20667 -1.36911 5.94529 1.22637 -1.35855 5.89124 1.2521 -1.33203 
5.82566 1.26318 -1.27783 5.75713 1.25415 -1.19682 5.69361 1.21623 -1.09038 
6.42424 1.19115 -1.53371 6.48869 1.19077 -1.42874 6.54916 1.16563 -1.33267 
6.60105 1.12762 -1.26114 6.66082 1.10733 -1.2043 6.72017 1.10708 -1.15931 
6.78657 1.0923 -1.1091 6.84219 1.05828 -1.06192 6.87375 1.007 -1.02501 
6.9288 0.9749 -1.00754 6.99061 0.949666 -1.00398 7.03459 0.91355 -1.00965 
7.07716 0.876481 -1.01547 7.13072 0.84683 -1.02012 7.17311 0.809638 -1.02596 
7.21399 0.771433 -1.03196 7.25771 0.735139 -1.03766 7.27783 0.682917 -1.0459 
7.31047 0.639145 -1.05279 7.36225 0.608295 -1.05762 7.40145 0.568953 -1.06381 
7.42424 0.518532 -1.07175 7.43289 0.459008 -1.0849 7.4516 0.405696 -1.10831 
7.46409 0.33693 -1.15291 7.12551 -0.707412 -1.57315 7.05882 -0.803612 -1.52091 
7.01026 -0.847012 -1.49781 6.96462 -0.879154 -1.49542 6.91812 -0.909386 -1.49274 
6.86591 -0.933694 -1.47412 6.80404 -0.94754 -1.43137 6.74404 -0.966406 -1.3744 
7.32269 -0.306914 -1.60721 7.36454 -0.188501 -1.58097 7.38136 -0.111053 -1.54622 
7.38607 -0.0487817 -1.49139 7.37811 0.00301095 -1.42696 7.384 0.063572 -1.3574 
7.40627 0.135768 -1.28973 4.58217 0.442585 -1.08599 4.64708 0.388128 -0.884562 
[...]
POINT_DATA 977
SCALARS DY_raw double
LOOKUP_TABLE default
740.765 999.424 1313.71 806.914 1008.47 948.149 1002.71 1009.14 941.608 
794.023 783.813 938.493 1068.1 998.388 1152.25 1050.05 858.986 704.584 
920.651 1329.34 919.976 1212.32 1071.06 863.894 2530.78 1362.56 1302.75 
1117.02 788.331 1098.43 1083.54 1301.04 1185.92 1343.96 1074.24 799.41 
1232.19 948.105 1189.35 831.811 771.096 1010.25 1190.59 831.336 978.207 
961.176 1042.49 530.823 1060.2 941.386 1032.64 555.02 1090.44 1053.89 
663.118 728.708 824.733 832.079 861.791 780.926 737.941 746.099 675.283 
711.81 726.357 665.864 658.827 708.216 677.935 656.069 662.254 654.357 
699.486 782.794 825.654 858.761 886.78 880.581 942.787 928.026 1037.55 
706.189 677.898 689.262 689.262 626.933 610.989 654.812 643.855 643.855 
648.615 656.434 656.434 649.303 684.744 725.346 809.12 857.124 796.536 
893.712 857.49 823.039 824.567 754.339 668.775 712.855 743.606 756.145 
634.844 595.514 516.37 499.516 709.866 748.071 704.934 726.133 753.075 
804.58 790.741 768.172 751.581 751.581 763.339 784.98 765.789 766.201 
743.841 718.474 698.257 693.197 758.797 779.768 799.532 799.532 809.285 
910.595 866.132 877.047 821.64 665.184 576 1133.89 970.193 1011.38 
994.278 1058.38 1037.96 1015.08 1015.08 1045.53 1045.53 981.153 1053.89 
1041.67 1036.23 942.764 944.55 935.08 1041.28 1127.6 1063.72 1163.53 
1130.27 1036.93 883.466 876.291 844.385 768.615 755.449 860.237 822.454 
898.408 970.06 948.457 900.225 933.983 973.289 600.086 651.134 777.999 
884.674 955.142 856.651 849.942 833.28 712.474 589.616 601.986 645.372 
719.432 727.893 772.606 934.902 756.951 675.821 598.96 727.613 654.205 
697.906 690.664 656.06 679.932 844.868 800.043 794.981 715.715 748.718 
800.313 745.266 832.227 991.67 1009.66 1010.19 956.563 956.563 946.816 
936.22 911.282 925.422 888.609 975.634 894.678 993.129 904.782 886.804 
955.603 818.156 790.006 852.767 774.658 848.986 1056.04 1020.74 994.961 
970.076 890.28 849.409 839.007 767.769 810.207 758.088 824.856 892.119 
828.107 940.356 874.836 791.695 916.724 1023.34 954.84 901.654 901.654 
894.27 855.713 941.853 959.725 1115.69 1196.89 935.937 968.699 1081.05 
1034.09 590.765 653.474 663.667 592.488 701.954 750.847 800.675 800.675 
814.491 781.195 858.277 813.915 813.915 785.787 684.985 684.985 698.796 
664.151 730.956 691.225 760.031 760.031 713.081 675.842 720.705 729.909 
758.365 801.905 720.686 748.175 731.796 760.986 822.397 711.036 599.038 
998.362 1000.2 973.884 1011.24 936.536 1022.15 1214.07 1214.07 1319.16 
1457.35 1197.25 1198.87 1173.47 1077.94 976.128 1039.2 1020.57 943.985 
1021.36 975.216 981.158 913.718 913.718 902.185 972.407 980.262 1131.06 
952.455 1042.14 976.578 931.765 1022.64 971.418 982.017 932.084 907.335 
1004.95 1153.71 1188.87 1200.43 1230.01 1148.77 1243.59 1296.67 1418.39 
1341.57 1341.57 1200.33 1265.78 1265.78 1251.81 1340.49 1340.49 1329.77 
1329.77 1341.56 1424.27 1424.27 1555.8 1314.83 1385.14 1167.81 1066.37 
1026.33 1044.78 1044.78 1095.04 1095.04 1025.15 1269.84 1325.78 1319.43 
1385.9 1288.93 1317.21 1408.26 1185.71 1140.47 1027.67 964.172 1196.78 
1219.02 1241.89 781.568 697.329 590.697 615.754 575.625 588.367 632.301 
744.56 834.728 801.809 753.779 707.815 742.043 677.475 697.615 698.465 
764.536 799.113 863.917 891.918 889.249 834.499 764.205 763.713 822.701 
811.402 823.823 808.578 797.106 650.73 682.486 680.92 692.514 667.972 
623.739 652.902 646.935 705.062 734.646 832.058 760.18 760.18 699.884 
757.556 729.349 658.702 658.702 661.103 583.189 599.809 598.86 623.848 
668.847 743.595 788.474 747.992 756.381 708.023 719.547 730.718 893.828 
806.7 958.064 853.185 901.064 901.064 802.808 710.33 643.038 609.734 
609.734 617.259 577.579 558.207 571.823 617.751 558.251 581.645 734.043 
786.709 745.825 757.685 833.726 804.395 804.395 742.85 725.906 709.406 
708.057 700.668 695.927 695.927 758.191 792.451 823.877 892.986 1010.43 
1005.02 1002.15 939.02 899.884 1041.11 1041.11 1161.17 1150.59 1158.89 
1100.65 1052.07 1052.07 986.738 986.738 970.732 925.656 980.282 1063.25 
1077.83 1077.83 892.906 863.226 863.226 875.699 904.684 865.486 947.572 
969.406 895.438 859.714 859.714 933.451 1010.25 862.022 862.022 809.352 
783.533 783.533 778.817 778.817 1082.4 888.315 888.315 934.222 952.604 
959.594 980.655 1009.7 1009.7 1146.9 1258.78 1237.97 1166.43 1043.24 
1070.08 1076.55 982.62 848.16 923.129 974.296 1102.08 902.061 876.576 
906.031 974.564 1043.67 979.833 957.676 1143.86 1461 1499.92 1482.54 
1164.58 1217.18 1263.99 736.287 785.646 788.867 867.288 729.64 757.072 
815.093 832.005 802.924 731.184 825.036 806.185 917.243 918.725 863.511 
918.489 870.752 925.378 1008.86 1099.35 1044.07 962.723 957.551 1210.06 
1343.96 1267.3 1189.99 1454.4 1327.9 1290.6 1149.33 1076.16 1102.38 
1132.91 1248.67 1084.35 984.278 903.844 906.828 825.003 851.149 973.851 
1109.93 1040.67 914.266 910.657 910.657 954.675 983.853 1009.64 962.888 
931.216 874.241 912.253 1103.79 1264.77 1123.15 1194.12 1264.64 1177.01 
1312.87 1399.95 1299.85 1188.18 1169.8 1174.29 1221.4 1279.55 1136.93 
1073.41 1142.1 1070.59 1020.99 1020.99 1002.29 950.236 982.794 830.175 
901.157 968.985 964.849 1032.46 1087.76 1119.12 1107.23 1070.06 1078.4 
1081.82 1065.36 1121.49 1041.45 1306.04 1347.15 1394.65 1378.02 1456.86 
1409.93 1364.89 1289.25 1316.91 1316.91 1367.54 1315.59 1394.96 1438.41 
1417.05 1417.05 1412.67 1329.68 1212.74 1152.63 1233.68 1183.41 1183.81 
1276.27 1693.68 1885.33 2055.86 1151.95 1194.49 1185.72 1090.76 956.864 
956.864 931.959 958.209 1037.01 1080.26 1196.56 832.245 805.092 819.655 
823.229 764.373 777.903 729.967 728.383 741.997 734.442 805.966 870.688 
865.394 915.684 962.47 1078.07 1151.93 1213.43 1243.8 1275.63 1333.51 
1348.54 1200.47 1200.47 1209.13 1119.24 1056.99 908.691 785.847 738.016 
808.771 770.744 829.395 798.452 744.973 773.909 721.653 734.053 741.644 
741.644 767.112 726.233 796.485 901.685 957.459 957.459 870.807 824.421 
824.421 852.14 954.257 980.095 942.241 942.241 831.084 839.272 839.272 
868.24 837.997 853.593 886.934 962.35 1026.99 884.685 791.848 1271.74 
1382.21 1329.29 1168.68 1075.83 1090.9 1226.37 1208.21 891.02 844.949 
796.451 744.921 780.354 727.441 764.438 759.682 763.908 821.275 835.398 
902.149 937.844 956.059 941.207 925.122 1031.15 1183.7 1488.87 1412.51 
1400.76 1400.76 1525.41 1525.41 1482.98 1351.38 1316.71 1207.48 928.55 
920.017 931.761 807.269 850.295 837.751 818.651 988.652 1170.16 1181.51 
1110.94 959.299 892.263 945.749 926.222 967.463 970.542 969.691 1046.48 
1065.41 1020.57 1020.57 1010.08 1068.1 958.407 837.108 788.055 781.962 
844.274 862.971 829.188 894.197 913.127 999.416 867.746 813.692 773.984 
860.114 860.114 845.551 904.16 946.349 921.318 953.568 996.852 951.02 
917.505 877.514 773.421 790.868 790.868 786.848 723.719 791.231 802.89 
793.58 794.473 827.072 822.359 843.941 909.155 909.117 909.117 951.207 
958.78 887.041 804.498 858.495 850.891 800.419 841.287 859.503 869.827 
960.929 952.161 1002.07 998.379 1082.59 887.009 887.009 886.871 787.549 
841.185 817.513 826.346 826.346 850.057 912.933 988.233 990.566 897.812 
1004.14 904.425 1066.58 1048.27 980.15 940.344 1027.6 1088.2 909.426 
964.064 813.315 725.791 717.745 697.257 591.159 661.745 673.595 751.07 
756.104 797.299 848.003 776.132 769.286 825.964 761.37 771.601 771.601 
816.251 869.002 869.002 932.452 932.452 951.258 965.873 860.523 922.624 
1060.13 1060.13 1272.16 1238.11 1120.98 1028.78 1058.77 1063.68 1040.62 
1062.24 966.005 971.708 919.567 919.567 891.931 894.138 894.138 929.441 
929.441 974.823 978.338 1049.55 888.799 761.442 889.84 732.246 804.612 
833.848 829.602 822.235 851.074 981.347 894.073 1017.69 1119.35 1011.11 
896.143 767.927 908.5 1083.89 1015.33 1071.07 934.393 1076.86 1077.62 
1038.38 1239.18 1388.7 1449.54 1119.26 1119.26 1030.6 887.364 903.356 
925.807 989.033 1068.21 1105.48 1158.98 1316.46 1050.09 962.117 785.272 
712.704 852.814 781.375 834.422 834.422 
FIELD FieldData 7
DY_minmax 1 977 double
0.118768 0.246107 0.40083 0.151334 0.25056 0.220864 0.247724 0.250888 0.217644 
0.144987 0.139961 0.216111 0.279917 0.245597 0.321346 0.271031 0.176969 0.100956 
0.207327 0.408528 0.206994 0.350917 0.281376 0.179385 1 0.424883 0.395438 
0.304001 0.142185 0.29485 0.287519 0.394593 0.337918 0.415722 0.28294 0.147639 
0.360697 0.220842 0.339607 0.163591 0.1337 0.251436 0.34022 0.163357 0.235662 
0.227277 0.267308 0.0154127 0.276025 0.217535 0.262458 0.0273249 0.290913 0.272919 
0.0805419 0.112832 0.160106 0.163722 0.17835 0.13854 0.117378 0.121394 0.0865312 
0.104513 0.111675 0.0818939 0.0784298 0.102744 0.0878368 0.0770719 0.0801169 0.0762288 
0.0984464 0.139459 0.160559 0.176858 0.190652 0.1876 0.218225 0.210957 0.264875 
0.101746 0.0878182 0.0934127 0.0934127 0.0627283 0.0548788 0.0764533 0.0710591 0.0710591 
0.0734021 0.0772515 0.0772515 0.073741 0.0911888 0.111177 0.15242 0.176052 0.146224 
0.194065 0.176232 0.159272 0.160024 0.125451 0.0833269 0.105028 0.120167 0.12634 
0.0666225 0.0472602 0.00829736 0 0.103557 0.122365 0.101128 0.111565 0.124829 
0.150184 0.143372 0.132261 0.124093 0.124093 0.129882 0.140535 0.131087 0.131291 
0.120282 0.107794 0.0978412 0.0953504 0.127646 0.137969 0.147699 0.147699 0.152501 
0.202376 0.180487 0.18586 0.158583 0.0815593 0.0376533 0.312304 0.231716 0.251994 
0.243574 0.275131 0.265079 0.253815 0.253815 0.268806 0.268806 0.237112 0.272919 
0.266903 0.264227 0.218213 0.219092 0.214431 0.266714 0.309208 0.277761 0.326896 
0.310523 0.26457 0.189021 0.185488 0.169781 0.132479 0.125997 0.177585 0.158984 
0.196377 0.231651 0.221016 0.197271 0.21389 0.233241 0.049511 0.0746425 0.137099 
0.189615 0.224307 0.175819 0.172516 0.164314 0.10484 0.0443567 0.0504464 0.0718055 
0.108266 0.112431 0.134444 0.214342 0.126737 0.0867959 0.0489569 0.112293 0.0761542 
0.0976683 0.0941029 0.0770674 0.0888197 0.170019 0.147951 0.145459 0.106436 0.122684 
0.148084 0.120984 0.163795 0.24229 0.251148 0.251406 0.225007 0.225007 0.220208 
0.214992 0.202714 0.209676 0.191552 0.234395 0.19454 0.243008 0.199515 0.190664 
0.224534 0.156868 0.14301 0.173907 0.135454 0.172046 0.273978 0.256601 0.24391 
0.231659 0.192375 0.172254 0.167133 0.132062 0.152955 0.127296 0.160167 0.19328 
0.161767 0.217028 0.184772 0.143841 0.205394 0.257883 0.224158 0.197974 0.197974 
0.194339 0.175358 0.217765 0.226563 0.303344 0.34332 0.214852 0.230981 0.286292 
0.263173 0.0449224 0.0757943 0.0808123 0.0457705 0.0996615 0.123732 0.148262 0.148262 
0.155064 0.138672 0.17662 0.15478 0.15478 0.140933 0.0913073 0.0913073 0.0981064 
0.0810506 0.113939 0.0943795 0.128253 0.128253 0.105139 0.0868063 0.108892 0.113424 
0.127433 0.148867 0.108883 0.122416 0.114353 0.128723 0.158956 0.104132 0.0489951 
0.245584 0.246489 0.233533 0.251924 0.215147 0.257296 0.351776 0.351776 0.403514 
0.471545 0.3435 0.344297 0.331793 0.284759 0.234639 0.265689 0.256515 0.218814 
0.256905 0.234189 0.237115 0.203914 0.203914 0.198236 0.232807 0.236673 0.310915 
0.222984 0.267134 0.23486 0.212798 0.257535 0.23232 0.237537 0.212955 0.200772 
0.248825 0.322063 0.339373 0.345065 0.359625 0.319629 0.36631 0.392445 0.452368 
0.414546 0.414546 0.345012 0.377237 0.377237 0.370359 0.414016 0.414016 0.408737 
0.408737 0.414544 0.45526 0.45526 0.520012 0.401382 0.435999 0.329002 0.279067 
0.259351 0.268437 0.268437 0.29318 0.29318 0.258774 0.379232 0.406776 0.40365 
0.436373 0.388634 0.402554 0.447379 0.337815 0.315547 0.260011 0.228752 0.343266 
0.354215 0.365472 0.138856 0.0973845 0.044889 0.0572244 0.037469 0.043742 0.0653707 
0.120636 0.165027 0.14882 0.125175 0.102547 0.119397 0.0876104 0.0975252 0.0979438 
0.130471 0.147493 0.179396 0.193181 0.191868 0.164914 0.130308 0.130066 0.159106 
0.153543 0.159658 0.152153 0.146505 0.0744435 0.0900771 0.0893061 0.0950138 0.0829316 
0.0611556 0.0755126 0.0725753 0.101192 0.115756 0.163712 0.128326 0.128326 0.0986424 
0.127034 0.113148 0.078368 0.078368 0.0795504 0.0411927 0.0493747 0.0489077 0.0612093 
0.0833627 0.120161 0.142256 0.122326 0.126456 0.102649 0.108322 0.113822 0.194122 
0.151228 0.225745 0.174113 0.197684 0.197684 0.149312 0.103785 0.0706567 0.0542607 
0.0542607 0.0579654 0.0384308 0.028894 0.0355973 0.0582078 0.0289154 0.0404324 0.115459 
0.141387 0.121259 0.127098 0.164533 0.150094 0.150094 0.119795 0.111453 0.10333 
0.102666 0.099028 0.0966943 0.0966943 0.127347 0.144213 0.159685 0.193707 0.251526 
0.248861 0.24745 0.21637 0.197103 0.266632 0.266632 0.325734 0.320529 0.324615 
0.295942 0.272027 0.272027 0.239862 0.239862 0.231982 0.209791 0.236683 0.27753 
0.284707 0.284707 0.193668 0.179056 0.179056 0.185197 0.199466 0.180169 0.22058 
0.231329 0.194914 0.177327 0.177327 0.213628 0.251436 0.178463 0.178463 0.152534 
0.139823 0.139823 0.137502 0.137502 0.286955 0.191408 0.191408 0.214008 0.223057 
0.226499 0.236867 0.251167 0.251167 0.318712 0.373791 0.363545 0.328325 0.267676 
0.280891 0.284075 0.237834 0.171639 0.208547 0.233736 0.296646 0.198175 0.185628 
0.200129 0.233869 0.267891 0.236463 0.225554 0.317214 0.473346 0.492504 0.483948 
0.327414 0.35331 0.376355 0.116564 0.140863 0.142449 0.181056 0.113291 0.126796 
0.15536 0.163686 0.149369 0.114051 0.160255 0.150975 0.205649 0.206379 0.179196 
0.206263 0.182761 0.209654 0.250752 0.295302 0.268084 0.228039 0.225493 0.349803 
0.415722 0.377983 0.339923 0.470095 0.407817 0.389455 0.319906 0.283886 0.296791 
0.311821 0.368811 0.287918 0.238651 0.199053 0.200522 0.160239 0.173111 0.233517 
0.300512 0.266414 0.204184 0.202407 0.202407 0.224077 0.238442 0.251134 0.22812 
0.212528 0.184479 0.203192 0.297485 0.376736 0.307017 0.341957 0.376674 0.333533 
0.400418 0.443287 0.394007 0.339034 0.329983 0.332195 0.355389 0.384012 0.313801 
0.282529 0.316347 0.281142 0.256724 0.256724 0.24752 0.221891 0.23792 0.162785 
0.19773 0.231122 0.229086 0.262371 0.289595 0.305036 0.299182 0.280882 0.284985 
0.286669 0.278567 0.306202 0.266794 0.397054 0.417293 0.440681 0.432492 0.471305 
0.448202 0.426028 0.388791 0.402407 0.402407 0.427333 0.401758 0.440829 0.462222 
0.451705 0.451705 0.449548 0.408692 0.351125 0.321529 0.361432 0.336683 0.336884 
0.382399 0.587891 0.682245 0.766195 0.321194 0.342138 0.337821 0.291074 0.225155 
0.225155 0.212894 0.225817 0.264613 0.285902 0.343156 0.163804 0.150437 0.157606 
0.159365 0.13039 0.137051 0.113452 0.112672 0.119375 0.115655 0.150867 0.18273 
0.180123 0.204882 0.227915 0.284826 0.321188 0.351462 0.366416 0.382086 0.410581 
0.41798 0.345082 0.345082 0.349347 0.305093 0.274445 0.201439 0.140962 0.117415 
0.152248 0.133527 0.162401 0.147168 0.12084 0.135085 0.109359 0.115464 0.119201 
0.119201 0.131739 0.111614 0.146199 0.19799 0.225448 0.225448 0.182788 0.159952 
0.159952 0.173599 0.223871 0.236591 0.217956 0.217956 0.163233 0.167264 0.167264 
0.181525 0.166636 0.174314 0.190728 0.227856 0.259679 0.189621 0.143916 0.380172 
0.434556 0.408502 0.329433 0.283724 0.291141 0.357832 0.348893 0.19274 0.170059 
0.146183 0.120814 0.138258 0.112209 0.130422 0.128081 0.130161 0.158404 0.165356 
0.198218 0.215791 0.224758 0.217447 0.209528 0.261724 0.336826 0.487063 0.449473 
0.443685 0.443685 0.505051 0.505051 0.484165 0.419376 0.402306 0.348535 0.211216 
0.207015 0.212796 0.151508 0.17269 0.166515 0.157112 0.240804 0.33016 0.335747 
0.301005 0.226354 0.193351 0.219683 0.210069 0.230372 0.231889 0.23147 0.269275 
0.278592 0.256516 0.256516 0.251354 0.279917 0.225914 0.166198 0.142049 0.13905 
0.169726 0.178931 0.162299 0.194303 0.203622 0.246103 0.181282 0.15467 0.135122 
0.177524 0.177524 0.170355 0.199208 0.219978 0.207655 0.223532 0.244841 0.222277 
0.205778 0.18609 0.134845 0.143434 0.143434 0.141455 0.110376 0.143613 0.149352 
0.144769 0.145209 0.161257 0.158937 0.169562 0.201667 0.201649 0.201649 0.22237 
0.226098 0.19078 0.150144 0.176727 0.172984 0.148136 0.168255 0.177223 0.182306 
0.227156 0.222839 0.247409 0.245593 0.287048 0.190765 0.190765 0.190697 0.1418 
0.168205 0.156551 0.1609 0.1609 0.172573 0.203527 0.240598 0.241746 0.196083 
0.248428 0.199339 0.27917 0.270153 0.236618 0.217022 0.259979 0.289811 0.201801 
0.228699 0.154485 0.111396 0.107435 0.0973487 0.0451164 0.0798662 0.0857 0.123841 
0.12632 0.1466 0.171562 0.13618 0.132809 0.160712 0.128912 0.133949 0.133949 
0.15593 0.1819 0.1819 0.213137 0.213137 0.222395 0.22959 0.177726 0.208298 
0.275995 0.275995 0.380375 0.363615 0.305949 0.260558 0.275324 0.27774 0.266387 
0.277034 0.229655 0.232463 0.206793 0.206793 0.193188 0.194274 0.194274 0.211654 
0.211654 0.233996 0.235726 0.270783 0.191646 0.128948 0.192158 0.114574 0.1502 
0.164593 0.162503 0.158876 0.173074 0.237208 0.194242 0.2551 0.305145 0.251862 
0.195261 0.13214 0.201345 0.287692 0.253938 0.281379 0.214092 0.284229 0.284603 
0.265285 0.364142 0.437748 0.467701 0.305105 0.305105 0.261454 0.19094 0.198813 
0.209865 0.240992 0.279969 0.298318 0.324658 0.402184 0.271048 0.227741 0.140679 
0.104953 0.17393 0.138761 0.164876 0.164876 
WidthEq 1 977 double
1.36396 1.5531 1.72832 2.3539 1.84067 1.74277 1.40047 1.37264 2.23174 
2.30097 2.61573 1.7763 1.26531 1.34398 1 1.02905 2.00497 3.39618 
2.20357 1.75601 2.72474 1.69705 2.92665 2.26402 1.2261 3.13828 3.11354 
1.87479 1.71888 2.42036 3.47522 3.27147 3.49681 2.33896 2.5995 2.93029 
3.41045 3.15955 2.92612 4.13896 1.76901 2.0133 1.56975 2.00727 3.54883 
3.98859 3.10955 3.2691 1.62221 4.64827 2.32965 2.32356 2.8163 2.561 
2.74436 2.61064 2.35585 2.21133 2.05859 2.18601 2.31369 2.39516 2.69773 
2.72809 2.66343 3.03348 3.23451 3.13046 3.43426 3.51253 3.44097 3.44991 
3.36746 3.10723 2.79381 2.64946 2.52757 2.4134 2.31379 2.0308 1.91412 
2.70135 2.61186 2.53018 2.53018 2.47362 2.45596 2.45152 2.42569 2.42569 
2.34755 2.24651 2.24651 2.15114 1.91146 1.94808 1.85004 1.85257 2.05633 
1.93947 2.134 2.31369 2.35044 2.43154 2.55468 2.43007 2.31635 2.19281 
2.39864 2.60912 2.90881 3.18397 2.47147 2.27951 2.2908 2.16758 2.04033 
2.00782 1.97699 2.05242 2.18666 2.18666 2.24606 2.31261 2.36824 2.39192 
2.41356 2.44275 2.44714 2.39209 2.27943 2.21392 1.8763 1.8763 1.67075 
1.63415 1.76007 1.78197 2.00182 2.37873 2.51832 2.46977 2.74346 2.68392 
2.72331 2.66508 2.82009 2.91595 2.91595 3.01912 3.01912 3.09984 2.561 
2.36795 2.31806 2.39916 2.4106 2.5948 2.50155 2.51721 2.69753 2.60831 
2.61962 2.8218 2.93935 3.04867 3.12135 3.39325 3.47342 3.70033 3.9826 
4.01656 3.86646 2.60531 2.51815 2.41707 2.40728 2.68584 2.62347 2.51199 
2.12089 1.94713 2.01407 1.93498 1.95865 2.33494 2.80258 2.95978 2.05419 
2.15653 2.17612 2.54617 2.32478 2.9326 3.36323 3.48389 3.26186 3.18193 
3.18855 3.06193 2.78429 2.73824 2.31626 2.13294 1.97032 2.17999 2.17751 
2.36058 2.62595 2.6251 2.4064 2.33259 2.28832 2.37877 2.37877 2.41547 
2.45995 2.34956 2.51354 2.56871 2.43765 2.78962 2.62329 2.53565 2.54362 
2.4443 2.64498 2.67614 2.55284 3.51325 3.93442 2.2626 2.26833 2.48409 
2.5362 2.81011 3.09757 3.2918 3.26172 3.31122 3.31284 3.22739 3.10407 
3.19895 2.90948 3.00426 3.09981 3.03299 2.91906 3.18816 3.81211 3.81211 
4.19743 4.6593 4.55646 4.43356 3.83214 3.7794 4.22977 3.82049 3.93651 
2.65048 3.09305 2.78618 2.61496 2.57403 2.61191 2.2787 2.12138 2.12138 
1.99421 1.79298 1.7361 1.92898 1.92898 1.97904 2.37961 2.37961 2.47091 
2.63278 2.51452 2.64518 2.60294 2.60294 2.77682 2.89306 2.85313 2.79407 
2.65356 2.8117 3.10295 3.11699 3.06169 2.88483 2.73731 2.93883 3.43732 
3.7253 3.52246 3.36272 3.10429 3.17541 2.94582 2.49865 2.49865 2.26022 
2.11988 2.3976 2.63655 2.72804 2.78764 3.05799 3.03093 3.14312 3.24428 
3.1991 3.3647 3.40599 3.39532 3.39532 3.15891 3.24327 3.22242 3.39818 
3.86711 3.11389 2.88394 2.53605 2.28363 2.27817 2.33601 2.68137 3.10391 
3.6851 3.0633 2.64227 2.46147 2.16249 2.11752 1.89821 1.78134 1.70647 
1.69782 1.69782 1.76777 1.79394 1.79394 1.8057 1.77961 1.77961 1.78839 
1.78839 1.7892 1.82164 1.82164 1.96955 2.59602 2.71073 3.48139 3.78842 
3.77562 3.46144 3.46144 3.17673 3.17673 3.42479 3.77989 3.6258 3.53618 
3.32197 3.3808 3.3298 3.16361 2.89264 2.55742 2.65317 2.90637 4.11677 
4.01776 3.69226 2.76299 2.79458 2.88236 2.88043 2.88996 2.9235 2.84315 