# vtk DataFile Version 3.0
vtk output
ASCII
DATASET POLYDATA
POINTS 781 float
1.44316 0.671455 1.9248 0.515428 0.98673 1.42784 0.90701 0.262221 1.76842 
1.39893 0.63579 1.67182 1.77332 0.831648 1.507 1.92593 1.33087 1.01533 
0.322915 0.892382 1.22103 0.608599 0.992721 1.14497 0.872116 1.23712 0.910568 
0.465006 0.248051 1.69579 0.42717 0.318937 1.62067 2.42353 1.10259 1.00567 
1.83539 1.15763 0.897466 0.840663 1.22668 0.738806 0.757847 -0.159531 1.75429 
0.570946 -0.299659 1.68936 0.285405 -0.520416 1.53091 3.21356 0.831747 0.785337 
2.58039 -0.921001 1.89567 2.42356 -0.74855 2.02393 0.656527 -0.522449 1.63737 
-0.196501 -0.446991 1.10469 0.298665 -1.60097 0.97443 2.9245 -1.3184 1.57619 
-0.0351568 -0.984206 1.18763 1.94845 -1.68274 1.59649 3.83034 -0.493449 0.750781 
-0.528199 -0.291192 0.157067 -0.609097 -0.0274699 -0.11708 3.08235 -1.56602 1.48451 
3.88075 -0.336818 0.121542 -0.174514 -1.37395 0.678656 0.347883 0.52864 -0.879662 
-0.657745 -0.622044 -0.0898743 2.68994 -1.85303 1.16973 3.20144 -1.75537 0.688839 
3.47909 0.0333285 -0.669123 -0.0316542 -0.00895511 -1.03471 3.83412 -1.199 0.324736 
3.92672 -0.923852 0.0545143 3.93441 -0.867725 -0.191688 -0.599795 -0.897166 -0.566568 
-0.3059 -0.361419 -0.987561 -0.558203 -1.2763 -0.274157 2.28761 0.121747 -1.43521 
3.89528 -1.32846 -0.204061 0.129511 -2.23676 0.379173 4.06329 -0.968139 -0.458724 
4.01501 -0.653352 -0.781645 -0.304972 -1.75711 -0.050038 -0.115793 -0.657681 -1.33602 
2.37892 -2.19845 0.27187 2.42886 -2.06238 0.217816 0.582284 -2.4163 0.411227 
-0.483616 -1.09231 -1.02398 2.02068 -2.5378 0.377461 3.50812 -1.55267 -0.67697 
3.69333 -1.00238 -1.21741 -0.403593 -1.62673 -0.951126 -0.3302 -1.27395 -1.11157 
2.20173 -0.486337 -1.77782 -0.160267 -1.29959 -1.35558 3.41935 -1.5818 -1.03558 
0.631557 -2.30341 -0.554008 5.04414 -0.924518 -1.55584 4.66452 -0.998426 -1.51491 
-0.0860397 -1.69787 -1.31241 1.67664 -2.58534 -0.460513 0.687139 -2.63824 -0.495274 
5.76438 -0.934317 -1.76676 0.132447 -2.0103 -1.18036 2.80713 -2.0178 -1.21917 
0.625247 -1.8557 -1.57798 2.31282 -2.10756 -1.45757 1.30963 -2.24697 -1.406 
1.37816 -2.26737 -1.37923 1.43744 -2.29058 -1.35045 1.48252 -2.31809 -1.31858 
1.54176 -2.34123 -1.28988 1.6097 -2.36028 -1.26453 1.67571 -2.3764 -1.25289 
1.73347 -2.38562 -1.27007 1.78914 -2.40411 -1.30975 1.84763 -2.42787 -1.34385 
1.91049 -2.44665 -1.35091 1.9677 -2.42411 -1.32638 2.0209 -2.3721 -1.27923 
2.06102 -2.28243 -1.23969 2.10038 -2.20009 -1.2139 2.13868 -2.12897 -1.20856 
2.18444 -2.09376 -1.21898 2.23189 -2.08367 -1.25665 2.27345 -2.08886 -1.34272 
1.24549 -2.29165 -1.49323 1.18312 -2.3177 -1.54634 1.12746 -2.32557 -1.54334 
1.0779 -2.33171 -1.50987 1.03266 -2.33717 -1.45558 0.979241 -2.33169 -1.42365 
0.91658 -2.30889 -1.41008 0.856625 -2.29995 -1.40337 0.79872 -2.29924 -1.39869 
0.751699 -2.32331 -1.37853 0.699039 -2.33242 -1.36344 0.6374 -2.31593 -1.35396 
0.578359 -2.29114 -1.32096 0.518781 -2.26094 -1.28291 0.453956 -2.22092 -1.25528 
0.390659 -2.1883 -1.23059 0.319596 -2.13937 -1.21254 0.235861 -2.07837 -1.19727 
1.3484 -2.22061 -1.46089 1.39175 -2.20283 -1.50669 1.42896 -2.16479 -1.55244 
1.46247 -2.11102 -1.59331 1.4985 -2.05318 -1.61696 1.54363 -2.0168 -1.62864 
1.58993 -1.98699 -1.64412 1.63278 -1.9551 -1.67257 1.68434 -1.93955 -1.68371 
1.74522 -1.94144 -1.67636 1.80562 -1.94243 -1.66997 1.87193 -1.9545 -1.65184 
1.94171 -1.97308 -1.62681 2.01201 -1.99286 -1.60051 2.08065 -2.01323 -1.57377 
2.13992 -2.03644 -1.54498 2.18501 -2.06395 -1.51312 2.24429 -2.08715 -1.48434 
2.38327 -2.12738 -1.43122 2.45368 -2.14713 -1.40495 2.52343 -2.16563 -1.37999 
2.58861 -2.1712 -1.35798 2.64359 -2.14887 -1.34399 2.69374 -2.10432 -1.32125 
2.74636 -2.05563 -1.28135 0.568248 -1.86108 -1.57762 0.502806 -1.84624 -1.58792 
0.436939 -1.82622 -1.59294 0.378787 -1.81187 -1.57041 0.324664 -1.80507 -1.53988 
0.270114 -1.79308 -1.50408 0.212166 -1.77473 -1.47503 0.148081 -1.73764 -1.44739 
0.0868143 -1.71026 -1.40817 0.0149451 -1.69589 -1.36124 2.77313 -2.05309 -1.15481 
2.73912 -2.08838 -1.09045 2.70615 -2.13415 -1.0365 2.67581 -2.18993 -0.993316 
2.65576 -2.25339 -0.962558 2.64941 -2.3072 -0.929768 2.62777 -2.3589 -0.889939 
2.59283 -2.40166 -0.849774 2.55034 -2.434 -0.820834 2.50949 -2.46963 -0.788416 
2.4662 -2.50069 -0.760847 2.42422 -2.52981 -0.72455 2.37657 -2.54392 -0.693415 
2.32795 -2.54743 -0.651953 2.28392 -2.55953 -0.601395 2.23417 -2.55654 -0.55606 
2.18145 -2.55237 -0.522746 2.12806 -2.54695 -0.490749 2.07498 -2.55089 -0.470392 
2.01955 -2.55481 -0.460804 1.96281 -2.56067 -0.459939 1.91646 -2.58598 -0.438454 
1.86766 -2.60673 -0.421813 1.81196 -2.61453 -0.418891 1.74635 -2.60377 -0.435632 
2.8568 -1.98115 -1.2096 2.90555 -1.93397 -1.18964 2.95383 -1.88153 -1.16447 
3.00254 -1.83429 -1.14459 3.05205 -1.80172 -1.14146 3.09922 -1.76914 -1.1491 
3.14414 -1.72798 -1.15507 3.1981 -1.69057 -1.12477 3.24986 -1.64463 -1.09271 
3.29993 -1.59995 -1.07011 3.35488 -1.57756 -1.05619 -0.0881703 -1.57242 -1.38979 
-0.112797 -1.44857 -1.39516 0.0771807 -1.96239 -1.22623 0.0127631 -1.91535 -1.24944 
-0.0471328 -1.83584 -1.26736 0.0909676 -2.06685 -1.11626 0.0500885 -2.09867 -1.05602 
0.00431692 -2.10013 -0.995274 -0.0402308 -2.09379 -0.921185 -0.0869943 -2.07882 -0.845457 
-0.128381 -2.06955 -0.752943 -0.167258 -2.05619 -0.64321 -0.207888 -2.02176 -0.512716 
-0.251962 -1.95939 -0.368579 -0.292067 -1.86278 -0.216489 5.71215 -0.948624 -1.75694 
5.65698 -0.961825 -1.75907 5.59706 -0.97051 -1.77674 5.54283 -0.994226 -1.78925 
5.4911 -1.01386 -1.78456 5.43903 -1.02408 -1.7683 5.38544 -1.02269 -1.74282 
5.32885 -1.02004 -1.72943 5.26692 -1.01178 -1.73276 5.20739 -1.00802 -1.73131 
5.14813 -0.991598 -1.71098 5.09763 -0.969649 -1.64267 0.733058 -2.61234 -0.517399 
0.768422 -2.57081 -0.556269 0.78628 -2.52035 -0.595191 0.765545 -2.46394 -0.611894 
0.705915 -2.39225 -0.594747 -0.169531 -1.53557 -1.25484 -0.250575 -1.39751 -1.18458 
-0.189895 -1.7166 -1.21775 -0.260919 -1.70344 -1.1328 -0.321553 -1.67468 -1.03911 
4.65587 -0.972028 -1.40511 4.69615 -0.952323 -1.32643 4.75974 -0.945694 -1.27466 
4.82333 -0.935543 -1.23702 4.87684 -0.897295 -1.2076 4.92559 -0.850116 -1.18763 
4.97133 -0.815085 -1.19789 5.01007 -0.810408 -1.27309 5.03782 -0.848741 -1.40078 
4.71175 -0.979133 -1.54079 4.75535 -0.961843 -1.58607 4.80623 -0.971335 -1.63528 
4.86402 -0.99378 -1.67077 4.92645 -1.00736 -1.67257 4.98406 -0.976802 -1.635 
4.59772 -0.967885 -1.50954 4.53861 -0.942953 -1.4767 4.482 -0.913944 -1.42663 
4.42216 -0.874479 -1.37687 4.35718 -0.825387 -1.33731 4.29804 -0.787245 -1.28616 
4.24582 -0.762041 -1.22129 4.20005 -0.748953 -1.14357 4.15259 -0.732682 -1.06924 
4.1071 -0.715718 -0.984863 4.05891 -0.684908 -0.893625 3.43772 -1.61026 -0.991047 
3.45527 -1.61835 -0.924988 3.47612 -1.59532 -0.819706 3.45256 -1.49233 -1.02812 
3.49081 -1.41671 -1.01677 3.52474 -1.34178 -1.02623 3.55616 -1.27092 -1.0529 
3.58728 -1.20236 -1.08432 3.61875 -1.13314 -1.11638 3.65317 -1.06726 -1.15885 
2.11127 -0.520098 -1.84324 2.04337 -0.550241 -1.88216 1.9809 -0.55983 -1.90618 
1.92132 -0.563448 -1.91488 1.85915 -0.559131 -1.9248 1.79934 -0.559248 -1.93002 
1.73713 -0.554861 -1.94001 1.6767 -0.553805 -1.94647 1.61106 -0.542979 -1.96329 
1.54541 -0.532154 -1.9801 1.48455 -0.525902 -1.9813 1.42158 -0.506918 -1.97446 
1.36243 -0.481922 -1.94168 1.30219 -0.450478 -1.90495 1.2333 -0.402847 -1.88539 
1.16147 -0.354104 -1.87778 1.09258 -0.306473 -1.85822 1.03188 -0.269776 -1.8163 
0.971368 -0.229062 -1.76786 0.906282 -0.17977 -1.72851 0.846275 -0.144387 -1.6852 
0.786698 -0.114201 -1.64715 0.721907 -0.0742447 -1.61946 0.657076 -0.0166552 -1.56737 
0.587723 0.0757532 -1.48756 0.522054 0.187598 -1.36374 0.461904 0.302271 -1.21062 
0.407166 0.411199 -1.04063 -0.119954 -1.23646 -1.41587 -0.0851615 -1.17588 -1.46352 
-0.0561332 -1.10193 -1.49002 -0.042944 -0.994518 -1.47787 -0.0655543 -0.84529 -1.41974 
-0.232502 -1.27237 -1.25229 -0.288919 -1.25816 -1.17667 -0.47974 -1.46495 -0.878784 
-0.516194 -1.29062 -0.79097 -0.56298 -1.10436 -0.68094 3.63684 -0.935199 -1.24118 
3.57369 -0.888254 -1.24153 3.51186 -0.861321 -1.22503 3.44842 -0.842776 -1.2213 
3.38806 -0.841618 -1.22786 3.32505 -0.844745 -1.262 3.27103 -0.853781 -1.32103 
3.2404 -0.859776 -1.39163 3.20926 -0.860431 -1.4571 3.15319 -0.852449 -1.50186 
3.08516 -0.83738 -1.53375 3.01548 -0.818771 -1.5588 2.94917 -0.806702 -1.57693 
2.8887 -0.805575 -1.58347 2.82645 -0.801117 -1.59354 2.76599 -0.79999 -1.60008 
2.69968 -0.787921 -1.61821 2.62989 -0.769343 -1.64324 2.55959 -0.749561 -1.66954 
2.49095 -0.729192 -1.69628 2.4312 -0.700724 -1.71986 2.38493 -0.659124 -1.73794 
2.3243 -0.610111 -1.74368 2.25882 -0.554865 -1.75264 3.48279 -1.63466 -0.642009 
3.4743 -1.69806 -0.610271 3.45317 -1.75335 -0.570276 3.42385 -1.79985 -0.51879 
3.40122 -1.83169 -0.456905 3.39301 -1.84296 -0.382872 3.37959 -1.85041 -0.302603 
3.37319 -1.86113 -0.228964 3.36162 -1.88962 -0.169486 3.35526 -1.92192 -0.11623 
3.33253 -1.95379 -0.0543219 3.29786 -1.95975 0.0383721 3.25894 -1.92412 0.178367 
3.22304 -1.84391 0.39494 2.23227 -0.267353 -1.66585 2.2631 -0.0718162 -1.54421 
-0.406676 -1.18576 -1.07037 -0.455024 -1.56931 -0.774473 -0.503693 -1.49019 -0.605455 
-0.544974 -1.38545 -0.444107 3.76856 -0.922523 -1.15778 3.82911 -0.847887 -1.09063 
3.88992 -0.786888 -1.00262 3.95248 -0.723009 -0.896252 3.60291 -1.52265 -0.596819 
3.67916 -1.49199 -0.518953 3.74673 -1.45251 -0.433204 3.81638 -1.39686 -0.328432 
2.05806 -2.49567 0.338152 2.10006 -2.46219 0.308009 2.13747 -2.42012 0.268775 
2.17509 -2.37405 0.236057 2.22076 -2.33636 0.228394 2.27041 -2.2934 0.242128 
2.32504 -2.24926 0.260415 -0.0796356 -0.541549 -1.34121 -0.0496518 -0.401357 -1.29388 
-0.0287755 -0.224299 -1.17905 -0.537041 -0.988434 -0.802999 -0.461206 -0.925551 -0.958446 
-0.436943 -0.779819 -0.91369 -0.410463 -0.660423 -0.8949 -0.384078 -0.559046 -0.893064 
-0.364452 -0.475923 -0.905049 -0.35004 -0.414178 -0.93458 0.22558 -2.268 0.380211 
0.287523 -2.19525 0.45819 0.315596 -1.96873 0.674518 0.458635 -2.03678 0.696755 
[...]
POINT_DATA 781
SCALARS DY_raw double
LOOKUP_TABLE default
824.818 621.783 387.449 499.051 456.184 364.878 527.943 467.312 365.604 
497.364 431.672 366.053 281.574 266.985 550.838 493.856 435.698 353.695 
451.726 701.127 488.618 383.57 370.214 437.596 552.775 432.779 322.491 
374.265 388.694 494.409 356.057 413.163 356.453 462.614 326.833 348.698 
546.416 453.805 371.18 363.788 333.045 339.726 316.45 286.226 324.353 
274.182 327.945 218.067 382.24 361.403 333.23 355.996 340.935 260.289 
306.613 322.338 332.401 227.436 212.045 371.354 325.143 300.936 238.183 
430.15 423.504 364.567 254.116 332.411 458.283 314.132 307.215 290.992 
278.052 245.761 484.043 508.901 446.608 386.8 362.826 367.164 374.336 
342.336 380.631 337.588 314.493 336.836 338.303 410.689 390.105 430.202 
397.378 357.271 322.035 416.166 357.194 357.194 344.89 271.613 292.847 
289.227 258.728 258.728 269.053 300.218 300.218 383.333 431.268 516.132 
425.162 369.212 334.063 484.043 422.668 412.1 412.333 397.709 397.709 
349.827 343.19 343.19 298.386 318.673 378.858 332.618 357.418 308.209 
293.447 263.004 231.973 226.338 248.52 238.721 243.172 243.172 225.769 
225.55 309.611 330.222 296.761 344.252 344.252 312.208 269.113 269.278 
275.755 278.121 324.558 349.233 370.165 299.303 292.188 288.422 303.667 
316.926 346.845 346.06 356.493 326.634 291.479 345.475 289.419 329.628 
323.01 338.842 338.842 334.375 308.402 308.402 312.915 300.297 279.331 
246.815 280.772 280.643 307.998 307.998 269.034 283.535 304.877 286.665 
268.175 292.633 237.712 241.222 289.828 296.665 300.808 320.061 353.734 
380.839 372.94 360.872 299.883 317.676 300.505 301.476 310.564 314.132 
366.255 425.026 412.258 480.807 492.716 503.443 503.443 463.683 367.361 
367.5 382.631 390.283 367.659 348.81 371.871 395.163 285.266 339.375 
277.468 287.124 236.026 469.519 536.634 560.107 577.149 607.355 636.946 
636.946 580.462 522.322 390.681 389.358 389.358 372.088 362.416 407.469 
336.539 363.521 348.392 363.712 345.884 364.322 275.151 252.954 333.907 
326.1 350.966 236.927 263.036 278.081 274.585 314.873 392.348 453.147 
357.567 299.495 273.577 314.286 293.102 321.643 319.067 387.31 360.783 
452.76 430.096 352.062 393.423 336.203 336.203 316.123 358.283 338.801 
368.895 338.737 380.299 324.476 339.125 301.784 322.635 346.425 316.163 
413.479 488.935 454.716 349.086 308.186 314.775 300.22 328.545 341.706 
299.072 318.017 217.904 299.549 351.621 250.598 306.156 377.847 445.008 
420.127 440.358 377.294 387.281 312.205 321.585 351.022 336.449 292.544 
283.407 366.177 317.192 339.969 413.331 413.331 356.113 385.698 279.353 
304.399 278.878 299.174 298.209 296.016 288.497 283.007 269.529 295.275 
328.403 298.287 328.104 348.014 356.253 332.269 308.439 375.31 315.834 
350.873 240.629 272.568 293.538 232.633 278.335 307.83 322.341 308.82 
294.295 277.255 283.787 272.917 263.152 266.742 269.846 302.971 301.79 
341.032 319.59 343.398 350.056 368.824 362.071 349.105 387.047 354.753 
332.65 327.363 367.992 448.15 386.462 426.655 358.469 310.174 413.185 
391.055 384.515 318.529 380.642 314.105 321.578 304.829 281.616 295.083 
266.864 296.774 422.302 447.146 399.806 360.832 358.498 282.16 340.357 
317.418 273.639 306.282 387.07 496.958 405.28 346.997 299.596 311.287 
303.656 377.954 474.594 460.859 468.143 468.143 357.74 389.848 382.426 
356.548 362.79 351.492 373.117 351.366 354.007 331.258 347.554 364.137 
308.066 344.153 344.153 416.553 386.538 279.032 390.529 387.019 389.047 
360.187 338.616 343.592 288.696 312.871 381.685 382.04 357.086 379.449 
377.271 381.694 419.39 349.771 381.975 394.58 440.68 440.68 395.829 
450.256 450.256 479.778 451.215 393.838 371.029 415.381 387.797 409.054 
361.888 300.65 327.222 346.424 375.43 441.619 345.38 356.664 319.743 
301.75 283.789 315.219 319.316 377.463 324.486 314.169 342.293 402.186 
463.341 543.489 485.486 363.668 354.908 365.051 322.94 336.17 381.918 
398.058 390.263 418.372 384.333 384.333 364.193 310.361 318.461 294.484 
297.935 312.038 395.386 369.034 370.771 414.52 414.643 363.762 386.044 
371.331 358.826 358.826 405.953 433.491 421.055 356.541 363.544 313.032 
325.467 533.211 586.396 551.325 578.995 565.421 654.149 473.709 439.384 
439.384 373.222 444.461 498.898 490.959 454.017 418.184 352.038 352.038 
357.111 427.063 427.063 465.532 414.01 431.051 439.464 472.591 430.483 
403.308 323.268 326.972 352.934 343.514 343.514 343.211 328.498 328.498 
327.213 351.784 393.972 417.108 413.035 393.855 414.158 506.336 413.474 
493.668 460.036 391.347 378.996 387.083 363.803 338.053 315.074 486.993 
499.044 425.545 500.237 377.867 371.154 353.695 478.896 376.39 376.39 
345.412 362.044 390.646 425.771 437.98 426.747 406.052 431.195 447.658 
435.665 461.832 444.058 470.784 446.49 429.791 419.357 418.99 379.774 
303.162 299.937 317.757 339.675 381.21 404.969 379.219 398.394 411.585 
355.827 381.071 410.891 394.964 394.964 400.065 436.208 476.752 507.443 
546.969 612.038 590.955 624.581 658.013 628.335 628.335 657.508 678.784 
678.784 674.032 673.509 673.509 630.334 630.334 628.053 521.439 521.439 
481.621 505.293 471.985 417.617 408.954 426.557 411.527 393.628 352.941 
382.841 423.758 482.649 488.8 479.108 432.621 366.702 384.072 466.95 
444.379 433.991 498.848 590.547 594.662 674.764 603.705 584.98 547.964 
486.688 475.083 483.701 527.976 511.956 511.195 561.946 543.74 566.73 
511.806 458.88 426.041 480.451 553.382 369.878 405.406 464.894 397.946 
395.14 388.23 399.942 376.38 561.76 554.114 480.704 503.433 518.423 
547.19 558.711 318.091 306.154 336.908 309.229 336.808 376.074 362.742 
405.042 434.952 462.272 421.336 400.474 497.399 568.593 522.854 533.325 
533.371 413.493 303.799 402.264 389.004 415.13 489.016 354.78 311.164 
363.42 448.017 485.451 485.451 440.992 444.789 468.533 557.522 662.385 
586.4 543.533 537.041 634.251 671.583 676.217 642.924 625.259 631.827 
546.062 407.058 370.453 387.839 367.702 325.808 419.041 519.408 489.992 
484.333 439.051 399.683 399.683 444.994 538.467 498.867 517.565 595.354 
631.441 562.826 588.472 458.931 430.492 433.685 444.23 456.184 431.672 
418.511 462.001 478.572 501.713 526.483 567 542.186 499.529 431.061 
418.952 359.756 422.006 496.922 577.587 621.096 607.731 556.176 444.58 
523.385 546.256 584.974 619.072 649.38 668.395 605.014 397.789 429.664 
443.392 453.792 477.985 571.239 542.915 566.119 663.598 
FIELD FieldData 7
DY_minmax 1 781 double
1 0.668662 0.286246 0.468371 0.398416 0.249412 0.515521 0.416577 0.250597 
0.46562 0.358415 0.251329 0.113466 0.0896573 0.552885 0.459894 0.364985 0.231162 
0.391141 0.798146 0.451347 0.279916 0.258119 0.368082 0.556046 0.360222 0.180239 
0.26473 0.288277 0.460797 0.235016 0.328209 0.235663 0.408909 0.187324 0.223007 
0.545668 0.394533 0.259697 0.247632 0.197463 0.208366 0.17038 0.121057 0.183278 
0.101402 0.189139 0.00982604 0.277745 0.24374 0.197764 0.234917 0.210338 0.0787299 
0.154327 0.17999 0.196412 0.0251169 0 0.25998 0.184567 0.145063 0.0426542 
0.355931 0.345084 0.248905 0.068656 0.196428 0.401842 0.166598 0.155309 0.128836 
0.107717 0.0550218 0.44388 0.484446 0.38279 0.285187 0.246063 0.253142 0.264846 
0.212625 0.27512 0.204876 0.167188 0.203649 0.206043 0.324172 0.29058 0.356015 
0.302449 0.236998 0.179495 0.333109 0.236871 0.236871 0.216793 0.0972101 0.131862 
0.125955 0.0761821 0.0761821 0.0930316 0.143891 0.143891 0.279529 0.357756 0.496247 
0.34779 0.256484 0.199124 0.44388 0.34372 0.326475 0.326854 0.30299 0.30299 
0.22485 0.214019 0.214019 0.140902 0.174008 0.272227 0.196766 0.237237 0.156932 
0.132841 0.0831614 0.0325199 0.0233248 0.0595243 0.0435328 0.0507961 0.0507961 0.0223956 
0.0220393 0.15922 0.192855 0.13825 0.215751 0.215751 0.163458 0.0931303 0.0933991 
0.10397 0.10783 0.183612 0.22388 0.25804 0.142398 0.130787 0.124641 0.149521 
0.171157 0.219983 0.218702 0.235728 0.187 0.12963 0.217748 0.126268 0.191886 
0.181086 0.206923 0.206923 0.199632 0.157247 0.157247 0.164613 0.14402 0.109805 
0.0567408 0.112156 0.111946 0.156588 0.156588 0.0930015 0.116665 0.151494 0.121774 
0.0915995 0.131514 0.0418867 0.0476148 0.126935 0.138092 0.144854 0.176273 0.231226 
0.27546 0.262568 0.242875 0.143345 0.172381 0.14436 0.145945 0.160776 0.166598 
0.251659 0.347568 0.326732 0.438599 0.458034 0.47554 0.47554 0.410654 0.253463 
0.253691 0.278384 0.29087 0.25395 0.223191 0.260823 0.298835 0.11949 0.207793 
0.106765 0.122522 0.0391341 0.420179 0.529705 0.568011 0.595823 0.645116 0.693407 
0.693407 0.601229 0.506349 0.29152 0.289361 0.289361 0.261178 0.245393 0.318917 
0.203164 0.247196 0.222508 0.247509 0.218415 0.248504 0.102984 0.0667593 0.198869 
0.18613 0.226708 0.0406042 0.0832136 0.107765 0.10206 0.167808 0.29424 0.39346 
0.237481 0.142712 0.100415 0.16685 0.132278 0.178855 0.174652 0.286019 0.242729 
0.392829 0.355843 0.228497 0.295995 0.202616 0.202616 0.169847 0.238649 0.206855 
0.255967 0.206751 0.274578 0.183478 0.207385 0.146448 0.180474 0.219298 0.169913 
0.328725 0.451864 0.39602 0.223641 0.156894 0.167648 0.143894 0.190118 0.211596 
0.142022 0.172938 0.0095602 0.1428 0.227777 0.0629158 0.153582 0.270577 0.380177 
0.339574 0.372589 0.269674 0.285972 0.163453 0.178761 0.2268 0.203018 0.131368 
0.116457 0.251531 0.171591 0.208762 0.328483 0.328483 0.235107 0.283388 0.109842 
0.150715 0.109066 0.142187 0.140612 0.137034 0.124763 0.115804 0.0938099 0.135825 
0.189888 0.140739 0.189398 0.22189 0.235337 0.196196 0.157307 0.266435 0.169375 
0.226557 0.0466469 0.0987686 0.13299 0.0335979 0.108179 0.156313 0.179994 0.15793 
0.134225 0.106418 0.117077 0.0993387 0.0834029 0.0892602 0.0943258 0.148383 0.146456 
0.210496 0.175505 0.214358 0.225222 0.255852 0.24483 0.223672 0.28559 0.232888 
0.196818 0.18819 0.254494 0.385305 0.284635 0.350227 0.238952 0.160138 0.328245 
0.292131 0.281458 0.173774 0.275137 0.166555 0.17875 0.151417 0.113535 0.135512 
0.0894595 0.138271 0.343123 0.383667 0.306412 0.242809 0.239 0.114421 0.209395 
0.17196 0.100516 0.153788 0.285627 0.464957 0.315345 0.220232 0.142876 0.161955 
0.149502 0.27075 0.42846 0.406046 0.417932 0.417932 0.237763 0.29016 0.278049 
0.235817 0.246004 0.227567 0.262857 0.227361 0.231672 0.194546 0.221141 0.248203 
0.156699 0.21559 0.21559 0.333742 0.284759 0.109317 0.291272 0.285544 0.288853 
0.241756 0.206554 0.214674 0.125088 0.16454 0.276839 0.277419 0.236696 0.27319 
0.269636 0.276854 0.338371 0.224757 0.277313 0.297883 0.373116 0.373116 0.299922 
0.388742 0.388742 0.43692 0.390308 0.296673 0.25945 0.331829 0.286814 0.321504 
0.244532 0.144596 0.187959 0.219297 0.266631 0.374647 0.217592 0.236007 0.175755 
0.146391 0.11708 0.168372 0.175058 0.26995 0.183494 0.166658 0.212555 0.310296 
0.410096 0.540892 0.446235 0.247437 0.233141 0.249693 0.180971 0.202562 0.277219 
0.30356 0.290838 0.33671 0.281161 0.281161 0.248293 0.160443 0.173663 0.134533 
0.140165 0.163181 0.299199 0.256194 0.259029 0.330423 0.330625 0.247591 0.283952 
0.259943 0.239535 0.239535 0.316443 0.361382 0.341088 0.235807 0.247234 0.164804 
0.185096 0.524119 0.610913 0.55368 0.598835 0.576682 0.721481 0.427016 0.370999 
0.370999 0.263028 0.379285 0.468122 0.455167 0.39488 0.336403 0.228458 0.228458 
0.236736 0.350893 0.350893 0.413671 0.329591 0.357402 0.371131 0.425191 0.356474 
0.312126 0.181507 0.187551 0.22992 0.214547 0.214547 0.214053 0.190043 0.190043 
0.187946 0.228044 0.296891 0.334648 0.328001 0.2967 0.329834 0.480261 0.328716 
0.459588 0.404702 0.292608 0.272451 0.285648 0.247657 0.205635 0.168135 0.448694 
0.468361 0.348416 0.470307 0.270609 0.259653 0.231162 0.43548 0.268198 0.268198 
0.217644 0.244787 0.291463 0.348785 0.368709 0.350377 0.316605 0.357636 0.384503 
0.364931 0.407634 0.378627 0.422242 0.382596 0.355345 0.338318 0.337718 0.27372 
0.148695 0.143432 0.172514 0.208282 0.276064 0.314837 0.272815 0.304106 0.325634 
0.23464 0.275837 0.324501 0.29851 0.29851 0.306834 0.365817 0.431982 0.482067 
0.54657 0.652759 0.618352 0.673228 0.727786 0.679354 0.679354 0.726962 0.761684 
0.761684 0.753928 0.753074 0.753074 0.682617 0.682617 0.678894 0.504908 0.504908 
0.439928 0.478558 0.424202 0.335478 0.32134 0.350067 0.325539 0.29633 0.229931 
0.278725 0.345499 0.441605 0.451644 0.435826 0.359963 0.252388 0.280734 0.415986 
0.379151 0.362198 0.46804 0.617686 0.624403 0.755123 0.63916 0.608602 0.548195 
0.448197 0.429258 0.443321 0.515575 0.489432 0.48819 0.571012 0.541302 0.578819 
0.489188 0.402816 0.349226 0.438018 0.557037 0.257571 0.31555 0.412631 0.303377 
0.298797 0.28752 0.306634 0.268181 0.570708 0.558231 0.438431 0.475524 0.499986 
0.546932 0.565733 0.173059 0.153579 0.203767 0.158596 0.203603 0.267683 0.245925 
0.314956 0.363768 0.408351 0.341548 0.307501 0.465676 0.58186 0.507217 0.524304 
0.52438 0.328747 0.149735 0.310423 0.288784 0.331419 0.451996 0.232932 0.161755 
0.247033 0.385088 0.446178 0.446178 0.373624 0.379821 0.418569 0.563792 0.734921 
0.610919 0.540963 0.530369 0.689009 0.749932 0.757494 0.703163 0.674335 0.685053 
0.54509 0.318246 0.25851 0.286882 0.254021 0.185652 0.337802 0.501593 0.453589 
0.444354 0.370457 0.306211 0.306211 0.380155 0.532697 0.468072 0.498586 0.625531 
0.684423 0.572447 0.6143 0.4029 0.356489 0.3617 0.378909 0.398416 0.358415 
0.336936 0.40791 0.434952 0.472716 0.513138 0.57926 0.538766 0.469153 0.357417 
0.337656 0.241053 0.34264 0.464897 0.596537 0.66754 0.64573 0.561596 0.37948 
0.508084 0.545408 0.608591 0.664237 0.713698 0.744728 0.641296 0.303119 0.355138 
0.377541 0.394512 0.433994 0.586178 0.539954 0.577823 0.736901 
WidthEq 1 781 double
1 1.84402 4.35393 1.74565 1.5032 2.63049 2.10242 2.13994 3.05981 
3.39286 3.89448 2.00323 2.71537 2.20791 3.46134 4.0046 4.14112 2.68638 
3.9606 2.06179 3.94064 4.36856 5.5476 4.00721 3.53624 4.29232 4.07881 
6.08876 2.58604 2.1702 3.75968 6.69319 3.9009 5.3866 4.50126 5.12718 
1.72162 5.01782 5.11427 4.32958 3.93345 5.94481 6.68779 6.98899 4.99868 
4.59377 5.02685 2.09091 3.37576 6.66547 6.39066 4.74822 3.20732 5.05272 
4.47538 3.88418 3.45149 3.31103 5.5853 5.87385 4.67351 6.14173 4.57858 
2.07336 3.43718 4.08078 6.19539 3.10095 2.97041 2.92622 5.23585 3.38599 
5.29002 4.44829 3.93403 3.48181 3.47902 3.77328 3.66023 3.63804 3.78238 
3.93186 3.90535 4.00123 3.87635 3.88812 3.97421 3.68458 3.79846 3.55665 
3.74925 3.95399 4.07607 3.94674 3.70563 3.70563 3.83916 4.50342 4.56395 
4.87087 5.29784 5.29784 5.13055 4.68629 4.68629 3.80082 3.65515 3.13706 
3.60606 4.1806 4.8345 3.93403 3.83591 3.74722 3.65445 3.73323 3.73323 
3.85461 3.85264 3.85264 3.69266 3.60485 3.33462 3.12345 2.96532 3.06019 
3.32959 3.72541 3.67568 3.731 3.91565 3.42332 3.27237 3.27237 3.46872 
3.6582 5.54525 5.23502 5.25988 4.56968 4.56968 4.60897 5.07046 5.42736 
5.70669 6.09569 3.22004 3.04576 3.17801 3.90821 4.08014 4.38814 4.20502 
3.95666 3.52944 3.30448 3.25927 3.39153 3.53898 3.51825 3.88716 3.63531 
3.63734 3.87 3.87 4.1937 4.78465 4.78465 4.8668 4.72482 4.67942 
4.00263 3.79115 3.94661 3.97001 3.97001 4.04409 3.9374 3.90668 4.23535 
4.52536 4.38128 5.553 5.79551 5.14136 5.24774 5.42838 5.44052 5.44561 
5.28519 5.45216 5.49781 5.5792 5.835 6.04584 6.326 6.6958 2.92622 
3.28795 3.11214 3.05345 2.7375 2.47045 2.41538 2.41538 2.58064 3.218 
3.21311 3.33754 3.98044 4.40448 4.52962 3.79726 2.48259 6.05723 5.64832 
5.36429 5.20692 5.14041 3.66119 3.29202 2.83281 2.33756 2.2348 2.1112 
2.1112 2.55419 2.83078 4.19173 4.11441 4.11441 4.09311 3.9922 3.80075 
3.90153 3.90624 3.41213 2.89442 2.85971 2.89455 3.11773 3.20433 3.38243 
3.44862 3.57789 4.32977 3.99526 3.83579 4.32386 3.71695 2.84928 2.51902 
2.84159 3.00195 3.33354 4.68082 4.6318 4.44766 4.33639 3.76267 3.81805 
3.14018 3.17496 3.37607 3.30143 3.72146 3.72146 4.42273 4.14608 4.43151 
4.36741 4.45974 4.36474 4.55238 4.54513 4.37994 4.13228 4.06959 3.55932 
3.2257 2.73566 2.62146 3.1768 5.97889 5.59268 5.33688 5.30579 5.47257 
6.34297 6.49131 5.40174 4.88086 5.22357 3.15919 2.8667 2.62947 2.36897 
2.48965 2.5236 2.87719 2.63913 3.37169 3.66761 3.57897 3.89746 4.07391 
4.11588 3.78835 3.97103 3.61668 3.05389 3.05389 3.35407 3.14774 4.10837 
4.3526 4.81397 3.61127 3.39916 3.26239 3.54686 3.51291 4.04994 3.90668 
3.5784 4.01268 3.69069 3.93561 4.00041 4.31566 4.90972 3.90013 4.41415 
5.63935 5.93057 6.15629 6.25472 3.15289 3.00849 2.9142 3.35573 3.85524 
4.14169 4.5911 4.7149 4.96644 5.2932 5.5078 5.58804 5.49247 5.52178 
5.19083 6.35995 5.42507 5.21194 5.32264 5.69626 4.99791 4.77696 4.81447 
5.55192 6.52978 4.8792 4.59892 5.45032 5.16571 4.35165 6.49729 6.35003 
7.10452 7.72351 6.9488 6.03929 6.42112 6.12761 6.22115 6.27729 6.15941 
6.8086 6.57429 2.97123 2.86212 2.97651 3.51157 3.97834 3.50064 5.36219 
5.77383 6.21034 6.21854 5.71858 4.03792 5.45388 4.01726 4.9817 5.25479 
5.47174 4.50253 3.9208 3.26086 2.80356 2.80356 2.74526 2.59196 2.40998 
2.46987 2.47884 2.52907 2.4611 2.62597 2.75835 2.85233 2.89315 3.06038 
3.33525 3.11977 3.11977 2.63755 4.77492 4.93198 3.90859 4.04504 3.64891 
3.34937 3.3289 3.17973 3.3034 3.32088 2.99482 2.70494 2.98961 3.15715 
3.21813 3.18443 3.1274 2.98649 2.84222 2.64149 2.42257 2.42257 2.23563 
1.88859 1.88859 1.83893 2.1372 2.35911 3.03043 2.9795 3.38612 3.7427 
3.97485 6.36631 6.7026 6.7419 6.59178 5.30477 4.25977 4.5141 5.03791 
4.71744 4.36989 3.5454 3.06038 3.12867 3.58031 4.28208 6.41406 5.26293 
4.63574 4.28965 4.78427 5.91143 4.01185 4.16388 4.0252 3.97186 4.41307 
4.46826 3.88335 3.51316 3.43082 3.43082 3.53694 4.33054 4.33581 5.30776 
5.47505 5.37789 4.25029 3.892 3.76356 5.37255 5.32385 5.2595 4.80735 
4.62169 4.41478 4.41478 6.7426 5.69747 5.13538 5.15662 5.05889 4.80703 
4.82503 3.90083 2.93874 2.41786 1.97792 2.1028 1.89215 2.55215 2.84432 
2.84432 3.1384 2.89557 2.68193 2.7499 2.81526 2.87567 3.35528 3.35528 
3.59868 3.52753 3.52753 3.82511 4.23306 4.36328 4.06183 3.69374 3.85423 
4.17946 4.70371 4.56109 4.50622 4.11893 4.11893 4.01414 3.81131 3.81131 
3.88214 4.04949 4.2157 4.30777 4.08923 4.26326 4.25856 4.44937 5.91575 
5.06595 4.7926 4.56821 4.34764 3.27307 3.03711 2.86505 2.38448 1.66058 
1.20875 1.51948 1.5046 2.27238 2.61198 2.68638 3.04137 4.26778 4.26778 
5.30922 5.98531 5.56865 5.84384 5.31615 4.87265 4.93567 4.7699 4.13362 
4.04797 3.81608 3.57757 3.37843 3.46948 3.56091 3.68954 3.84787 4.23357 
4.66836 4.6009 4.41103 3.9145 3.49345 3.34536 2.7087 2.6207 2.39923 
2.36744 2.35701 2.14801 2.21007 2.21007 2.25401 2.09441 2.08303 1.92502 
1.92172 1.7742 1.72893 1.68849 1.55229 1.59305 1.59305 1.57601 1.54619 
1.54619 1.58243 1.59858 1.59858 1.78952 1.78952 1.88388 2.21694 2.21694 
2.3387 2.7333 2.79981 3.16351 3.35891 3.42135 3.30289 3.04162 2.99826 
2.76198 2.62864 2.90339 3.48512 3.90891 4.02495 4.96364 4.89898 4.12001 
3.5564 3.3617 2.69064 2.42492 2.3195 2.04418 2.28739 2.43109 2.76319 
2.91293 3.08626 2.89551 2.81647 2.80077 2.75028 2.37615 2.93658 3.05478 
3.49116 4.2817 4.35629 4.17177 3.50687 4.77492 4.30097 3.74874 4.1684 
4.04701 3.96785 3.91559 4.11162 3.44862 3.33157 3.73221 3.29952 3.92411 
3.72954 3.82854 2.83987 3.00436 2.85964 2.73298 2.63405 2.39173 2.42759 
2.29336 2.02714 1.92133 1.94372 4.21303 4.03442 3.76114 3.7696 3.63416 
3.59989 4.42273 2.97772 2.19316 1.94982 1.82087 2.01525 2.62464 2.78029 
2.63367 2.44202 2.42842 2.42842 2.99044 3.06617 3.17954 2.76904 2.47623 
2.57917 2.44813 2.4192 2.08589 1.85762 1.93024 1.87479 2.07127 2.12468 
2.38238 2.99343 3.36304 3.49949 3.68999 2.72326 1.85368 1.64779 1.7777 
1.98301 2.18858 2.42384 2.42384 1.84058 1.6174 1.64659 1.62783 1.50766 
1.43205 1.41075 1.37852 1.39454 1.3885 1.46544 1.5453 1.5032 3.89448 
3.81347 3.59538 3.27587 2.87026 2.55425 2.30996 2.42861 2.58763 2.7623 
2.9528 3.13643 2.83313 2.46644 2.11412 1.98193 2.09161 2.12022 3.57172 
2.59132 2.624 2.14261 1.81903 1.71494 1.57862 1.75875 2.97874 2.86104 
2.56887 2.46434 2.3443 2.09028 2.03242 1.72022 1.34628 
rRFP 1 781 double
2422.05 2554.79 2949.53 2539.32 2501.19 2678.48 2595.43 2601.33 2746 
2798.38 2877.27 2579.83 2691.83 2612.02 2809.15 2894.59 2916.06 2687.27 
2887.67 2589.04 2884.53 2951.83 3137.26 2895 2820.93 2939.84 2906.26 
3222.37 2671.49 2606.09 2856.07 3317.43 2878.28 3111.94 2972.7 3071.14 