# vtk DataFile Version 3.0
vtk output
ASCII
DATASET POLYDATA
POINTS 869 float
1.91808 -0.630752 1.70874 0.218169 0.792631 1.12127 1.70833 0.897405 1.13621 
1.8845 0.675677 1.18257 -0.127328 -0.415142 0.768652 -0.126911 0.741785 0.666967 
0.0104794 0.884538 0.675362 0.565401 1.2515 0.727706 2.07997 -1.56224 1.20612 
2.20871 0.761625 1.02137 -0.0408607 -1.02228 0.429084 -0.071787 1.26579 0.223138 
1.64123 -1.87664 0.760718 -0.363581 -0.950762 0.170508 2.32974 -1.57841 0.636403 
3.4004 -0.834603 0.734247 3.1272 0.871313 0.339482 0.760969 1.66019 -0.29379 
3.90238 -0.503721 0.104772 -0.454978 -0.497087 -0.763323 2.77452 1.1998 -0.555486 
3.76946 -1.70916 -0.283316 -0.570771 0.537717 -1.21044 -0.448239 -0.0505448 -1.14002 
-0.392542 -0.317937 -1.10801 1.07604 -2.11315 -0.86157 0.424381 1.37655 -1.13247 
-0.294974 -0.155432 -1.43235 4.14493 -1.30795 -0.735192 4.25343 -0.840628 -0.800363 
0.0257502 -1.13858 -1.4459 3.37953 0.815461 -1.03865 -0.0965644 -0.734236 -1.63549 
0.666407 -1.85865 -1.48796 0.478578 -0.642616 -1.55585 0.674157 1.36038 -1.70219 
4.47797 -0.491722 -1.11157 4.77479 -0.407137 -0.921448 5.64555 -0.134663 -0.948011 
6.11403 0.117009 -0.763329 0.417387 -0.713158 -2.11743 2.03845 -2.38807 -1.36756 
4.05331 -1.63519 -1.26191 5.61711 -0.452992 -1.19512 0.197032 -0.641898 -2.00499 
4.10582 -1.22096 -1.35803 5.35595 -0.268984 -1.25113 0.453274 -0.989702 -2.2061 
0.622245 0.244951 -2.4243 1.25608 0.854824 -2.44898 3.49874 -1.797 -1.80609 
0.910957 -1.2817 -2.44909 1.31074 -1.86378 -2.33693 1.15109 0.507383 -2.56982 
3.20078 -2.11176 -2.02692 3.96448 -0.429206 -2.05844 0.892535 -0.803486 -2.83241 
0.921822 -0.498377 -2.85478 1.19454 -1.18358 -2.75293 1.50294 0.282328 -2.69945 
0.775467 -0.912382 -2.90838 1.19259 -1.04277 -2.83331 1.81723 -1.72371 -2.67817 
1.82559 -1.54327 -2.76046 3.12409 -1.31615 -2.65012 3.71882 -0.868246 -2.46344 
3.19344 -1.29594 -2.57614 3.25188 -1.3111 -2.49068 3.30625 -1.3435 -2.40684 
3.36546 -1.3819 -2.35933 3.4298 -1.42334 -2.34587 3.4982 -1.46547 -2.36182 
3.56419 -1.49601 -2.37916 3.62469 -1.50022 -2.39965 3.67944 -1.49091 -2.39965 
3.73046 -1.47781 -2.37797 3.77589 -1.46138 -2.31984 3.8191 -1.44368 -2.24711 
3.86118 -1.42522 -2.16711 3.90511 -1.40628 -2.10191 3.94591 -1.37698 -2.03057 
3.98141 -1.33166 -1.94641 4.01554 -1.29852 -1.8313 4.04834 -1.27316 -1.69315 
4.07818 -1.24765 -1.53289 3.11278 -1.40131 -2.64686 3.07778 -1.4699 -2.6236 
3.02968 -1.52174 -2.59128 2.97921 -1.55907 -2.57563 2.93764 -1.61282 -2.59981 
2.89901 -1.66662 -2.6461 2.85415 -1.69524 -2.68802 2.80246 -1.7098 -2.70215 
2.7459 -1.71981 -2.68733 2.68783 -1.72729 -2.66544 2.62663 -1.72443 -2.63742 
2.56347 -1.70746 -2.61845 2.50339 -1.70524 -2.59773 2.44646 -1.71347 -2.58312 
2.38915 -1.72461 -2.56079 2.33167 -1.74428 -2.52271 2.27615 -1.77806 -2.47555 
2.21864 -1.79762 -2.43747 2.16319 -1.80827 -2.42994 2.1098 -1.81 -2.45298 
2.05775 -1.79936 -2.50697 2.00944 -1.80218 -2.56675 1.95887 -1.80198 -2.6196 
1.89525 -1.77235 -2.65447 1.91056 -1.51663 -2.81502 1.97605 -1.49046 -2.85247 
2.02794 -1.45296 -2.86791 2.07955 -1.42981 -2.86709 2.13238 -1.416 -2.86025 
2.18558 -1.40396 -2.8532 2.23992 -1.39267 -2.85343 2.29648 -1.38267 -2.86825 
2.35638 -1.37458 -2.90495 2.41625 -1.3664 -2.94167 2.47242 -1.35451 -2.95671 
2.51989 -1.32906 -2.92915 2.56096 -1.28695 -2.88146 2.60509 -1.25958 -2.83201 
2.65456 -1.24374 -2.8033 2.70628 -1.22929 -2.78916 2.75748 -1.20764 -2.78326 
2.80766 -1.18109 -2.77794 2.86436 -1.18586 -2.76887 2.92211 -1.19704 -2.75658 
2.98333 -1.22644 -2.73462 3.04937 -1.26767 -2.69837 3.76238 -0.838623 -2.42932 
3.78908 -0.785533 -2.38479 3.79798 -0.725366 -2.33607 3.82429 -0.670389 -2.29177 
3.86554 -0.629152 -2.25902 3.90437 -0.572157 -2.2205 3.93683 -0.50285 -2.15396 
1.82122 -1.63338 -2.7181 1.75319 -1.49445 -2.81088 1.69497 -1.44693 -2.82394 
1.65159 -1.39811 -2.80227 1.59522 -1.36222 -2.7739 1.53527 -1.34653 -2.76186 
1.47473 -1.3275 -2.76524 1.41582 -1.31392 -2.77291 1.35162 -1.2827 -2.77541 
1.27891 -1.23763 -2.76791 1.73188 -1.75013 -2.62117 1.66306 -1.77438 -2.56184 
1.60413 -1.80781 -2.50019 1.54325 -1.82561 -2.44022 1.48151 -1.83429 -2.3887 
1.42164 -1.84248 -2.35198 1.36508 -1.85249 -2.33716 1.19592 -1.10493 -2.79474 
1.1302 -1.00078 -2.84651 1.07696 -0.956403 -2.85603 1.03652 -0.907615 -2.85645 
0.974947 -0.858078 -2.84764 1.24954 -0.987685 -2.92725 1.30408 -0.939746 -2.99083 
1.35539 -0.904565 -3.00867 1.40047 -0.862938 -2.99041 1.44417 -0.833476 -2.94122 
1.48641 -0.801699 -2.88491 1.52613 -0.748434 -2.84594 1.57106 -0.696705 -2.84364 
1.62461 -0.662816 -2.87605 1.67931 -0.625078 -2.92369 1.73283 -0.591083 -2.95612 
1.77724 -0.537393 -2.95407 1.81218 -0.471095 -2.91697 1.83309 -0.404306 -2.867 
1.83077 -0.343506 -2.82758 1.83168 -0.284653 -2.81005 1.85737 -0.222026 -2.80412 
1.88573 -0.159693 -2.80528 1.89767 -0.10104 -2.80861 1.90306 -0.0438562 -2.81282 
1.87539 0.0059166 -2.82142 1.84106 0.0541972 -2.8309 1.78845 0.098377 -2.84281 
1.72484 0.140984 -2.84873 1.65614 0.185121 -2.833 1.58176 0.232441 -2.78082 
0.991689 -0.419556 -2.88365 1.04792 -0.36305 -2.90261 1.10059 -0.335558 -2.90702 
1.15139 -0.310105 -2.90402 1.1987 -0.269771 -2.90036 1.24657 -0.232689 -2.89632 
1.28922 -0.179395 -2.8945 1.32016 -0.118447 -2.89514 1.33607 -0.0590181 -2.89795 
1.36661 0.00380603 -2.89881 1.40572 0.0694394 -2.8911 1.44324 0.137393 -2.86127 
1.47532 0.208577 -2.79495 0.929976 -0.582621 -2.87621 0.938014 -0.649068 -2.88168 
0.930905 -0.71594 -2.86434 0.829834 -0.874756 -2.8708 1.44414 0.320666 -2.74939 
1.38089 0.361571 -2.77015 1.31097 0.406325 -2.74715 1.23325 0.455571 -2.67307 
1.10511 -1.20766 -2.66919 1.03295 -1.22997 -2.58797 0.972187 -1.26245 -2.51414 
0.818177 -0.433214 -2.71335 0.732157 -0.380644 -2.61828 0.662804 -0.349768 -2.58143 
0.606176 -0.358081 -2.56927 0.555098 -0.39441 -2.5513 0.49923 -0.427029 -2.50243 
0.445163 -0.478072 -2.41592 0.409334 -0.564703 -2.28402 3.91362 -0.38463 -2.07012 
3.87744 -0.336767 -2.07984 3.83726 -0.29069 -2.09755 3.80431 -0.244775 -2.12917 
3.75828 -0.204575 -2.18485 3.70397 -0.168979 -2.24892 3.6488 -0.142848 -2.30475 
3.59326 -0.129557 -2.33695 3.53244 -0.100349 -2.35632 3.46889 -0.0626635 -2.36933 
3.40735 -0.0347007 -2.38117 3.35202 -0.0318143 -2.39738 3.29929 -0.0319902 -2.42797 
3.24684 -0.0194571 -2.48219 3.19658 -0.0127006 -2.54311 3.14415 -0.000274198 -2.59732 
3.09183 -0.00243396 -2.62767 3.03933 -0.013131 -2.64226 2.9872 -0.0255978 -2.65663 
2.93731 -0.0394543 -2.68558 2.89076 -0.0552357 -2.73642 2.84533 -0.0716595 -2.79456 
2.79878 -0.0874407 -2.84539 2.74887 -0.101191 -2.87436 2.69635 -0.111781 -2.88896 
2.64029 -0.110139 -2.89765 2.57876 -0.0821666 -2.90949 2.51492 -0.04258 -2.92271 
2.45133 -7.99584e-005 -2.92862 2.39518 0.0459789 -2.91867 2.35043 0.0972687 -2.88488 
2.29058 0.146955 -2.83821 2.22962 0.197283 -2.78423 2.18155 0.2505 -2.72855 
2.11993 0.29979 -2.68211 2.05263 0.346022 -2.65131 1.99657 0.392103 -2.64135 
1.9573 0.440166 -2.64404 1.90336 0.48494 -2.64868 1.83753 0.52883 -2.64002 
1.7666 0.574249 -2.60971 1.69445 0.620287 -2.5721 1.62341 0.665683 -2.5418 
1.5548 0.709596 -2.52855 1.4832 0.753822 -2.51578 1.39064 0.801447 -2.48895 
4.01155 -0.448837 -1.95176 4.05998 -0.456198 -1.87604 4.11356 -0.469469 -1.82909 
4.16516 -0.468545 -1.79122 4.21454 -0.466337 -1.73876 4.26476 -0.477586 -1.66994 
4.31154 -0.482341 -1.5853 4.35745 -0.491175 -1.47222 4.4068 -0.488418 -1.31263 
3.152 -2.12626 -2.06317 3.10432 -2.14129 -2.10673 3.05516 -2.15391 -2.1432 
2.99952 -2.15426 -2.15165 2.93525 -2.13665 -2.12539 2.87071 -2.13186 -2.07548 
2.80708 -2.13614 -2.01711 2.74494 -2.14283 -1.96583 2.68504 -2.15091 -1.92913 
2.62848 -2.16092 -1.91431 2.57415 -2.17221 -1.91408 2.52092 -2.18414 -1.92115 
2.46661 -2.19554 -1.9209 2.41044 -2.20742 -1.90586 2.35298 -2.2272 -1.86776 
2.29673 -2.26221 -1.81309 2.23724 -2.29101 -1.74441 2.17584 -2.3248 -1.65303 
2.10784 -2.35034 -1.52576 1.25436 0.731213 -2.50355 1.22986 0.643241 -2.54468 
1.19235 0.573366 -2.56431 1.10068 0.481974 -2.57527 1.05298 0.443517 -2.57916 
1.00256 0.418108 -2.58461 0.952167 0.392603 -2.59005 0.903706 0.353105 -2.58645 
0.851606 0.321687 -2.56907 0.79556 0.29512 -2.53015 0.733918 0.290704 -2.48651 
0.677503 0.265906 -2.4478 0.846594 -1.24015 -2.46256 0.781119 -1.19796 -2.46873 
0.712631 -1.15403 -2.45546 0.637832 -1.10641 -2.40586 0.552492 -1.0524 -2.31833 
0.874353 -1.33786 -2.38203 0.86207 -1.38857 -2.31176 0.861223 -1.43672 -2.23996 
0.862136 -1.48447 -2.16793 0.862509 -1.53323 -2.10341 0.85422 -1.58483 -2.04749 
0.830516 -1.64077 -2.00106 0.807036 -1.69433 -1.93474 0.762845 -1.74873 -1.83391 
0.709145 -1.80274 -1.6794 3.56988 -1.82875 -1.86015 3.62927 -1.83233 -1.87334 
3.67996 -1.82233 -1.84393 3.72892 -1.81815 -1.79169 3.77945 -1.82616 -1.73064 
3.82155 -1.80782 -1.65062 3.85519 -1.763 -1.55165 3.89088 -1.72917 -1.4489 
3.93125 -1.6975 -1.36781 3.98104 -1.65703 -1.31113 1.24858 0.982014 -2.33094 
1.26884 1.06213 -2.24464 1.30816 1.10606 -2.19487 1.35059 1.14922 -2.15961 
1.3947 1.1767 -2.11017 1.43864 1.19564 -2.04497 1.48182 1.21346 -1.97226 
1.52501 1.23127 -1.89954 1.56783 1.25085 -1.82705 1.60863 1.28015 -1.75571 
1.64636 1.32419 -1.68614 1.68715 1.35348 -1.61481 1.72997 1.37307 -1.5423 
1.77316 1.39088 -1.46959 1.81638 1.40859 -1.39687 1.85961 1.42619 -1.32413 
1.90321 1.44202 -1.25118 1.94997 1.44738 -1.18435 2.00239 1.43496 -1.13014 
2.05713 1.42553 -1.0984 2.11439 1.40866 -1.07314 2.16915 1.39912 -1.04139 
2.22199 1.38471 -0.986943 2.27269 1.37586 -0.925777 2.32792 1.34997 -0.869955 
2.38816 1.3141 -0.835052 2.44786 1.28554 -0.808389 2.5045 1.2717 -0.783498 
2.56272 1.24556 -0.74976 2.62202 1.21887 -0.723321 2.67713 1.20766 -0.69137 
2.7296 1.19503 -0.637126 1.11675 0.909213 -2.37472 1.02107 0.948338 -2.31002 
0.951278 0.966613 -2.26712 0.887172 0.98579 -2.24598 0.827062 0.988121 -2.22527 
0.766795 0.981817 -2.18878 0.705043 0.973239 -2.13727 0.644222 0.955491 -2.07729 
0.586469 0.923013 -2.01555 0.527897 0.903865 -1.97015 0.471007 0.890746 -1.94758 
[...]
POINT_DATA 869
SCALARS DY_raw double
LOOKUP_TABLE default
461.431 921.164 873.982 1058.33 623.646 918.027 889.685 828.843 1439.63 
883.184 867.131 973.45 572.962 963.943 375.313 692.671 799.841 876.89 
828.499 658.123 762.407 621.632 1055.91 1075.98 975.988 817.213 1519.56 
1130.36 872.561 767.554 835.87 773.365 831.55 630.913 797.937 504.507 
897.363 856.128 855.648 612.961 720.077 821.962 463.381 440.801 863.002 
717.659 774.815 617.922 914.839 756.403 922.351 713.532 913.594 883.869 
622.944 715.55 691.13 685.136 660.093 865.805 577.037 715.031 643.201 
950.963 856.362 762.337 893.918 898.76 934.146 1070.56 1070.56 782.903 
650.792 560.15 495.662 438.449 501.715 541.334 669.923 664.545 571.861 
729.636 771.105 667.046 840.41 801.392 908.102 949.531 822.997 776.552 
702.56 638.369 621.719 612.71 686.752 626.427 670.695 740.84 688.644 
688.644 765.131 804.908 878.963 860.858 829.516 742.099 614.595 523.207 
567.62 895.172 984.253 918.513 980.349 984.695 1076.9 1076.9 1102.55 
1028.06 936.706 963.522 963.522 1041.58 1159.79 1159.79 1269.23 1273.62 
1273.62 1173.02 1059.3 978.522 854.216 821.441 855.889 827.325 795.776 
745.143 792.709 619.07 811.689 880.91 803.412 787.592 754.098 826.6 
826.6 792.994 722.93 707.923 732.36 684.521 772.232 797.21 813.468 
881.796 904.868 689.4 728.511 695.338 657.68 692.527 612.631 683.089 
755.54 794.207 924.768 1007.41 994.088 869.729 966.975 709.896 739.213 
748.078 779.504 767.242 767.242 841.603 771.777 771.777 705.479 708.721 
708.721 730.38 730.933 693.705 748.68 730.328 749.002 761.631 781.787 
797.978 797.978 821.282 818.134 791.262 759.36 679.34 647.975 743.652 
717.711 672.638 635.572 686.416 672.112 821.31 855.836 768.278 742.566 
801.423 761.773 804.082 841.54 848.189 846.923 812.4 814.961 833.729 
813.393 824.296 788.289 911.062 911.062 1081.04 1074.45 994.455 864.625 
838.237 812.319 816.916 798.626 756.755 808.888 738.419 705.26 625.305 
625.305 649.101 753.284 679.886 746.453 673.137 630.532 585.001 585.001 
595.593 637.082 673.433 625.131 611.725 672.358 585.586 671.637 699.515 
771.051 845.118 841.624 853.523 889.497 824.717 879.956 944.83 910.822 
795.84 805.897 752.996 718.128 642.562 705.584 514.594 514.682 571.684 
635.366 754.532 840.216 658.103 552.341 502.955 469.58 482.522 527.461 
615.278 808.635 808.635 835.023 831.111 831.111 765.263 765.263 862.674 
877.3 820.905 804.382 723.98 784.067 852.412 862.912 883.869 929.051 
894.878 799.241 700.045 677.149 756.784 889.33 960.476 763.491 699.216 
567.469 537.488 549.443 760.674 734.25 665.156 734.75 652.006 699.534 
722.318 751.342 812.259 696.193 672.607 592.44 503.512 454.941 512.248 
478.225 589.781 468.863 545.225 531.587 736.758 851.699 840.158 889.766 
978.775 951.758 1049.32 1138.08 1052.07 1004.64 1084.06 855.131 916.503 
897.282 741.851 813.067 794.972 740.492 815.293 715.178 680.548 630.24 
713.656 741.044 783.78 746.137 726.564 710.581 714.797 688.9 737.036 
773.356 741.929 819.262 898.096 917.548 809.358 881.523 883.257 941.269 
1016.63 1056.26 988.388 988.388 929.162 929.162 817.275 944.538 944.538 
883.855 948.812 887.776 976.599 1032.71 1136.57 999.35 1029.55 959.999 
888.265 947.927 974.34 1093.91 1058.39 1077.58 805.764 550.584 571.685 
662.996 595.801 567.122 628.325 532.489 491.573 491.573 429.618 508.559 
589.169 729.939 963.044 937.269 908.054 718.55 670.166 775.569 776.218 
854.169 495.815 601.465 739.533 686.545 607.403 639.287 671.524 659.676 
720.22 714.501 783.317 789.917 774.61 862.38 823.052 872.032 871.286 
982.371 816.696 864.577 818.754 836.264 854.829 607.873 804.325 801.194 
802.46 819.084 884.21 801.915 857.483 843.315 795.74 734.132 814.715 
787.818 656.853 577.206 918.397 872.574 874.528 933.993 926.565 1035.35 
1086.17 899.986 786.318 837.836 870.315 939.015 912.866 819.284 819.284 
779.33 719.218 656.171 709.831 752.44 672.706 633.708 610.214 649.006 
663.762 685.941 681.196 695.35 743.196 638.243 650.923 512.911 865.724 
914.828 939.25 933.009 1006.79 900.814 685.345 673.632 592.196 532.934 
589.655 661.675 722.2 821.995 858.34 853.738 946.176 850.319 811.156 
811.156 756.351 807.856 729.753 761.754 860.376 744.316 616.888 616.888 
558.198 557.942 611.311 626.745 650.714 803.265 796.88 874.981 912.95 
816.627 931.874 865.565 777.049 851.142 725.964 729.097 665.879 689.883 
614.006 804.659 852.887 831.216 832.101 828.359 687.248 1162.26 680.383 
693.019 684.668 718.544 803.12 818.035 747.204 791.678 746.729 719.581 
706.988 708.884 709.12 701.115 702.845 681.155 798.949 795.888 823.556 
818.002 897.038 938.825 962.658 1019.76 947.263 925.682 911.194 815.245 
724.164 782.635 911.088 879.864 911.125 797.387 1032.13 989.187 955.97 
918.916 860.423 870.26 1100.3 930.601 914.62 921.511 1052.33 970.957 
873.131 737.054 1144.88 1135.21 1072.5 1048.69 828.298 734.984 683.371 
686.281 795.908 745.208 795.765 825.103 866.178 866.178 729.371 725.838 
725.838 678.183 747.216 729.197 827.17 711.154 991.812 860.172 763.343 
726.06 637.641 672.508 659.772 759.48 669.065 754.152 768.96 703.043 
747.173 714.41 685.092 728.751 661.107 728.856 679.33 693.279 625.953 
1033.45 871.047 728.147 778.514 704.236 678.985 741.311 902.588 861.956 
749.961 864.24 963.08 898.329 825.952 896.115 900.091 624.234 611.476 
576.064 572.276 678.106 595.498 637.497 605.064 612.432 819.675 832.085 
884.021 799.516 802.182 766.657 783.948 776.258 699.803 734.028 766.597 
727.796 727.796 681.904 703.155 788.842 830.465 903.063 966.253 985.681 
994.357 931.916 931.916 744.899 695.231 726.909 805.901 804.915 755.727 
675.31 617.466 656.293 711.207 711.207 765.229 765.229 710.628 639.744 
687.241 684.427 759.35 793.129 788.6 871.588 830.054 797.267 821.406 
792.952 769.823 826.55 826.55 822.979 800.854 786.669 821.05 873.547 
890.9 912.032 959.923 934.742 942.204 850.462 841.645 847.974 865.259 
882.28 888.929 799.343 857.447 828.652 807.98 850.96 858.83 908.571 
912.842 885.03 558.476 772.97 1016.3 1004.42 1013.13 907.031 907.031 
827.317 861.19 987.251 1187.55 1067.52 1144.67 1141.28 1004.84 956.61 
986.175 894.216 919.282 919.346 841.218 1033.74 1117.74 1089.48 1089.48 
962.328 889.685 831.192 913.999 984.035 1044.63 787.173 800.118 798.29 
810.224 933.988 1008.91 1008.91 1069.45 1040.45 994.501 909.51 818.603 
798.956 783.605 846.854 849.174 940.635 897.865 910.437 910.116 946.84 
813.334 855.601 889.925 806.423 824.231 861.873 990.297 1061.75 574.939 
526.169 549.051 588.27 657.689 680.486 641.894 606.453 587.668 583.201 
593.545 569.409 571.282 557.239 518.091 556.437 540.233 540.233 562.988 
510.224 510.224 606.606 606.606 629.466 655.59 655.59 583.01 533.725 
533.725 421.247 434.498 470.92 489.466 489.466 528.369 461.431 1028.2 
994.685 1033.63 947.349 907.488 896.781 896.781 903.252 805.538 835.144 
894.893 894.893 793.142 847.009 713.049 848.773 905.484 974.007 1005.3 
1047.15 873.417 691.46 691.46 810.501 825.89 825.89 800.763 814.518 
814.518 895.35 801.925 902.384 1031.67 1144.74 1161.15 1030.42 1091.08 
1011.92 950.382 1128.23 1086.6 954.13 
FIELD FieldData 7
DY_minmax 1 869 double
0.075262 0.477041 0.435807 0.596913 0.217028 0.474299 0.44953 0.396358 0.930146 
0.443849 0.429819 0.522736 0.172733 0.514427 0 0.277352 0.371012 0.438348 
0.396058 0.247159 0.338297 0.215268 0.594805 0.612342 0.524954 0.386194 1 
0.65987 0.434565 0.342795 0.402499 0.347873 0.398723 0.223379 0.369348 0.112908 
0.45624 0.420203 0.419784 0.20769 0.301303 0.390344 0.0769659 0.0572329 0.426211 
0.29919 0.349141 0.212026 0.471514 0.333049 0.478079 0.295583 0.470426 0.444447 
0.216415 0.297347 0.276005 0.270767 0.24888 0.428661 0.176295 0.296893 0.234118 
0.503083 0.420408 0.338235 0.45323 0.457461 0.488386 0.607603 0.607603 0.356209 
0.240752 0.161536 0.105178 0.0551772 0.110468 0.145093 0.257472 0.252771 0.171771 
0.309657 0.345898 0.254957 0.406467 0.372368 0.465625 0.501832 0.391249 0.350658 
0.285994 0.229895 0.215344 0.20747 0.272179 0.219458 0.258146 0.319449 0.273833 
0.273833 0.340677 0.375441 0.44016 0.424337 0.396946 0.320549 0.209118 0.129251 
0.168065 0.454326 0.532177 0.474724 0.528765 0.532563 0.613145 0.613145 0.63556 
0.570464 0.490624 0.514059 0.514059 0.582276 0.685583 0.685583 0.781232 0.785067 
0.785067 0.697145 0.597767 0.527168 0.418532 0.389889 0.419994 0.395031 0.367459 
0.323209 0.364779 0.213029 0.381367 0.441861 0.374132 0.360307 0.331036 0.394398 
0.394398 0.365028 0.303796 0.290681 0.312038 0.27023 0.346883 0.368713 0.382921 
0.442635 0.462799 0.274493 0.308674 0.279682 0.246771 0.277226 0.207401 0.268977 
0.332296 0.366088 0.48019 0.552411 0.540772 0.432089 0.517077 0.292405 0.318027 
0.325774 0.353239 0.342523 0.342523 0.40751 0.346485 0.346485 0.288545 0.291378 
0.291378 0.310308 0.31079 0.278256 0.3263 0.310261 0.326582 0.337619 0.355234 
0.369383 0.369383 0.38975 0.386999 0.363514 0.335634 0.265702 0.238291 0.321906 
0.299235 0.259844 0.227451 0.271886 0.259384 0.389775 0.419948 0.343428 0.320957 
0.372394 0.337743 0.374718 0.407455 0.413265 0.412158 0.381987 0.384226 0.400628 
0.382856 0.392384 0.360916 0.468212 0.468212 0.616764 0.611003 0.541093 0.427629 
0.404568 0.381917 0.385935 0.36995 0.333358 0.378919 0.317333 0.288354 0.218478 
0.218478 0.239274 0.330324 0.266178 0.324354 0.26028 0.223046 0.183255 0.183255 
0.192512 0.22877 0.260539 0.218326 0.20661 0.259599 0.183766 0.258969 0.283333 
0.345852 0.410581 0.407528 0.417927 0.449366 0.392752 0.441028 0.497723 0.468003 
0.367516 0.376304 0.330072 0.2996 0.233559 0.288637 0.121724 0.1218 0.171617 
0.227271 0.331414 0.406297 0.247141 0.154711 0.111552 0.0823834 0.0936939 0.132968 
0.209715 0.378697 0.378697 0.401759 0.39834 0.39834 0.340793 0.340793 0.425924 
0.438706 0.38942 0.374981 0.304714 0.357226 0.416955 0.426132 0.444447 0.483934 
0.454069 0.370488 0.283796 0.263787 0.333383 0.44922 0.511398 0.339244 0.283072 
0.167933 0.141732 0.152179 0.336783 0.31369 0.253305 0.314126 0.241813 0.28335 
0.303262 0.328627 0.381864 0.28043 0.259817 0.189756 0.112038 0.0695899 0.119673 
0.0899392 0.187432 0.0817573 0.148493 0.136574 0.315881 0.416333 0.406247 0.449601 
0.52739 0.503778 0.589042 0.666612 0.591442 0.549992 0.619398 0.419332 0.472967 
0.456169 0.320332 0.382571 0.366756 0.319144 0.384516 0.297022 0.266757 0.222791 
0.295692 0.319627 0.356976 0.324078 0.306972 0.293004 0.296688 0.274056 0.316124 
0.347865 0.3204 0.387985 0.45688 0.473881 0.379329 0.442397 0.443912 0.494612 
0.560474 0.595105 0.53579 0.53579 0.484031 0.484031 0.386248 0.497469 0.497469 
0.444435 0.501203 0.447861 0.525488 0.574521 0.665297 0.545371 0.571767 0.51098 
0.44829 0.50043 0.523513 0.628007 0.596972 0.613742 0.376188 0.153177 0.171617 
0.251417 0.192693 0.16763 0.221117 0.137362 0.101604 0.101604 0.0474597 0.116449 
0.186897 0.309921 0.513641 0.491116 0.465583 0.299968 0.257684 0.3498 0.350367 
0.418491 0.105312 0.197643 0.318306 0.271998 0.202833 0.230697 0.25887 0.248516 
0.301428 0.29643 0.356571 0.362339 0.348962 0.425667 0.391297 0.434102 0.433451 
0.530532 0.385742 0.427587 0.38754 0.402843 0.419068 0.203243 0.37493 0.372195 
0.373301 0.38783 0.444745 0.372824 0.421387 0.409006 0.367428 0.313586 0.384011 
0.360504 0.246049 0.176442 0.474623 0.434576 0.436284 0.488252 0.481761 0.576832 
0.621246 0.458532 0.359193 0.404217 0.432602 0.492642 0.469789 0.388004 0.388004 
0.353087 0.300552 0.245453 0.292349 0.329586 0.259904 0.225822 0.20529 0.239192 
0.252088 0.27147 0.267323 0.279693 0.321507 0.229785 0.240866 0.120252 0.428589 
0.471504 0.492847 0.487393 0.551869 0.459256 0.27095 0.260713 0.189542 0.137752 
0.187322 0.250264 0.303159 0.390373 0.422136 0.418115 0.4989 0.415127 0.380901 
0.380901 0.333005 0.378016 0.309759 0.337726 0.423916 0.322487 0.211122 0.211122 
0.15983 0.159606 0.206249 0.219737 0.240684 0.374004 0.368424 0.43668 0.469862 
0.385682 0.486401 0.428451 0.351093 0.415846 0.306448 0.309186 0.253937 0.274916 
0.208603 0.375222 0.417371 0.398432 0.399205 0.395935 0.272612 0.687745 0.266613 
0.277656 0.270358 0.299963 0.373878 0.386912 0.325011 0.363878 0.324596 0.30087 
0.289864 0.291521 0.291727 0.284731 0.286243 0.267288 0.370233 0.367558 0.391738 
0.386884 0.455956 0.492476 0.513304 0.563206 0.49985 0.480989 0.468328 0.384474 
0.304875 0.355975 0.468235 0.440948 0.468267 0.368868 0.57402 0.536489 0.507459 
0.475076 0.423957 0.432554 0.633593 0.485289 0.471322 0.477345 0.59167 0.520557 
0.435063 0.31614 0.672555 0.664106 0.609303 0.58849 0.395882 0.314331 0.269224 
0.271768 0.367575 0.323266 0.36745 0.393089 0.428987 0.428987 0.309425 0.306338 
0.306338 0.26469 0.325021 0.309274 0.394896 0.293505 0.538783 0.423738 0.339115 
0.306532 0.229259 0.259731 0.2486 0.335739 0.256722 0.331082 0.344024 0.286417 
0.324983 0.296351 0.270729 0.308884 0.249767 0.308975 0.265692 0.277883 0.219044 
0.575174 0.433241 0.308355 0.352373 0.287459 0.265391 0.31986 0.460806 0.425296 
0.327419 0.427293 0.513673 0.457084 0.393831 0.45515 0.458624 0.217542 0.206392 
0.175445 0.172134 0.264623 0.192429 0.229133 0.200788 0.207228 0.388346 0.399192 
0.44458 0.370728 0.373058 0.342011 0.357122 0.350402 0.283584 0.313496 0.341959 
0.308049 0.308049 0.267942 0.286514 0.361399 0.397775 0.461221 0.516446 0.533425 
0.541007 0.486438 0.486438 0.322996 0.279589 0.307274 0.376308 0.375446 0.332459 
0.26218 0.211627 0.245559 0.293551 0.293551 0.340763 0.340763 0.293045 0.231097 
0.272607 0.270147 0.335626 0.365146 0.361188 0.433715 0.397417 0.368762 0.389858 
0.364992 0.344778 0.394354 0.394354 0.391233 0.371898 0.3595 0.389547 0.435426 
0.450592 0.46906 0.510914 0.488908 0.495429 0.415251 0.407546 0.413077 0.428184 
0.443058 0.448869 0.370577 0.421356 0.396191 0.378125 0.415687 0.422565 0.466035 
0.469768 0.445462 0.160073 0.347529 0.560188 0.549803 0.557417 0.46469 0.46469 
0.395025 0.424627 0.534797 0.709849 0.604946 0.672372 0.669406 0.550172 0.508019 
0.533857 0.45349 0.475396 0.475452 0.407173 0.575426 0.648834 0.624137 0.624137 
0.513016 0.44953 0.39841 0.470779 0.531986 0.584946 0.359941 0.371254 0.369657 
0.380086 0.488248 0.553726 0.553726 0.606631 0.581285 0.541133 0.466856 0.387408 
0.370238 0.356822 0.412099 0.414126 0.494057 0.456679 0.467667 0.467386 0.49948 
0.382804 0.419743 0.44974 0.376765 0.392328 0.425224 0.537459 0.599908 0.174462 
0.131839 0.151836 0.186112 0.24678 0.266703 0.232975 0.202003 0.185585 0.181681 
0.190722 0.169628 0.171265 0.158993 0.124779 0.158291 0.14413 0.14413 0.164017 
0.117904 0.117904 0.202136 0.202136 0.222114 0.244945 0.244945 0.181515 0.138442 
0.138442 0.0401439 0.0517241 0.0835547 0.0997627 0.0997627 0.133762 0.075262 0.570581 
0.541294 0.575328 0.499925 0.465089 0.455732 0.455732 0.461387 0.375991 0.401864 
0.454082 0.454082 0.365157 0.412234 0.295161 0.413776 0.463338 0.523223 0.550571 
0.587146 0.435313 0.276294 0.276294 0.380328 0.393777 0.393777 0.371818 0.383839 
0.383839 0.454481 0.372833 0.460629 0.573621 0.672429 0.686776 0.572521 0.62554 
0.556354 0.502576 0.658004 0.621624 0.505852 
WidthEq 1 869 double
1.41992 2.08649 1.88019 1.82547 2.52478 1.27286 2.02507 1.97615 1 
2.188 1.93971 2.20194 1.2477 2.08368 1.99004 1.51914 1.53541 1.30685 
2.36487 4.3856 1.9899 2.75574 1.66098 3.09035 3.73463 3.53182 1.32533 
3.11456 2.98396 3.48516 4.10683 2.04565 4.38957 2.46588 3.38816 2.43322 
3.27106 2.17812 3.62569 1.41677 3.68531 2.73819 2.81384 2.99672 3.44461 
3.39235 3.09489 4.23658 2.18521 2.55892 1.49624 2.68691 1.59424 2.15718 
1.67835 2.52414 2.8911 2.51404 2.64081 2.13759 2.45528 2.45818 2.50302 
2.07768 2.19797 2.35364 2.04004 1.79932 1.52305 1.40921 1.40921 2.06641 
2.59471 2.67083 2.88741 2.99131 2.99247 2.63511 2.38127 2.32341 2.40488 
2.38754 2.54625 3.16479 2.94117 2.21988 1.98969 1.90475 2.01132 2.09473 
2.25479 2.25856 2.22904 2.1857 2.18771 2.12048 2.09323 2.04222 2.17508 
2.17508 2.19126 2.21298 2.07859 2.09921 2.02603 2.16457 2.24336 2.34126 
2.48359 2.12539 1.8734 1.9045 1.88904 1.94169 1.69584 1.69584 1.73025 
1.8068 1.83466 1.92844 1.92844 1.96675 1.97054 1.97054 1.75947 1.7579 
1.7579 1.75946 1.95101 2.04233 2.23172 2.2852 2.3434 2.39169 2.28575 
2.30143 2.2454 2.51742 2.20781 1.97326 2.0107 2.06291 2.28095 2.2327 
2.2327 2.32363 2.44235 2.52866 2.39073 2.49571 2.44304 2.51134 2.51488 
2.47002 1.95853 2.53484 2.41735 2.59866 2.82429 2.91448 2.41042 2.08057 
1.95126 1.97171 1.87443 1.73932 1.95836 2.1177 1.99952 2.35712 2.33817 
2.24528 2.15824 2.09823 2.09823 1.987 2.17149 2.17149 2.37915 2.45697 
2.45697 2.6293 2.56783 2.58057 2.53227 2.52679 2.27954 2.10074 2.09089 
2.20859 2.20859 2.30706 2.28314 2.19481 2.12878 2.19673 2.26213 2.20069 
2.48609 2.51883 2.73852 2.79838 2.81308 2.02104 1.99456 2.04592 2.185 
2.47098 2.60609 2.60698 2.422 2.32508 2.3744 2.61881 2.66904 2.87037 
3.03609 3.16418 2.14836 1.86947 1.86947 1.55406 1.59798 1.61659 1.69953 
1.77585 1.73126 1.84861 1.81734 1.91766 1.92144 1.98573 2.01649 2.37471 
2.37471 2.42876 2.18965 2.27545 2.38797 2.48653 2.59474 2.69996 2.69996 
2.66517 2.48164 2.28054 2.16239 2.10442 2.13396 2.13119 2.27579 2.43877 
2.55518 2.37861 2.55104 2.39336 2.44941 2.24969 2.04911 1.95812 1.77091 
2.07267 2.14863 2.25467 2.26612 2.29402 2.20676 2.28706 2.231 2.21137 
2.41149 2.28963 2.56031 1.86797 2.20977 2.23763 2.24208 2.17125 2.17398 
2.12048 1.8489 1.8489 1.83102 1.84728 1.84728 2.09257 2.09257 2.03189 
2.08185 2.27599 2.40762 2.93467 2.23377 2.02688 1.97661 2.15718 2.20174 
2.45301 2.65747 3.08108 3.16504 3.02346 2.67695 2.33751 2.71171 2.80561 
3.37447 3.85833 4.30388 2.62889 2.41824 2.46685 2.48721 2.83902 2.78764 
2.79203 2.71849 2.32957 2.23451 2.20382 2.31253 2.80155 2.89896 2.88819 
2.95412 2.85997 3.0132 2.85366 2.79713 2.51371 2.11705 1.80601 1.67667 
1.61929 1.63613 1.58483 1.57505 1.81837 1.92776 1.83329 2.10883 2.0193 
2.09622 2.54506 2.43593 2.51118 2.50851 2.38763 2.37275 2.28239 2.40503 
2.15267 2.1825 2.10775 2.14488 2.24286 2.29163 2.32512 2.47122 2.39178 
2.09803 2.57112 2.59442 2.31574 2.23156 2.03325 2.06498 1.92218 1.86171 
1.82565 1.72752 1.85495 1.85495 1.87861 1.87861 1.98151 1.8817 1.8817 
1.92067 1.91281 1.94915 1.894 1.88525 1.8126 2.00527 2.00651 2.13116 
2.23948 2.25707 2.31116 2.40964 2.64621 3.00133 3.71295 3.0011 2.94272 
3.03367 2.74219 2.13941 1.93522 1.7531 1.74448 1.74448 1.74387 1.84161 
1.77358 1.63202 1.57757 1.80896 1.98578 3.79151 4.12825 3.9338 4.07667 
3.96248 3.30506 3.76329 3.93156 2.83381 2.93694 2.77324 2.49878 2.50554 
2.41062 2.31367 1.95198 2.13994 3.41903 3.07161 3.74274 3.4804 3.76242 
2.8515 3.23505 3.1951 3.37261 3.49596 3.13095 2.84732 3.02373 3.90919 
3.91265 3.99978 3.55148 3.75347 3.41407 3.15366 2.96452 2.69296 2.55933 
2.32711 2.03056 1.68969 3.4251 3.62249 3.59275 2.6791 2.27696 1.73475 
1.45259 1.37295 1.58958 1.59628 1.78016 1.72672 1.77934 1.86763 1.86763 
1.82595 1.616 1.65123 1.69505 1.93036 2.03662 2.18135 2.06887 2.15299 
2.27078 2.39697 2.51811 2.54558 2.29465 2.19938 2.04159 2.68806 2.84214 
2.66727 2.63038 2.23747 2.12196 1.99223 2.19797 2.1811 2.40113 2.88849 
3.18752 3.35655 3.60346 2.61275 2.1539 2.06145 1.98321 1.77668 1.68259 
1.68259 1.56029 1.5217 1.54313 1.40231 1.33095 1.38355 1.50077 1.50077 
1.60838 1.58753 1.54907 1.51024 1.47671 1.34923 1.43654 1.38116 1.4227 
1.83229 1.7138 2.11567 2.47658 2.35422 2.9463 2.93995 3.05459 2.87655 
2.90617 3.67424 2.36459 2.92018 3.15661 3.35584 2.81085 2.04818 2.54882 
2.49828 2.41851 2.36087 2.33965 2.76296 2.54049 2.36391 2.33973 2.41685 
2.57442 2.55879 2.61872 2.53935 2.55236 2.52303 2.77261 3.13638 3.52138 
3.9364 4.25066 4.0027 3.85608 3.93377 4.09184 4.16034 4.00982 4.06762 
4.23761 3.07365 2.73298 2.66441 2.57517 2.87668 3.469 3.70548 2.97867 
2.7857 2.76842 2.51697 2.28331 2.13365 1.95257 1.8682 1.68095 1.81011 
2.0695 2.44043 3.18477 3.26881 3.25672 3.57357 3.58346 3.84306 3.3859 
2.89792 2.66483 2.11706 2.22388 1.91143 1.77721 1.77721 1.92546 1.90993 
1.90993 1.78006 1.70266 1.56531 3.87677 4.14696 3.22821 3.36546 3.49005 
3.57429 3.75331 3.61379 3.45875 3.13597 3.06267 2.74444 2.46886 2.34591 
2.29685 2.08149 2.20876 2.10969 2.08303 2.05449 2.10138 2.21328 2.37244 
2.04445 2.25905 2.39792 2.45914 2.56823 2.8006 2.90844 2.61471 2.5826 