# vtk DataFile Version 3.0
vtk output
ASCII
DATASET POLYDATA
POINTS 587 float
1.28671 -0.704908 1.52935 0.930343 -0.103203 1.8914 1.48285 0.0262849 1.49313 
1.07694 -1.23064 0.525562 0.225142 -1.02004 0.665592 -0.264924 0.275054 1.43978 
4.90185 -0.745556 0.509832 5.33603 -0.192569 0.828621 4.8065 -0.621095 0.585116 
2.09237 0.600243 1.35644 0.133568 -0.557112 0.708461 -0.0434332 0.480235 1.24718 
5.01163 -0.568439 -0.113563 4.72543 -0.662087 0.175165 2.55091 -0.0449577 0.579606 
4.80713 -0.180902 0.380534 4.90941 -0.0686213 0.445004 -0.529727 0.249005 0.732242 
-0.599336 0.376269 0.808711 5.44428 -0.751081 -0.200357 2.40463 -0.879982 -0.220877 
3.04715 0.236032 0.194437 3.02904 0.368908 0.27328 5.7427 0.0923926 -0.172108 
2.87621 0.993722 0.412923 -0.707205 0.159236 -0.246877 3.38115 0.24994 -0.500455 
2.22582 1.53061 0.509724 -0.208175 -0.453895 -0.618286 -0.400447 1.24448 0.388733 
1.27702 1.87328 0.497231 5.70128 0.0569682 -0.889276 5.55442 0.175817 -0.816365 
5.13584 0.758008 -0.608837 3.10698 0.111437 -0.809603 3.20926 0.223718 -0.745133 
1.24337 -0.855432 -1.42422 4.15807 0.530298 -0.813687 -0.51699 0.89746 -0.511167 
5.19317 0.778857 -0.918103 3.22519 0.699912 -1.08361 -0.447862 0.782631 -0.89006 
3.10093 0.923293 -1.18168 2.24416 2.07668 -0.329624 1.01369 -0.258825 -1.9581 
-0.202358 0.890208 -1.37309 0.884724 2.06435 -0.544356 2.58461 0.598588 -1.67386 
-0.0288572 1.2326 -1.50955 1.23645 2.30774 -1.10398 0.337169 1.53844 -1.63385 
2.07336 1.4222 -1.87486 1.76919 1.92846 -1.57016 1.86564 1.29937 -2.17596 
1.88643 2.00959 -1.7567 0.916363 1.93761 -1.78147 0.865857 1.87284 -1.62951 
0.799238 1.81346 -1.5257 0.72723 1.77425 -1.47871 0.668969 1.7495 -1.48366 
0.635714 1.71151 -1.5055 0.586736 1.6804 -1.51438 0.53563 1.64335 -1.50952 
0.47759 1.61706 -1.51253 0.426017 1.59552 -1.53577 0.375888 1.57785 -1.57972 
1.82068 1.95925 -1.66478 1.82172 1.23534 -2.13555 1.76732 1.18206 -2.0972 
1.72606 1.131 -2.08358 1.70132 1.08729 -2.10896 1.69718 1.04448 -2.1686 
1.6917 1.00257 -2.22768 1.6592 0.964068 -2.24983 1.60746 0.92375 -2.23829 
1.57404 0.867427 -2.22793 1.56012 0.801674 -2.23211 1.53585 0.742884 -2.23198 
1.50558 0.680759 -2.21651 1.48326 0.609586 -2.19791 1.48045 0.528989 -2.19386 
1.4773 0.459695 -2.20893 1.45428 0.41113 -2.22859 1.42334 0.367893 -2.24497 
1.39748 0.317553 -2.25703 1.37714 0.259815 -2.26496 1.34075 0.216549 -2.27265 
1.3202 0.162638 -2.28692 1.29298 0.105831 -2.28557 1.25178 0.0404354 -2.24743 
1.19412 -0.0370039 -2.1688 1.12506 -0.139456 -2.06888 0.270502 1.49998 -1.65822 
0.21144 1.45539 -1.65002 0.150334 1.40234 -1.61237 0.0810719 1.32716 -1.56374 
2.13825 1.48319 -1.94327 2.19194 1.52958 -1.96847 2.25072 1.54303 -1.94439 
2.30583 1.54407 -1.89316 2.37326 1.53114 -1.84179 2.4423 1.50986 -1.80401 
2.50354 1.4697 -1.76002 2.57329 1.43093 -1.69815 2.64208 1.38332 -1.62429 
2.69499 1.32606 -1.57303 2.74034 1.26829 -1.53915 2.78425 1.21675 -1.51879 
2.8284 1.15767 -1.48566 2.87407 1.09112 -1.43691 2.92839 1.02148 -1.36431 
3.0051 0.968352 -1.27665 1.19381 2.31784 -1.0542 1.15045 2.31155 -0.979686 
1.10028 2.27831 -0.877931 1.03368 2.21535 -0.767639 0.959798 2.1405 -0.655616 
-0.126137 1.28278 -1.45709 -0.16469 1.33064 -1.39369 -0.168274 1.36615 -1.31719 
-0.155305 1.38767 -1.23492 -0.152436 1.41288 -1.14262 -0.149517 1.43426 -1.044 
-0.137181 1.43969 -0.937763 -0.145051 1.43244 -0.812831 -0.184571 1.39652 -0.687042 
-0.247174 1.3339 -0.568011 -0.303621 1.27429 -0.438705 -0.328783 1.24513 -0.283375 
-0.345311 1.22155 -0.116297 -0.369064 1.19783 0.0336155 -0.383641 1.19588 0.170406 
-0.392491 1.21579 0.285593 -0.0903933 1.10082 -1.48208 -0.142063 0.993451 -1.4327 
-0.182211 0.850359 -1.46871 -0.148014 0.840184 -1.5528 -0.108193 0.839041 -1.62591 
-0.0732277 0.825662 -1.68895 -0.047161 0.785693 -1.73026 -0.0123704 0.739713 -1.74085 
0.0228872 0.678667 -1.72594 0.0499422 0.604714 -1.70989 0.0851318 0.543593 -1.69502 
0.118843 0.492535 -1.69999 0.137802 0.433073 -1.72687 0.155585 0.376216 -1.76079 
0.182685 0.329588 -1.78883 0.206586 0.279448 -1.8189 0.23482 0.234064 -1.84623 
0.258858 0.184074 -1.87621 0.288357 0.140078 -1.90274 0.320849 0.0993697 -1.92739 
0.372125 0.0792797 -1.9402 0.41414 0.0490232 -1.95885 0.442839 0.00415025 -1.98588 
0.486056 -0.0247857 -2.00377 0.544783 -0.0366964 -2.01188 0.595327 -0.0575892 -2.02515 
0.640985 -0.0877424 -2.0352 0.691942 -0.119869 -2.0293 0.752789 -0.152399 -1.99944 
0.808581 -0.196453 -1.972 0.884081 -0.236355 -1.95823 2.62683 0.599718 -1.74281 
2.66958 0.585853 -1.7862 2.71434 0.546929 -1.78421 2.76723 0.489795 -1.73288 
2.83573 0.440812 -1.65122 2.90228 0.406221 -1.56101 2.94889 0.383464 -1.45484 
2.9867 0.351861 -1.31931 3.0239 0.300109 -1.15266 3.06331 0.222835 -0.975314 
-0.288677 0.83661 -1.24543 -0.339349 0.80715 -1.11849 -0.39452 0.780547 -1.00699 
1.08005 -0.409208 -1.90332 1.1209 -0.556907 -1.8006 1.17102 -0.704498 -1.63345 
3.16297 0.814746 -1.13796 -0.546461 0.707163 -0.809501 -0.610918 0.620945 -0.721596 
-0.634444 0.495315 -0.611818 -0.663037 0.33982 -0.450765 2.28731 2.04766 -0.347555 
2.33046 2.01865 -0.365487 2.37361 1.98964 -0.383418 2.41664 1.9644 -0.407728 
2.45944 1.94669 -0.444787 2.50188 1.94028 -0.500974 2.54422 1.93765 -0.563548 
2.58666 1.93124 -0.619735 2.6294 1.91346 -0.656838 2.67123 1.8869 -0.681902 
2.70687 1.85355 -0.710869 2.733 1.81364 -0.75213 2.76834 1.78775 -0.79389 
2.80898 1.75988 -0.819708 2.84472 1.71884 -0.836004 2.87036 1.65502 -0.839764 
2.89924 1.59087 -0.835176 2.92391 1.5182 -0.826932 2.95268 1.45782 -0.828715 
2.97785 1.40907 -0.857981 3.013 1.38687 -0.906162 3.05318 1.37407 -0.957487 
3.08845 1.3481 -0.99929 3.11355 1.29928 -1.02859 3.141 1.24135 -1.03751 
3.15813 1.16055 -1.03394 3.16751 1.07257 -1.0316 3.16575 0.999731 -1.04592 
3.14016 0.957512 -1.09621 3.3195 0.601973 -0.905132 3.37859 0.460308 -0.705962 
-0.457561 0.814454 -0.756342 -0.467357 0.843641 -0.644266 -0.484259 0.87384 -0.563012 
3.20085 0.529025 -0.95467 3.19973 0.370749 -0.841649 5.15445 0.748151 -0.756991 
4.17589 0.469591 -0.841275 4.20329 0.415504 -0.85653 4.22875 0.355382 -0.866708 
4.26449 0.314341 -0.883004 4.30513 0.286472 -0.908822 4.34053 0.260645 -0.950542 
4.36792 0.218227 -0.984714 4.4101 0.180358 -0.990646 4.46214 0.13774 -0.965156 
4.49665 0.0719668 -0.944407 4.53449 0.00985965 -0.921564 4.57859 -0.0453744 -0.894775 
4.63212 -0.113542 -0.825245 4.70893 -0.208303 -0.671824 4.82601 -0.360817 -0.420962 
1.15149 -0.96447 -1.26037 1.08407 -1.0336 -1.12788 1.01442 -1.08079 -1.04836 
0.941615 -1.11284 -1.00287 0.881307 -1.12994 -0.951632 0.847034 -1.11846 -0.883978 
0.809396 -1.10287 -0.831063 0.759918 -1.08081 -0.817122 0.698271 -1.05263 -0.842359 
0.639458 -1.01354 -0.878429 0.576361 -0.983053 -0.910885 0.516936 -0.964115 -0.915823 
0.448648 -0.970494 -0.901127 0.381962 -0.990694 -0.860217 0.331038 -0.997492 -0.803058 
0.287325 -0.992473 -0.747668 0.244458 -0.974839 -0.710652 0.201426 -0.949597 -0.686342 
0.158345 -0.920511 -0.668368 0.116276 -0.886417 -0.656061 0.080104 -0.838061 -0.652639 
0.0519011 -0.769271 -0.663102 0.00913718 -0.712562 -0.689056 -0.0429068 -0.669943 -0.714545 
-0.0768842 -0.619178 -0.70974 -0.112755 -0.57828 -0.693527 -0.14738 -0.539912 -0.670223 
-0.173618 -0.492337 -0.641632 1.34831 -0.869606 -1.39723 1.42866 -0.886044 -1.37399 
1.4896 -0.911613 -1.35292 1.55083 -0.92884 -1.30973 1.60493 -0.932813 -1.25282 
1.66413 -0.938212 -1.19687 1.7178 -0.93608 -1.14496 1.77699 -0.941346 -1.08893 
1.83069 -0.94293 -1.0306 1.88824 -0.943409 -0.980315 1.93221 -0.923687 -0.943656 
1.96954 -0.892123 -0.917081 2.01459 -0.862065 -0.900146 2.07939 -0.848974 -0.884989 
2.14442 -0.843415 -0.857083 2.19018 -0.83596 -0.801892 2.22832 -0.83077 -0.730683 
2.2729 -0.833599 -0.655723 2.32932 -0.848073 -0.579264 2.37257 -0.86107 -0.484475 
2.39906 -0.87387 -0.363451 3.20408 0.166853 -0.778637 3.16998 0.129427 -0.800127 
3.25666 0.2066 -0.644247 3.31908 0.206988 -0.567724 3.07612 0.0201888 -0.742489 
3.05278 -0.0687378 -0.691345 3.0411 -0.158128 -0.657893 3.01729 -0.231984 -0.632255 
2.98541 -0.293033 -0.616119 2.95175 -0.34182 -0.618517 2.91768 -0.382957 -0.633592 
2.88219 -0.423135 -0.648074 2.83901 -0.465518 -0.646514 2.78286 -0.510247 -0.62029 
2.73091 -0.565182 -0.582958 2.67362 -0.623911 -0.530554 2.62054 -0.692841 -0.467051 
2.55437 -0.760348 -0.385263 2.48027 -0.822527 -0.300181 3.49027 0.275908 -0.478501 
3.57808 0.275539 -0.445906 3.65077 0.239288 -0.382612 3.7133 0.165283 -0.281195 
3.78566 0.082625 -0.142055 3.86301 0.00545238 0.000234657 3.93351 -0.0597589 0.106701 
3.98648 -0.116944 0.157986 4.03143 -0.159563 0.166402 4.07596 -0.190955 0.155646 
4.1265 -0.211855 0.142373 4.1865 -0.22237 0.135061 4.23824 -0.24195 0.122545 
4.28998 -0.261529 0.110029 4.34992 -0.268208 0.0963784 4.40131 -0.276485 0.0647346 
4.45247 -0.277225 0.0203334 4.512 -0.27267 -0.0124848 4.56258 -0.297413 -0.0194226 
4.60663 -0.35411 0.00937219 4.64453 -0.438814 0.0647595 4.67685 -0.547083 0.12066 
5.16794 0.786432 -0.504436 5.21778 0.805028 -0.444886 5.28411 0.806297 -0.406621 
5.351 0.8023 -0.36503 5.40631 0.804905 -0.321487 5.46702 0.80004 -0.29965 
5.52375 0.780818 -0.294841 5.57763 0.75595 -0.293305 5.6106 0.704083 -0.298743 
5.64045 0.648785 -0.30615 5.66489 0.583649 -0.310664 5.69274 0.51058 -0.294116 
5.71042 0.414648 -0.265066 5.72207 0.304316 -0.227221 5.73248 0.196505 -0.19645 
5.59561 0.200114 -0.716719 5.63321 0.201053 -0.613592 5.66948 0.17948 -0.489323 
5.70592 0.141622 -0.340259 5.47105 0.120369 -0.761557 5.41145 0.0544496 -0.704751 
5.35348 -0.015627 -0.633239 5.30053 -0.088385 -0.563392 5.2359 -0.160386 -0.47676 
5.16994 -0.245436 -0.37522 5.10583 -0.381164 -0.248803 5.60992 0.124252 -0.847848 
5.65745 0.0872234 -0.870597 1.18343 1.86348 0.493152 1.10594 1.85747 0.491019 
1.04446 1.86246 0.503702 0.976403 1.84977 0.52326 0.910408 1.81378 0.554825 
0.855296 1.76477 0.587124 0.788104 1.72747 0.617935 0.712928 1.7029 0.639218 
0.637839 1.67828 0.660465 0.572169 1.63995 0.690643 0.526419 1.58454 0.71898 
0.482103 1.52816 0.746712 0.425864 1.48349 0.772971 0.373883 1.43226 0.803888 
0.317847 1.38376 0.8365 0.274929 1.33013 0.857223 0.238273 1.27967 0.862499 
0.195122 1.23358 0.870473 0.138969 1.18885 0.896697 0.0869883 1.13762 0.927622 
0.0309217 1.09283 0.95381 -0.0106294 1.04566 0.96112 -0.0362163 0.984068 0.968223 
-0.0464246 0.894878 0.998886 -0.0582666 0.783946 1.06837 -0.0555487 0.642926 1.15709 
1.35865 1.84892 0.481341 1.42231 1.82212 0.472948 1.49142 1.80603 0.496598 
1.55811 1.7803 0.566218 1.60845 1.73446 0.675888 1.6604 1.66154 0.786735 
1.72159 1.60437 0.863705 1.77258 1.56853 0.876017 1.81664 1.55221 0.839755 
1.86047 1.54343 0.790735 1.91073 1.53391 0.758377 1.97175 1.5284 0.745401 
2.02967 1.51562 0.736785 2.09069 1.51011 0.72381 2.14083 1.50436 0.685072 
2.18412 1.51057 0.610511 3.32806 0.203472 -0.294607 3.30345 0.185447 -0.124099 
3.28491 0.189052 -0.00116543 3.25127 0.193551 0.0795567 3.20889 0.200034 0.135786 
3.15876 0.2097 0.168227 3.09889 0.216453 0.181922 -0.648876 0.038279 0.0161783 
-0.591263 -0.0841347 0.218154 -0.528394 -0.171044 0.346348 -0.476661 -0.229467 0.396937 
-0.432261 -0.260996 0.386091 -0.39083 -0.272418 0.335568 -0.355887 -0.283163 0.268336 
-0.330336 -0.304222 0.195193 -0.295283 -0.318747 0.134345 -0.254147 -0.322699 0.071025 
-0.211932 -0.321568 0.00208045 -0.168637 -0.315356 -0.0724889 -0.119027 -0.306107 -0.136772 
-0.0595644 -0.301626 -0.169633 -0.00855934 -0.337596 -0.1574 0.037272 -0.41805 -0.085312 
0.08034 -0.53018 0.0369618 0.109845 -0.658905 0.184087 0.119385 -0.792391 0.337373 
0.157537 -0.915522 0.496253 -0.692699 0.170125 -0.00837656 -0.671617 0.160113 0.166029 
-0.650489 0.157749 0.28471 -0.614388 0.160787 0.363292 -0.602216 0.187207 0.438911 
-0.596156 0.219151 0.517907 -0.569578 0.234881 0.612758 2.84363 0.907313 0.474331 
2.81108 0.817199 0.542147 2.77702 0.728103 0.610591 2.73354 0.652716 0.670104 
2.67154 0.597158 0.724467 2.61714 0.543868 0.762816 2.59423 0.473101 0.781654 
2.56867 0.407801 0.795163 2.53843 0.34196 0.817045 2.51619 0.270734 0.835611 
2.515 0.189056 0.838997 2.52272 0.114862 0.815091 2.53162 0.053932 0.764592 
2.54072 0.00452757 0.683599 5.69927 -0.0382413 -0.016168 5.6372 -0.150538 0.142341 
5.57289 -0.237186 0.290233 5.52323 -0.28171 0.411122 5.48125 -0.290373 0.492815 
5.44715 -0.267008 0.541665 5.42954 -0.217758 0.588303 5.41716 -0.170556 0.65084 
5.39191 -0.156955 0.736775 3.03809 0.30247 0.233858 2.97107 0.189942 0.254641 
2.89511 0.140078 0.321232 2.81923 0.0852076 0.396318 2.74182 0.0343466 0.465205 
2.65563 -0.0100185 0.526625 4.82179 -0.628295 0.0187581 2.39595 -0.867678 -0.092984 
2.38102 -0.858333 0.0246783 2.3567 -0.859304 0.136418 2.342 -0.857492 0.266829 
2.33355 -0.852726 0.407479 2.32498 -0.844191 0.541752 2.30983 -0.827308 0.646656 
2.2848 -0.80567 0.720131 2.26879 -0.758704 0.773987 2.26014 -0.694655 0.811989 
2.26162 -0.624354 0.827688 2.28406 -0.55696 0.815473 2.31574 -0.492079 0.792985 
2.34893 -0.428221 0.769876 2.38232 -0.368191 0.753111 2.4156 -0.301852 0.725728 
2.44994 -0.227435 0.685883 2.49199 -0.140945 0.632957 5.1623 -0.617747 -0.131468 
5.25751 -0.64088 -0.137203 5.31328 -0.6649 -0.148118 5.35792 -0.693133 -0.164537 
5.40113 -0.722069 -0.182425 -0.561013 0.327241 0.779041 -0.443507 0.183005 0.837955 
-0.39207 0.0943478 0.922297 -0.370434 -0.013767 0.978496 -0.357214 -0.126331 1.0236 
-0.33827 -0.220874 1.05345 -0.303026 -0.285832 1.07465 -0.261988 -0.328847 1.0743 
-0.22618 -0.369813 1.05805 -0.19988 -0.417319 1.0295 -0.165323 -0.455762 1.00615 
-0.130765 -0.494205 0.982801 -0.104582 -0.537942 0.947871 -0.0691727 -0.563763 0.906155 
-0.0278522 -0.571409 0.849257 0.015676 -0.572728 0.787436 0.0667161 -0.569704 0.736665 
4.87532 -0.106048 0.423514 4.84122 -0.143475 0.402024 4.78245 -0.720508 0.360457 
4.83566 -0.746199 0.473375 5.00209 -0.599169 0.149193 4.96471 -0.662581 0.354418 
-0.135029 0.418506 1.2927 -0.198814 0.346632 1.35466 0.0552312 0.424113 1.32695 
0.127022 0.37086 1.38882 0.199135 0.343339 1.43434 0.27413 0.338885 1.45902 
0.34207 0.349744 1.4728 0.398068 0.372444 1.48519 0.46596 0.387147 1.49263 
0.541603 0.396639 1.49686 0.617159 0.406189 1.50112 0.683529 0.421915 1.50919 
0.730183 0.450897 1.52546 0.776838 0.479879 1.54173 0.843121 0.495663 1.54985 
0.91725 0.506173 1.5547 0.984969 0.520993 1.56222 1.03945 0.54471 1.57523 
1.09799 0.565701 1.58656 1.15241 0.589344 1.59954 1.21902 0.602792 1.60626 
1.28736 0.604114 1.60579 1.34773 0.594161 1.59881 1.41751 0.59439 1.59767 
1.4923 0.600104 1.59967 1.56088 0.599014 1.59777 1.61377 0.584591 1.57968 
1.66529 0.576457 1.54811 1.72579 0.589865 1.50331 1.7829 0.603455 1.45005 
1.8434 0.616863 1.40524 1.89492 0.608729 1.37367 1.94781 0.594306 1.35558 
2.01646 0.593291 1.35372 4.84832 -0.65157 0.566345 4.88288 -0.690012 0.542998 
0.243868 -1.02521 0.550325 0.284832 -1.02156 0.474295 0.344226 -1.01716 0.441391 
0.402043 -1.02617 0.426399 0.464372 -1.03413 0.420557 0.522367 -1.04684 0.411984 
0.583567 -1.05604 0.40543 0.635555 -1.07924 0.399375 0.68891 -1.10873 0.406784 
0.758194 -1.13243 0.44314 0.833793 -1.15309 0.489791 0.904211 -1.17554 0.526861 
0.963759 -1.19824 0.538174 1.02514 -1.21113 0.538038 0.260373 -1.01658 0.744438 
0.297032 -1.01408 0.822682 0.341528 -1.01685 0.897678 0.397918 -1.02762 0.967731 
0.442298 -1.02662 1.03635 0.478606 -1.01281 1.09546 0.513254 -0.990517 1.14243 
0.547901 -0.968219 1.18939 0.584093 -0.95065 1.24213 0.628092 -0.934639 1.28521 
0.685141 -0.916331 1.30358 0.739313 -0.885027 1.30388 0.806799 -0.862671 1.29863 
0.880811 -0.848397 1.29712 0.947016 -0.832559 1.30526 0.992148 -0.802554 1.32217 
1.02924 -0.763452 1.33598 1.07266 -0.728602 1.34717 1.12807 -0.705512 1.3598 
1.17359 -0.690525 1.40224 1.22089 -0.6878 1.46322 1.43152 0.0307256 1.53111 
1.37092 0.0209548 1.56948 1.31371 0.0162592 1.60217 1.25334 0.00981699 1.59947 
1.19945 0.00112614 1.5695 1.14005 0.00353 1.5548 1.09016 0.00687764 1.59211 
1.04574 -0.00462008 1.67218 0.995677 -0.04163 1.7803 
LINES 50 684
3 54 66 52 
27 53 67 68 69 70 71 72 73 74 75 76 77 78 79 80 81 82 83 84 85 86 87 88 89 90 91 44 
18 51 96 97 98 99 100 101 102 103 104 105 106 107 108 109 110 111 42 
7 49 112 113 114 115 116 46 
18 48 117 118 119 120 121 122 123 124 125 126 127 128 129 130 131 132 29 
4 48 133 134 45 
31 45 135 136 137 138 139 140 141 142 143 144 145 146 147 148 149 150 151 152 153 154 155 156 157 158 159 160 161 162 163 44 
12 47 164 165 166 167 168 169 170 171 172 173 34 
5 45 174 175 176 41 
5 44 177 178 179 36 
3 42 180 40 
6 41 181 182 183 184 25 
31 43 185 186 187 188 189 190 191 192 193 194 195 196 197 198 199 200 201 202 203 204 205 206 207 208 209 210 211 212 213 42 
4 40 214 215 26 
5 41 216 217 218 38 
4 40 219 220 35 
17 37 222 223 224 225 226 227 228 229 230 231 232 233 234 235 236 12 
30 36 237 238 239 240 241 242 243 244 245 246 247 248 249 250 251 252 253 254 255 256 257 258 259 260 261 262 263 264 28 
23 36 265 266 267 268 269 270 271 272 273 274 275 276 277 278 279 280 281 282 283 284 285 20 
4 35 286 287 34 
4 35 288 289 26 
17 34 290 291 292 293 294 295 296 297 298 299 300 301 302 303 304 20 
24 26 305 306 307 308 309 310 311 312 313 314 315 316 317 318 319 320 321 322 323 324 325 326 13 
6 32 342 343 344 345 23 
9 32 346 347 348 349 350 351 352 12 
4 32 353 354 31 
9 26 397 398 399 400 401 402 403 21 
22 25 404 405 406 407 408 409 410 411 412 413 414 415 416 417 418 419 420 421 422 423 4 
9 25 424 425 426 427 428 429 430 17 
16 24 431 432 433 434 435 436 437 438 439 440 441 442 443 444 14 
11 23 445 446 447 448 449 450 451 452 453 7 
3 22 454 21 
7 21 455 456 457 458 459 14 
3 12 460 13 
20 20 461 462 463 464 465 466 467 468 469 470 471 472 473 474 475 476 477 478 14 
7 12 479 480 481 482 483 19 
3 18 484 17 
18 17 485 486 487 488 489 490 491 492 493 494 495 496 497 498 499 500 10 
4 16 501 502 15 
4 13 503 504 6 
4 12 505 506 6 
4 11 507 508 5 
34 11 509 510 511 512 513 514 515 516 517 518 519 520 521 522 523 524 525 526 527 528 529 530 531 532 533 534 535 536 537 538 539 540 9 
4 8 541 542 6 
16 4 543 544 545 546 547 548 549 550 551 552 553 554 555 556 3 
23 4 557 558 559 560 561 562 563 564 565 566 567 568 569 570 571 572 573 574 575 576 577 0 
11 2 578 579 580 581 582 583 584 585 586 1 
17 55 56 57 58 59 60 61 62 63 64 65 50 92 93 94 95 48 
19 39 221 33 327 328 329 330 331 332 333 334 335 336 337 338 339 340 341 23 
45 11 380 379 378 377 376 375 374 373 372 371 370 369 368 367 366 365 364 363 362 361 360 359 358 357 356 355 30 381 382 383 384 385 386 387 388 389 390 391 392 393 394 395 396 27 

POINT_DATA 587
SCALARS DY_raw double
LOOKUP_TABLE default
35.8857 33.9493 43.281 34.0901 35.1294 49.1942 61.922 64.7362 61.6151 
50.5063 39.5846 31.4167 50.2722 55.5742 32.1506 42.7515 35.0607 31.6269 
26.0115 56.319 33.0529 33.9061 24.3009 37.6322 43.3756 23.9832 44.7146 
29.1901 15.2972 26.895 24.7142 47.3046 36.9773 50.7166 37.1726 35.7036 
42.9876 9.5595 27.315 41.6301 35.7814 24.0357 39.1704 21.1408 37.2951 
28.3324 32.5539 39.1736 19.2584 17.5122 19.5314 49.6544 18.0065 33.1551 
24.7712 20.1895 26.7403 33.8828 30.9704 34.9376 34.9376 40.3833 41.6313 
41.5299 29.5931 20.1859 27.8973 31.7329 28.3307 34.1915 34.1915 30.4794 
28.3388 28.3388 20.8091 15.9818 17.9645 24.1514 29.2252 33.6957 37.0715 
37.0715 35.9517 32.7935 33.7205 29.7352 28.5556 31.6547 35.4177 35.57 
34.3589 30.1009 18.8452 18.7969 20.8583 24.1331 49.2286 51.7146 38.3957 
40.247 34.4325 33.6026 28.8431 33.9066 33.9164 35.4683 39.7184 36.6306 
35.673 41.2975 44.6549 42.3526 23.0147 24.591 24.7714 30.5084 39.0662 
15.8903 16.5407 18.1153 17.3945 22.1373 23.6901 26.228 25.9047 25.3234 
26.4534 28.7579 16.5865 18.4587 23.9287 20.1686 23.7618 22.0753 25.4733 
25.8409 18.2622 12.7331 16.434 16.434 18.7626 21.351 23.9824 19.3251 
19.3251 21.3516 20.4928 24.4269 28.2854 25.464 25.464 23.9103 23.1493 
23.1493 32.1934 32.6394 32.6394 35.0195 35.0195 30.0637 29.5274 31.9306 
32.317 30.5142 37.8104 29.2048 29.2048 31.7859 31.6295 37.9861 41.2597 
39.601 41.4261 37.4073 28.7355 31.2275 27.4284 39.2059 37.1552 33.9038 
43.738 24.9202 29.437 31.9072 27.2921 28.9726 28.9726 34.5444 34.6309 
31.5309 37.4934 34.5772 35.3876 39.1736 39.1736 40.821 38.3149 33.2268 
33.5343 32.6643 36.6091 35.1745 35.1745 32.2754 32.1011 30.4492 33.9378 
35.7437 35.7437 39.8858 41.3502 39.6459 38.1966 36.9691 37.8974 42.3448 
24.2987 27.1938 30.3276 36.891 34.0155 45.4061 11.1783 19.797 33.8989 
33.8989 42.1206 45.8301 41.2568 46.6657 44.39 49.9825 50.105 56.219 
59.0761 60.8855 45.5394 49.1997 42.4048 42.1413 40.282 43.5074 42.4851 
36.6816 36.6816 34.5581 33.5831 33.5831 38.5986 41.9879 43.5648 37.8353 
42.713 48.9993 49.2006 44.6802 40.3412 33.3519 31.3791 28.1541 27.2667 
25.0133 24.2846 20.482 20.482 36.3879 34.3706 33.7235 36.0755 39.9861 
41.1184 55.1192 50.9308 60.3079 53.8183 39.4309 45.7105 38.6631 40.1381 
45.3697 35.6346 36.7698 44.2714 36.5463 43.2268 39.0215 35.9705 35.9705 
41.3011 43.1272 40.1408 39.0614 37.9262 39.9759 41.9716 36.1012 36.1012 
35.5113 42.238 42.238 37.63 39.9847 36.4132 36.95 33.9423 50.8769 
49.448 52.2269 66.5459 68.117 76.4227 55.2732 55.3628 48.7473 56.3838 
56.3838 60.5837 54.8034 54.8034 54.13 54.2038 48.1156 55.2458 58.6716 
58.8236 60.917 54.4865 49.6816 51.0539 49.8854 49.5356 48.6719 43.8993 
34.506 38.6434 40.3918 40.2887 44.2071 43.0676 27.1218 27.2432 29.6762 
41.994 49.4305 57.5732 40.5259 40.3384 46.3132 47.1052 43.608 52.3888 
55.512 51.3007 33.7314 33.327 25.292 29.1381 33.8377 34.771 40.6897 
46.9965 39.2425 41.4571 28.7587 22.7814 26.7947 26.8869 30.8989 32.1708 
34.0681 35.5716 25.6389 28.9466 29.7184 25.0833 25.0833 26.7501 25.5806 
23.2651 29.5241 43.8602 25.7581 26.1901 22.1728 28.6535 24.8163 22.591 
31.8568 31.8568 30.9935 28.9735 29.4751 30.5079 30.3101 30.6227 30.7833 
25.4311 48.939 50.0734 54.7723 50.914 57.4098 50.0257 34.2634 34.275 
35.1374 31.4106 33.4078 36.421 33.9426 35.976 36.0812 37.5252 35.7522 
34.8464 24.7925 21.4959 24.851 27.4415 32.4579 39.5183 50.9383 45.8329 
42.4339 23.5942 27.6741 30.283 33.4376 33.3132 31.2676 28.8175 38.8327 
34.6617 32.8782 34.8749 39.1846 35.2486 35.8939 41.5761 42.4349 39.1746 
46.8712 36.3716 36.3956 33.8057 47.57 47.7393 52.2986 59.2843 55.2558 
52.8758 53.9335 56.9235 55.2424 33.1681 33.1843 28.9517 32.1243 30.2184 
33.3233 52.3489 41.065 40.8692 35.2144 36.8049 40.0777 39.4932 39.3233 
38.5886 37.5473 38.5905 37.1122 32.419 27.1298 25.1763 25.6104 31.236 
33.0981 33.5726 65.1225 61.9125 62.9409 68.1019 59.8605 31.736 33.5891 
36.9443 36.4521 33.9323 37.7785 37.7268 47.7665 46.029 46.029 46.9448 
40.3549 35.3099 35.3099 37.9249 40.3232 37.0584 35.0607 38.547 54.6084 
65.9557 56.4741 62.0979 36.3129 44.9887 27.7162 35.1181 30.3944 23.8469 
32.0444 35.3778 43.5249 43.5249 46.0463 44.3473 54.774 42.0873 51.0065 
43.3425 35.7775 35.8034 29.8541 33.0401 37.414 40.7033 38.4112 34.8709 
32.6292 28.2094 24.0812 31.3251 28.1743 27.5701 34.0388 31.5198 46.2852 
50.5063 59.9703 60.7928 36.2691 36.3021 37.7447 37.2661 39.2922 35.6786 
35.6786 31.9975 32.8687 27.3663 31.5193 28.7282 30.2484 36.4857 33.5799 
37.7759 34.0321 36.9384 43.8258 42.0079 45.295 40.2777 33.6101 36.3055 
29.4364 35.3892 38.0834 32.0922 29.428 29.428 30.541 30.541 32.4718 
35.5814 37.9719 38.7396 38.7396 34.3392 33.6248 32.8388 28.49 25.3514 
31.1912 33.5207 
FIELD FieldData 7
DY_minmax 1 587 double
0.393732 0.364771 0.504336 0.366878 0.382421 0.592772 0.783129 0.825217 0.778538 
0.612396 0.449052 0.326895 0.608896 0.688192 0.337871 0.496416 0.381393 0.330038 
0.246055 0.699331 0.351365 0.364126 0.22047 0.419852 0.505751 0.215719 0.525777 
0.293593 0.0858124 0.259269 0.226652 0.564512 0.410058 0.615542 0.412979 0.391008 
0.499948 0 0.26555 0.479646 0.392173 0.216505 0.442857 0.173208 0.414811 
0.280766 0.343902 0.442906 0.145055 0.11894 0.149139 0.599655 0.126332 0.352894 
0.227504 0.158982 0.256954 0.363777 0.320219 0.379553 0.379553 0.460999 0.479662 
0.478147 0.29962 0.158928 0.274259 0.331623 0.280741 0.368394 0.368394 0.312877 
0.280862 0.280862 0.168249 0.0960515 0.125705 0.218236 0.294118 0.360979 0.411467 
0.411467 0.39472 0.347486 0.361349 0.301745 0.284104 0.330453 0.386733 0.38901 
0.370898 0.307215 0.138876 0.138154 0.168984 0.217961 0.593288 0.630468 0.431271 
0.458959 0.371999 0.359587 0.288404 0.364133 0.36428 0.387489 0.451053 0.404873 
0.390552 0.474671 0.524883 0.49045 0.201234 0.224809 0.227507 0.31331 0.4413 
0.0946825 0.104411 0.12796 0.11718 0.188112 0.211336 0.249292 0.244458 0.235763 
0.252664 0.287129 0.105095 0.133096 0.214904 0.158668 0.212409 0.187186 0.238006 
0.243503 0.130157 0.0474647 0.102814 0.102814 0.137641 0.176352 0.215708 0.146053 
0.146053 0.176362 0.163517 0.222355 0.280063 0.237866 0.237866 0.214629 0.203248 
0.203248 0.33851 0.345181 0.345181 0.380778 0.380778 0.306659 0.298638 0.33458 
0.340359 0.313396 0.422518 0.293813 0.293813 0.332416 0.330076 0.425145 0.474106 
0.449298 0.476594 0.416489 0.286795 0.324065 0.267245 0.443389 0.412718 0.364092 
0.511171 0.229733 0.297287 0.33423 0.265207 0.290341 0.290341 0.373672 0.374965 
0.328602 0.417776 0.374163 0.386282 0.442906 0.442906 0.467545 0.430063 0.353966 
0.358565 0.345553 0.404551 0.383096 0.383096 0.339738 0.33713 0.312425 0.3646 
0.391608 0.391608 0.453558 0.475459 0.44997 0.428295 0.409936 0.423819 0.490334 
0.220438 0.263738 0.310606 0.408767 0.365762 0.536118 0.0242103 0.153111 0.364018 
0.364018 0.48698 0.542459 0.474061 0.554957 0.520921 0.604562 0.606395 0.697836 
0.740566 0.767627 0.538112 0.592855 0.491231 0.48729 0.459482 0.507722 0.492432 
0.405636 0.405636 0.373877 0.359294 0.359294 0.434306 0.484996 0.50858 0.422891 
0.495841 0.589859 0.592869 0.525262 0.460368 0.355838 0.326331 0.278098 0.264827 
0.231126 0.220227 0.163355 0.163355 0.401242 0.371073 0.361394 0.396571 0.455058 
0.471992 0.681387 0.618746 0.758989 0.661931 0.446754 0.540671 0.43527 0.45733 
0.535574 0.389977 0.406955 0.519149 0.403612 0.503525 0.440632 0.395001 0.395001 
0.474724 0.502035 0.457371 0.441227 0.42425 0.454905 0.484752 0.396956 0.396956 
0.388133 0.488736 0.488736 0.419819 0.455036 0.401621 0.40965 0.364667 0.617939 
0.596569 0.638129 0.852283 0.875781 1 0.68369 0.68503 0.586089 0.700299 
0.700299 0.763114 0.676664 0.676664 0.666593 0.667696 0.576642 0.68328 0.734516 
0.736789 0.768097 0.671925 0.600062 0.620586 0.60311 0.59788 0.584961 0.513582 
0.373098 0.434976 0.461125 0.459584 0.518187 0.501144 0.26266 0.264476 0.300864 
0.485088 0.596307 0.718088 0.463131 0.460326 0.549685 0.561531 0.509226 0.640552 
0.687262 0.624278 0.361513 0.355464 0.235294 0.292816 0.363102 0.37706 0.465581 
0.559905 0.443936 0.477057 0.287141 0.197746 0.257767 0.259148 0.31915 0.338172 
0.366548 0.389035 0.240482 0.289952 0.301494 0.232173 0.232173 0.257101 0.23961 
0.20498 0.298589 0.512998 0.242265 0.248726 0.188644 0.285568 0.228179 0.194897 
0.333476 0.333476 0.320565 0.290355 0.297855 0.313302 0.310344 0.31502 0.317421 
0.237374 0.588955 0.605922 0.676199 0.618494 0.715645 0.605209 0.369469 0.369643 
0.38254 0.326804 0.356673 0.401738 0.364671 0.395083 0.396656 0.418252 0.391736 
0.378189 0.227823 0.17852 0.228699 0.267441 0.342466 0.448061 0.618858 0.542502 
0.491667 0.209902 0.27092 0.309938 0.357118 0.355258 0.324665 0.288021 0.437808 
0.375426 0.348752 0.378615 0.44307 0.384204 0.393855 0.478838 0.491682 0.44292 
0.55803 0.400999 0.401359 0.362623 0.568481 0.571013 0.639202 0.74368 0.683429 
0.647835 0.663653 0.708372 0.683229 0.353088 0.35333 0.290028 0.337477 0.308973 
0.355409 0.639954 0.471193 0.468265 0.383693 0.407479 0.456428 0.447686 0.445145 
0.434157 0.418582 0.434184 0.412076 0.341885 0.262779 0.233564 0.240056 0.324191 
0.352041 0.359138 0.830995 0.782987 0.798368 0.875555 0.752298 0.33167 0.359384 
0.409564 0.402204 0.364518 0.422041 0.421268 0.571421 0.545435 0.545435 0.559131 
0.460573 0.385121 0.385121 0.424231 0.460099 0.411271 0.381393 0.433534 0.673747 
0.843456 0.701651 0.78576 0.400121 0.529876 0.27155 0.382253 0.311605 0.21368 
0.336282 0.386137 0.507984 0.507984 0.545693 0.520283 0.676224 0.486482 0.619878 
0.505256 0.392114 0.392502 0.303524 0.351174 0.41659 0.465783 0.431504 0.378554 
0.345028 0.278926 0.217184 0.325525 0.278401 0.269365 0.36611 0.328436 0.549266 
0.612396 0.753939 0.76624 0.399467 0.39996 0.421535 0.414377 0.444679 0.390635 
0.390635 0.335581 0.34861 0.266316 0.328428 0.286685 0.309422 0.402706 0.359247 
0.422003 0.36601 0.409477 0.512483 0.485295 0.534457 0.459418 0.359699 0.400011 
0.297277 0.386307 0.4266 0.336997 0.297152 0.297152 0.313797 0.313797 0.342674 
0.389181 0.424933 0.436415 0.436415 0.370603 0.359919 0.348163 0.283123 0.236182 
0.323522 0.358362 
WidthEq 1 587 double
3.75662 2.8557 2.71572 4.70192 5.05244 1.46032 4.79101 3.59627 4.0201 
4.46735 4.94432 2.8876 6.48089 4.58862 4.43627 3.12852 2.89125 4.20683 
3.72293 1 6.91797 5.56445 5.50264 4.18814 5.23748 5.53175 4.91895 
2.52959 3.48685 4.7369 4.26351 1.0485 3.2087 3.53689 5.53927 5.81115 
4.03346 2.11821 4.00655 2.83158 4.86535 5.28043 4.64456 3.97852 4.57162 
3.80726 2.81469 3.40992 2.98774 2.73061 2.58502 2.00605 2.78117 1.91793 
2.83027 2.46856 2.56351 2.67419 2.5763 2.36132 2.36132 2.11 2.21106 
2.25016 2.41438 2.57402 3.03681 1.88603 1.90779 2.0341 2.0341 2.23885 
2.41997 2.41997 2.75115 2.84254 2.78766 2.81139 2.8393 2.81042 3.07188 
3.07188 3.32248 3.53176 3.47976 3.48574 3.46549 3.43738 3.47027 3.61932 
3.94771 4.53106 2.61706 2.91372 2.78829 2.83756 2.33358 2.32911 2.71304 
2.74155 2.94428 3.29941 3.50929 3.37247 3.9712 3.89923 3.78462 4.01355 
4.18493 4.11765 4.04679 4.27906 2.77427 3.32069 4.04859 3.85497 3.28133 
2.88598 2.68906 2.69159 2.96236 3.03872 3.4018 3.83213 4.47521 4.80027 
4.56156 4.46552 5.28858 5.51008 5.57445 5.75544 4.9032 3.02007 3.39135 
3.43057 3.1989 3.01881 3.0412 3.0412 2.91158 3.10004 3.00799 3.35569 
3.35569 3.32804 3.6139 3.44575 3.57884 3.40477 3.40477 3.07771 3.02078 
3.02078 2.73221 2.60173 2.60173 2.40977 2.40977 2.50598 2.5857 2.64508 
3.2218 3.5711 4.30725 4.99949 4.99949 4.91505 5.03863 4.91809 4.82066 