# vtk DataFile Version 3.0
vtk output
ASCII
DATASET POLYDATA
POINTS 745 float
1.76951 0.815121 1.00519 0.676933 0.651598 1.04553 5.56891 0.0383505 0.67693 
5.94032 -0.964457 0.272493 7.18245 -0.517151 -0.816419 4.68801 0.590466 0.102878 
3.20575 0.41326 -0.117989 2.45914 1.3304 0.17548 5.37982 -1.04982 -0.107071 
2.59354 -1.11318 -0.140819 1.61153 1.51269 0.00384919 -0.440041 1.10603 0.0804847 
-0.560643 -0.0782555 -0.0379666 3.34902 0.0618612 -0.311715 2.90606 -0.939373 -0.220217 
7.01799 -0.861457 -0.567303 3.26638 0.7407 -0.448317 3.1585 -0.270141 -0.568784 
7.19784 0.829605 -0.989218 6.28976 1.28026 -0.960984 4.59198 -1.19282 -0.878298 
4.48464 -0.993077 -0.876282 4.0966 -0.580795 -0.866198 3.20361 -0.636975 -0.83393 
-0.830083 0.772076 -1.10344 -0.906634 0.590556 -0.69881 -0.932879 0.470423 -0.696793 
-0.905057 0.137035 -0.694777 7.05225 0.679212 -1.34293 6.39788 -1.18889 -1.1427 
5.63832 1.19075 -1.27056 4.08844 0.123724 -1.18543 3.41998 0.268981 -1.04993 
0.594424 -1.27957 -1.06889 0.265459 -1.15493 -0.924893 5.8337 1.14573 -1.41053 
-0.609971 -0.639253 -1.09854 -0.920063 0.360191 -1.09652 6.54827 0.846486 -1.98695 
0.448533 1.48262 -1.42217 -0.662362 0.879447 -1.31051 -0.431003 -0.480399 -1.30647 
7.01352 -0.351929 -1.77255 5.30023 0.953733 -1.7901 5.10274 0.922574 -1.71608 
1.09736 -1.17097 -1.55474 6.86094 0.498321 -2.10834 6.55473 -0.808685 -1.95224 
5.0503 0.493189 -1.97719 6.73754 -0.152166 -2.23522 1.36789 1.2807 -1.98674 
0.714252 1.39868 -1.96456 0.383474 1.27699 -2.01841 6.19303 -0.559947 -2.34189 
5.7088 0.679048 -2.33584 2.12097 1.18793 -2.21282 0.618878 1.22319 -2.15971 
6.26229 0.478934 -2.55386 5.57047 0.0765765 -2.52562 5.52117 -0.484413 -2.58553 
1.14135 0.996302 -2.37639 5.66992 0.101789 -2.72952 5.55103 -0.39328 -2.60717 
5.55449 -0.326131 -2.62272 5.55465 -0.267948 -2.6282 5.56704 -0.207994 -2.64154 
5.56507 -0.151753 -2.64197 5.55406 -0.0978051 -2.62724 5.54394 -0.0436303 -2.59031 
5.54517 0.0134205 -2.5538 5.62006 0.0891495 -2.63127 1.18689 1.05029 -2.31178 
1.2357 1.09136 -2.24718 1.28102 1.1473 -2.17517 1.32441 1.21305 -2.08835 
1.15497 0.943016 -2.37639 1.17046 0.890204 -2.37647 1.19724 0.840252 -2.38438 
1.24972 0.796818 -2.40809 1.31296 0.756111 -2.45444 1.3778 0.71581 -2.50828 
1.44302 0.675604 -2.55471 1.509 0.635705 -2.57893 1.57502 0.597809 -2.58835 
1.63841 0.571438 -2.59037 1.69557 0.56964 -2.59239 1.75207 0.571544 -2.587 
1.80988 0.570469 -2.56681 1.86102 0.599063 -2.52442 1.91368 0.622721 -2.47461 
1.96807 0.6385 -2.43221 2.02192 0.654145 -2.40462 2.07409 0.677573 -2.36962 
2.12649 0.704486 -2.30502 2.18984 0.692621 -2.21081 2.25562 0.67118 -2.11659 
2.31444 0.673897 -2.04458 2.36686 0.697382 -2.00219 2.41486 0.737259 -1.96719 
2.46647 0.760651 -1.947 2.52302 0.764568 -1.9268 2.58395 0.750098 -1.91402 
2.64488 0.73895 -1.87902 2.70982 0.713077 -1.83663 2.77453 0.68704 -1.80163 
2.83506 0.673687 -1.78884 2.89732 0.645028 -1.78338 2.95314 0.604433 -1.75535 
2.99523 0.558591 -1.71196 3.05159 0.518129 -1.66913 3.11463 0.48968 -1.64146 
3.17561 0.476327 -1.61386 3.23934 0.448042 -1.56399 3.29513 0.407437 -1.48407 
3.32834 0.35923 -1.36622 3.36253 0.311157 -1.21875 1.07901 1.02294 -2.34476 
1.0205 1.0367 -2.29833 0.958959 1.06354 -2.24449 0.897151 1.09031 -2.19806 
0.837778 1.104 -2.17384 0.773351 1.13281 -2.16439 0.701423 1.17408 -2.16221 
5.44338 -0.501032 -2.54307 5.37351 -0.481172 -2.5037 5.30798 -0.445968 -2.46216 
5.2457 -0.419461 -2.42806 5.1898 -0.417116 -2.38903 5.13364 -0.414837 -2.35741 
5.07142 -0.388172 -2.32578 5.00752 -0.349736 -2.30904 4.95256 -0.307043 -2.30005 
4.9121 -0.260562 -2.29903 4.85873 -0.217352 -2.29752 4.80536 -0.174143 -2.29602 
4.76499 -0.127637 -2.295 4.712 -0.0843336 -2.28609 4.66129 -0.0404498 -2.26245 
4.63395 0.00935931 -2.21745 4.60703 0.0592746 -2.15765 4.55606 0.102979 -2.08951 
4.49437 0.141975 -2.01355 4.43428 0.169077 -1.92271 4.38152 0.170103 -1.80966 
4.33221 0.159708 -1.68179 4.28341 0.147335 -1.55393 4.23452 0.133081 -1.43903 
4.1857 0.111089 -1.34444 4.13408 0.0890575 -1.26272 5.60148 -0.519906 -2.55594 
5.668 -0.536509 -2.53592 5.73327 -0.56499 -2.52069 5.80002 -0.600744 -2.49803 
5.86493 -0.626511 -2.45564 5.92348 -0.626068 -2.40583 5.97884 -0.614138 -2.36344 
6.03294 -0.600536 -2.34325 6.08648 -0.586962 -2.33786 6.13975 -0.573455 -2.33988 
5.50735 0.103014 -2.5162 5.44829 0.11674 -2.48458 5.38705 0.145659 -2.40854 
5.32495 0.184662 -2.28808 5.26329 0.225657 -2.14542 5.20258 0.267004 -2.02504 
5.15 0.310488 -1.95191 5.11243 0.359106 -1.93124 5.07229 0.415201 -1.94515 
6.30434 0.546469 -2.4974 6.35162 0.617724 -2.39892 6.42451 0.7101 -2.22371 
6.2757 0.425593 -2.55385 6.28735 0.371806 -2.55378 6.28932 0.315566 -2.55335 
6.2765 0.255577 -2.55235 6.27659 0.19886 -2.55184 6.27669 0.142143 -2.55133 
6.26378 0.0821302 -2.55033 6.26376 0.0253856 -2.54982 6.26198 -0.0318053 -2.54924 
6.23762 -0.0947209 -2.54781 6.21337 -0.15761 -2.54638 6.21372 -0.21426 -2.53847 
6.22605 -0.267875 -2.51619 6.24094 -0.320841 -2.47177 6.25432 -0.374188 -2.41987 
6.25589 -0.43053 -2.37494 6.23045 -0.493721 -2.35123 6.19892 0.519607 -2.45561 
6.13423 0.559947 -2.39437 6.06799 0.59978 -2.37755 6.00117 0.637475 -2.39034 
5.93752 0.663779 -2.39572 5.8806 0.66575 -2.3863 5.82468 0.665985 -2.36208 
5.76522 0.679054 -2.34526 0.461576 1.24168 -2.0851 0.533503 1.23132 -2.13205 
0.668277 1.31935 -2.06597 2.0672 1.1907 -2.11457 2.00666 1.2158 -2.04594 
1.94438 1.24223 -2.01431 1.88503 1.25378 -2.00489 1.82457 1.2686 -2.00287 
1.76786 1.26862 -2.00086 1.71118 1.26855 -1.99884 1.65122 1.28139 -1.99682 
1.59472 1.27948 -2.00221 1.53997 1.26958 -2.01499 1.48321 1.2676 -2.02779 
1.42352 1.2805 -2.01837 6.26009 -0.599687 -2.3365 6.32757 -0.639319 -2.31631 
6.39433 -0.679131 -2.26644 6.45247 -0.721133 -2.1866 6.49689 -0.76661 -2.07658 
0.309345 1.24479 -1.98336 0.249042 1.22474 -1.9588 0.194965 1.21033 -1.94686 
0.141744 1.19668 -1.94237 0.0889415 1.1813 -1.94035 0.0385935 1.15624 -1.93834 
-0.00800432 1.11639 -1.93632 -0.057612 1.08951 -1.9269 -0.106694 1.06277 -1.90268 
-0.151712 1.02331 -1.85625 -0.200244 0.998826 -1.80241 -0.251941 0.985719 -1.75598 
-0.307068 0.983927 -1.72435 -0.36592 0.996829 -1.69273 -0.419837 0.993579 -1.6389 
-0.468501 0.972927 -1.56285 -0.514896 0.945535 -1.47201 -0.568762 0.945403 -1.39597 
-0.619245 0.928611 -1.34213 0.404723 1.37695 -1.72109 0.761395 1.45075 -1.87034 
0.814113 1.47642 -1.80574 0.870871 1.48061 -1.77814 0.931064 1.46795 -1.77276 
0.987775 1.46791 -1.77477 1.04467 1.46605 -1.78419 1.10679 1.44135 -1.80842 
1.16847 1.41466 -1.85484 1.22487 1.40026 -1.90861 1.27561 1.36868 -1.9546 
1.31481 1.32387 -1.97783 0.654659 1.43817 -1.77254 0.595349 1.46687 -1.61008 
0.531369 1.47458 -1.49669 5.11184 0.560321 -2.11093 5.16875 0.581619 -2.21692 
5.22628 0.573189 -2.29055 5.27749 0.588422 -2.3345 5.31813 0.639072 -2.36606 
5.34489 0.70038 -2.36756 5.34637 0.757454 -2.32613 5.33796 0.813465 -2.21021 
5.32438 0.876294 -2.02498 6.78289 -0.189588 -2.23279 6.85094 -0.223927 -2.18672 
6.9199 -0.262235 -2.08505 6.97844 -0.304083 -1.94221 6.75654 -0.0827884 -2.21057 
6.7949 -0.0111747 -2.18665 6.82221 0.0534394 -2.17337 6.82437 0.110779 -2.17026 
6.82626 0.167997 -2.17084 6.85062 0.230913 -2.17228 6.87498 0.293901 -2.17124 
6.87557 0.352193 -2.1619 6.86702 0.416298 -2.13994 6.58396 0.710292 -2.07372 
6.63879 0.635967 -2.13257 6.70435 0.590515 -2.15129 6.77723 0.547239 -2.13793 
4.96939 0.526308 -2.03884 4.90551 0.529179 -2.08108 4.85018 0.51806 -2.09877 
4.79644 0.506582 -2.09429 4.74102 0.504829 -2.07007 4.68265 0.518068 -2.02364 
4.62807 0.51853 -1.9624 4.57375 0.519058 -1.89376 4.51643 0.532564 -1.81772 
4.46338 0.531412 -1.72688 4.41355 0.520884 -1.61382 4.36428 0.510382 -1.48596 
4.31331 0.507663 -1.3507 4.26155 0.508055 -1.21544 4.21975 0.467425 -1.09498 
4.18378 0.405661 -1.01161 4.15604 0.342034 -0.993382 4.14031 0.279777 -1.03303 
4.10835 0.205435 -1.10719 6.6041 -0.779765 -1.95426 6.64748 -0.728317 -1.96368 
6.68991 -0.675335 -1.9879 6.73554 -0.637172 -2.02694 6.78084 -0.595541 -2.05116 
6.83172 -0.568128 -2.02357 6.88425 -0.538407 -1.93675 6.9311 -0.484087 -1.83514 
6.97347 -0.41871 -1.77793 6.53209 -0.871167 -1.84711 6.52338 -0.930114 -1.71284 
6.50097 -0.992536 -1.54841 6.46887 -1.05741 -1.38361 6.43396 -1.12301 -1.24835 
6.46833 0.900848 -1.91566 6.40198 0.924055 -1.89943 6.33615 0.951386 -1.93885 
6.27167 0.975455 -1.9805 6.21443 0.975356 -1.99329 6.16068 0.965937 -1.97647 
6.10473 0.966268 -1.95224 6.0428 0.992978 -1.90827 5.97885 1.0328 -1.81248 
5.91139 1.08186 -1.64003 6.95183 0.591546 -1.72747 -0.726511 0.820505 -1.21874 
1.05158 -1.20852 -1.51571 0.996367 -1.20888 -1.47669 0.943007 -1.21432 -1.42285 
0.895557 -1.23865 -1.3394 0.85452 -1.28718 -1.24856 0.81025 -1.32618 -1.17745 
0.753142 -1.32422 -1.1359 0.684997 -1.31224 -1.10394 5.14598 0.970809 -1.7897 
5.20855 0.981907 -1.81427 5.34973 1.03422 -1.79752 5.39679 1.09324 -1.7849 
5.44891 1.1216 -1.7376 5.50607 1.13894 -1.63108 5.56845 1.15964 -1.4704 
7.09709 -0.414818 -1.31242 -0.79927 0.648447 -1.28873 -0.815303 0.561088 -1.39115 
-0.850496 0.491515 -1.37444 -0.886094 0.425543 -1.26139 -0.483489 -0.495924 -1.29705 
-0.532282 -0.522696 -1.26543 -0.573105 -0.575384 -1.19679 -0.724862 0.915782 -1.21966 
-0.780744 0.927137 -1.14366 -0.816405 0.873828 -1.10484 0.383779 1.48183 -1.28396 
0.325433 1.4861 -1.17074 0.264995 1.5117 -1.07741 0.205071 1.53677 -0.991487 
0.151837 1.53746 -0.893245 0.101955 1.52493 -0.794993 0.0552664 1.50091 -0.689346 
0.0118035 1.46195 -0.598499 -0.0359119 1.43756 -0.522462 -0.0873713 1.42241 -0.483431 
-0.139067 1.40708 -0.451804 -0.187334 1.38044 -0.405367 -0.227684 1.3281 -0.321925 
-0.265472 1.26787 -0.223683 -0.307962 1.22507 -0.132836 -0.358395 1.2114 -0.0567892 
-0.401648 1.1683 0.0118428 6.66937 0.89286 -1.78191 6.75675 0.884003 -1.62261 
6.81848 0.846812 -1.51031 6.8617 0.803114 -1.4277 6.91683 0.770555 -1.36414 
6.97949 0.743441 -1.33796 7.22416 -0.342555 -1.156 7.23977 -0.243737 -1.36648 
[...]
POINT_DATA 745
SCALARS DY_raw double
LOOKUP_TABLE default
226.576 226.023 538.485 594.774 515.64 514.259 311.43 400.539 191.935 
286.244 154.499 218.425 246.577 346.399 316.85 586.078 232.064 356.486 
505.504 478.588 437.811 357.353 308.444 334.356 261.496 374.945 404.179 
331.405 519.193 416.487 348.364 383.167 249.509 221.965 256.67 411.894 
216.772 331.409 384.661 213.697 306.106 272.511 360.689 489.729 373.551 
53.0619 475.199 291.641 466.528 395.672 265.213 169.322 191.538 277.697 
408.509 205.043 213.229 329.208 434.187 243.728 224.229 304.598 270.436 
277.415 315.681 289.13 289.13 311.396 343.583 399.073 401.095 246.841 
243.392 216.458 205.609 266.37 266.37 250.731 268.993 252.879 272.43 
266.961 286.268 303.484 335.515 318.153 328.444 298.731 262.723 277.122 
270.886 261.514 261.514 263.611 279.055 321.712 293.991 314.806 314.604 
299.3 335.223 324.809 309.326 307.002 267.004 265.963 225.28 216.92 
236.566 253.484 216.275 210.468 197.329 196.582 210.035 236.803 220.433 
210.602 234.045 238.579 253.284 247.854 243.655 262.873 271.301 264.079 
293.516 324.816 327.135 377.068 350.716 335.14 345.19 345.394 345.394 
313.455 313.455 315.706 299.201 344.496 329.977 311.635 338.502 453.247 
482.13 387.141 395.265 399.245 391.582 271.95 273.789 315.353 314.789 
336.409 360.772 340.441 313.237 313.237 293.725 387.496 373.049 377.638 
377.105 462.699 500.79 547.588 505.961 503.637 335.505 326.867 430.411 
321.121 325.102 337.645 337.645 336.597 336.597 362.802 360.326 360.326 
360.611 313.231 313.231 285.981 259.055 289.874 287.573 278.047 352.186 
372.03 408.581 366.764 364.91 364.91 401.497 408.509 163.307 218.209 
222.728 305.831 303.872 305.781 279.524 269.502 259.65 252.716 254.706 
268.827 227.425 236.021 236.78 268.511 299.344 295.552 243.202 278.615 
194.246 210.929 204.726 223.631 223.631 187.961 174.237 194.706 168.729 
193.817 234.233 271.993 285.646 219.289 252.701 261.513 272.036 271.698 
298.909 229.423 205.732 202.017 189.044 221.303 235.188 197.678 226.15 
202.413 216.288 218.803 237.145 230.225 212.615 181.736 413.258 391.416 
382.961 361.566 319.699 308.885 307.073 333.69 390.871 396.869 395.444 
337.17 322.685 402.006 461.044 476.829 460.337 493.707 517.616 503.363 
469.53 463.095 458.254 415.58 389.488 401.687 410.646 386.005 379.251 
334.397 334.397 330.72 310.361 378.024 324.985 317.857 395.049 387.878 
445.984 468.327 480.743 508.447 551.737 493.722 387.113 369.986 365.145 
382.475 389.363 389.363 365.927 375.629 372.08 369.729 289.038 298.929 
276.392 287.869 319.296 384.047 419.325 407.244 376.876 383.554 348.873 
390.204 348.795 364.622 383.745 417.174 305.506 148.024 150.473 166.328 
190.931 194.075 206.995 197.304 203.167 369.492 361.981 435.139 362.275 
394.027 309.508 305.624 524.336 312.14 241.178 214.531 258.468 273.77 
213.061 249.409 302.149 252.977 248.21 273.298 260.445 271.058 214.672 
203.999 229.09 302.525 275.353 278.005 278.005 266.373 217.135 211.466 
262.635 276.185 248.896 290.506 436.892 463.849 451.671 432.525 434.691 
442.73 622.88 544.748 499.307 439.151 439.151 462.02 488.099 488.099 
576.356 555.315 555.315 537.304 540.976 540.976 540.719 552.03 532.517 
361.149 328.42 338.469 345.965 259.069 310.444 324.282 312.263 314.858 
283.123 239.865 208.995 217.327 246.985 269.002 271.738 252.682 272.419 
237.348 249.001 239.854 255.367 231.7 231.7 216 203.26 162.978 
193.699 188.67 215.312 276.507 325.878 208.687 219.348 230.761 254.09 
353.214 423.552 436.778 433.101 435.149 429.02 457.409 487.998 280.77 
368.503 267.111 283.821 318.932 286.649 252.735 257.641 262.776 309.289 
234.402 266.75 383.826 401.36 420.256 425.58 391.234 380.28 373.148 
334.492 311.662 318.925 344.161 363.081 390.707 341.3 368.052 399.975 
341.594 447.641 435.988 468.135 318.031 276.399 279.077 263.931 374.945 
374.945 334.356 313.809 299.552 318.367 328.748 351.963 359.908 375.053 
467.136 353.923 317.909 353.024 308.685 351.25 345.064 294.295 278.577 
278.577 244.539 244.539 258.859 280.211 265.515 231.346 244.917 289.465 
327.978 329.61 416.164 458.566 543.104 426.353 391.941 334.294 331.298 
359.945 369.339 369.339 388.271 416.788 451.83 470.85 487.613 501.094 
517.278 495.292 495.292 467.583 435.992 435.712 456.192 471.707 397.901 
400.082 443.762 401.562 338.521 342.121 345.395 346.773 237.052 225.89 
267.118 473.158 450.977 252.63 233.835 279.811 332.468 349.571 316.309 
242.499 221.24 197.795 234.902 194.335 187.84 187.84 189.814 182.278 
213.66 213.66 225.976 225.094 212.669 208.143 205.922 225.001 225.001 
260.645 248.643 205.161 191.652 199.353 199.353 164.229 153.04 153.04 
161.763 238.427 225.989 206.532 244.444 202.828 221.559 234.086 223.587 
182.597 165.525 197.615 185.921 156.19 147.538 152.539 170.725 189.954 
183.107 206.627 222.189 248.262 237.941 240.229 237.125 233.427 233.555 
220.304 206.654 209.632 189.489 247.594 221.176 227.343 292.736 311.929 
283.473 265.861 211.462 210.465 213.398 244.695 250.834 295.082 314.985 
281.414 307.48 357.141 392.682 300.691 318.119 298.218 268.939 301.788 
346.137 357.161 354.637 351.468 189.396 217.997 211.759 225.222 231.377 
255.561 251.526 259.716 252.456 274.151 265.154 300.041 400.711 218.307 
316.831 351.48 351.48 418.049 418.049 489.521 588.216 626.594 364.209 
402.58 479.257 467.393 509.113 420.636 435.453 469.962 458.969 439.169 
403.048 401.381 402.507 392.717 379.308 373.965 373.965 384.879 411.834 
441.925 462.704 432.854 462.169 442.186 527.283 215.038 261.739 281.938 
267.079 297.307 301.883 270.853 298.245 285.735 267.595 257.796 240.431 
230.238 205.065 199.176 199.176 241.746 277.599 301.588 260.209 226.576 
531.679 529.52 637.122 591.291 663.007 561.631 561.631 479.155 465.001 
510.558 497.367 450.028 474.028 491.584 459.318 430.312 466.968 433.194 
469.987 490.067 490.067 508.767 505.623 505.623 458.889 472.914 433.127 
461.268 517.208 496.845 587.387 513.981 474.364 475.491 485.846 520.814 
481.972 460.386 441.753 472.793 472.07 499.815 492.893 522.488 528.583 
522.051 566.446 535.314 498.784 519.926 492.39 523.377 
FIELD FieldData 7
DY_minmax 1 745 double
0.284475 0.283569 0.795847 0.888132 0.758392 0.756129 0.423591 0.569685 0.227681 
0.3823 0.166305 0.271112 0.317267 0.480924 0.432478 0.873874 0.293473 0.497461 
0.741774 0.697646 0.630793 0.498883 0.418697 0.46118 0.341726 0.527724 0.575653 
0.456342 0.764218 0.595832 0.484144 0.541204 0.322074 0.276915 0.333814 0.588301 
0.268402 0.456348 0.543654 0.263361 0.414863 0.359785 0.504353 0.715911 0.525439 
0 0.69209 0.391148 0.677875 0.561706 0.34782 0.190607 0.22703 0.368288 
0.582753 0.249172 0.262593 0.45274 0.624851 0.312595 0.280627 0.412391 0.356383 
0.367824 0.430561 0.387032 0.387032 0.423537 0.476307 0.567282 0.570596 0.317699 
0.312045 0.267886 0.2501 0.349716 0.349716 0.324077 0.354017 0.327598 0.359652 
0.350686 0.382339 0.410565 0.463079 0.434615 0.451487 0.402772 0.343738 0.367344 
0.357121 0.341755 0.341755 0.345193 0.370513 0.44045 0.395001 0.429127 0.428796 
0.403705 0.4626 0.445527 0.420143 0.416333 0.350756 0.34905 0.28235 0.268644 
0.300854 0.32859 0.267586 0.258065 0.236524 0.235301 0.257355 0.301241 0.274403 
0.258286 0.296721 0.304154 0.328262 0.31936 0.312476 0.343983 0.357801 0.345961 
0.394222 0.445538 0.44934 0.531204 0.488001 0.462465 0.478941 0.479276 0.479276 
0.426912 0.426912 0.430602 0.403543 0.477803 0.454 0.423929 0.467976 0.6561 
0.703454 0.547719 0.561039 0.567564 0.555001 0.358865 0.36188 0.430023 0.429099 
0.464546 0.504488 0.471155 0.426554 0.426554 0.394565 0.548302 0.524616 0.53214 
0.531266 0.671596 0.734046 0.810771 0.742524 0.738713 0.463063 0.448901 0.61866 
0.43948 0.446008 0.466571 0.466571 0.464853 0.464853 0.507816 0.503757 0.503757 
0.504224 0.426545 0.426545 0.381869 0.337724 0.388251 0.384479 0.368862 0.490411 
0.522945 0.58287 0.514312 0.511272 0.511272 0.571256 0.582753 0.180745 0.270757 
0.278167 0.414413 0.4112 0.414331 0.371282 0.354851 0.338699 0.327332 0.330593 
0.353746 0.285866 0.299959 0.301205 0.353227 0.403778 0.397561 0.311734 0.369793 
0.23147 0.258822 0.248651 0.279647 0.279647 0.221166 0.198665 0.232224 0.189636 
0.230767 0.297028 0.358936 0.381319 0.272528 0.327307 0.341754 0.359007 0.358453 
0.403065 0.289143 0.250302 0.244211 0.222942 0.27583 0.298595 0.237096 0.283776 
0.24486 0.267608 0.271731 0.301802 0.290457 0.261585 0.21096 0.590538 0.554728 
0.540867 0.50579 0.437149 0.41942 0.416449 0.460087 0.553835 0.563668 0.561333 
0.465792 0.442045 0.57209 0.668883 0.694763 0.667723 0.722434 0.761632 0.738265 
0.682796 0.672245 0.664309 0.594344 0.551567 0.571568 0.586256 0.545858 0.534785 
0.461247 0.461247 0.455218 0.42184 0.532773 0.445816 0.43413 0.560685 0.548928 
0.644192 0.680824 0.701179 0.7466 0.817573 0.722458 0.547674 0.519594 0.511658 
0.540069 0.551363 0.551363 0.51294 0.528845 0.523027 0.519173 0.386881 0.403097 
0.366147 0.384964 0.436488 0.542648 0.600485 0.580678 0.530891 0.541838 0.48498 
0.552741 0.484851 0.510801 0.542152 0.596958 0.413881 0.155689 0.159704 0.185698 
0.226035 0.23119 0.252372 0.236484 0.246095 0.518785 0.50647 0.626412 0.506952 
0.559008 0.42044 0.414073 0.77265 0.424756 0.308415 0.264728 0.336761 0.36185 
0.262317 0.321909 0.408376 0.327758 0.319943 0.361075 0.340002 0.357403 0.264959 
0.247459 0.288597 0.408993 0.364444 0.368792 0.368792 0.349722 0.268997 0.259702 
0.343593 0.365808 0.321068 0.389287 0.629285 0.673482 0.653516 0.622126 0.625678 
0.638857 0.934211 0.806116 0.731614 0.63299 0.63299 0.670482 0.713239 0.713239 
0.857936 0.823438 0.823438 0.793911 0.79993 0.79993 0.799508 0.818054 0.786062 
0.505106 0.451447 0.467922 0.480211 0.337747 0.421976 0.444663 0.424958 0.429212 
0.377184 0.306263 0.25565 0.269311 0.317934 0.354032 0.358518 0.327275 0.359634 
0.302136 0.32124 0.306244 0.331677 0.292875 0.292875 0.267135 0.246248 0.180207 
0.230573 0.222329 0.266008 0.366337 0.44728 0.255147 0.272625 0.291337 0.329583 
0.492097 0.607415 0.629099 0.62307 0.626428 0.616379 0.662923 0.713073 0.373325 
0.517163 0.350932 0.378327 0.435892 0.382965 0.327363 0.335405 0.343824 0.420082 
0.297306 0.350339 0.542285 0.571031 0.602011 0.61074 0.554429 0.53647 0.524777 
0.461401 0.423972 0.435879 0.477254 0.508273 0.553567 0.472564 0.516423 0.568761 
0.473045 0.646908 0.627804 0.680509 0.434415 0.366159 0.37055 0.345718 0.527724 
0.527724 0.46118 0.427493 0.404117 0.434966 0.451985 0.490045 0.503071 0.527902 
0.67887 0.49326 0.434214 0.491785 0.419091 0.488876 0.478735 0.3955 0.369729 
0.369729 0.313926 0.313926 0.337402 0.372408 0.348315 0.292295 0.314544 0.387581 
0.450723 0.453399 0.595302 0.664821 0.80342 0.612007 0.555589 0.461078 0.456165 
0.503131 0.518533 0.518533 0.549572 0.596325 0.653776 0.68496 0.712442 0.734544 
0.761078 0.725033 0.725033 0.679604 0.62781 0.627351 0.660928 0.686364 0.565361 
0.568936 0.640549 0.571363 0.468008 0.47391 0.479277 0.481536 0.30165 0.283351 
0.350944 0.688744 0.652378 0.327189 0.296376 0.371752 0.458084 0.486124 0.431591 
0.31058 0.275727 0.237288 0.298125 0.231616 0.220967 0.220967 0.224205 0.211848 
0.263299 0.263299 0.283491 0.282045 0.261675 0.254254 0.250612 0.281893 0.281893 
0.340331 0.320654 0.249365 0.227218 0.239842 0.239842 0.182258 0.163913 0.163913 
0.178215 0.303905 0.283512 0.251613 0.313769 0.245539 0.27625 0.296787 0.279574 
0.212371 0.184383 0.236993 0.217822 0.169078 0.154893 0.163092 0.192907 0.224434 
0.213208 0.251768 0.277282 0.320028 0.303107 0.306858 0.30177 0.295707 0.295917 
0.274193 0.251814 0.256694 0.223671 0.318934 0.275622 0.285732 0.392944 0.424411 
0.377757 0.348883 0.259696 0.258061 0.26287 0.314181 0.324245 0.396789 0.42942 
0.374382 0.417116 0.498535 0.556804 0.405986 0.434559 0.401931 0.353928 0.407785 
0.480495 0.498568 0.49443 0.489234 0.223519 0.27041 0.260182 0.282255 0.292346 
0.331995 0.325381 0.338808 0.326905 0.362473 0.347723 0.40492 0.569967 0.270917 
0.432446 0.489254 0.489254 0.598394 0.598394 0.71557 0.87738 0.9403 0.510122 
0.573032 0.698742 0.679293 0.747692 0.602634 0.626927 0.683503 0.665481 0.633019 
0.573799 0.571066 0.572912 0.556862 0.534877 0.526117 0.526117 0.544011 0.588203 
0.637537 0.671604 0.622666 0.670727 0.637965 0.777481 0.265558 0.342125 0.37524 
0.35088 0.400438 0.40794 0.357066 0.401975 0.381466 0.351724 0.335659 0.30719 
0.290479 0.249208 0.239552 0.239552 0.309346 0.368127 0.407456 0.339616 0.284475 
0.784689 0.781149 0.957561 0.882422 1 0.833795 0.833795 0.698576 0.67537 
0.750061 0.728434 0.650822 0.690171 0.718952 0.666053 0.618498 0.678595 0.623223 
0.683544 0.716467 0.716467 0.747124 0.741969 0.741969 0.66535 0.688343 0.623113 
0.66925 0.760964 0.727579 0.876022 0.755673 0.69072 0.692569 0.709546 0.766875 
0.703195 0.667805 0.637256 0.688145 0.68696 0.732448 0.721099 0.76962 0.779612 
0.768903 0.841689 0.790648 0.730757 0.765419 0.720275 0.771078 
WidthEq 1 745 double
2.19579 1.67666 2.07431 1 3.81108 2.13683 3.95956 2.03008 1.99513 
2.76772 1.77162 1.06789 2.45267 3.67606 2.5866 2.7049 3.26312 3.33111 
2.94143 2.08677 1.69423 2.05946 3.97091 3.99312 2.65095 2.06983 2.04485 
2.8407 4.85163 3.78647 4.50132 4.29634 4.67868 3.47074 2.75546 4.16555 
3.48432 2.98964 3.96594 3.20843 2.89784 1.66553 5.55493 3.59008 2.8646 
1.24146 3.67013 4.24469 5.4779 4.43611 2.71791 2.70003 2.94555 3.81442 
3.58264 2.7195 2.68952 3.15999 3.6155 4.33411 3.2302 3.31546 4.33985 
4.23443 3.77436 3.71419 3.71419 3.66216 3.73619 3.5114 3.15508 3.19406 
2.99354 2.8438 2.96924 2.8937 2.8937 2.76301 2.61905 2.79041 3.06047 
3.09335 3.19195 3.17563 3.16875 3.50565 3.23024 3.43391 3.48448 3.44911 
3.27213 3.53054 3.53054 3.40898 3.34226 3.20654 3.48985 3.40846 3.50925 
3.72882 3.60052 3.64628 3.71858 3.69735 3.89797 3.9292 3.9325 3.96139 
3.95849 3.87249 3.96604 4.02777 4.27173 4.32711 4.37192 4.6685 3.28465 
2.99258 2.91962 2.65008 2.37463 2.39013 2.51726 4.04661 3.9854 3.79895 
3.62674 3.3694 3.46748 3.27926 3.35204 3.35341 3.22589 3.07699 3.07699 
3.23531 3.23531 3.21487 3.53847 3.37286 3.51559 3.55978 3.38564 3.18571 
3.10313 3.4409 3.69586 3.88026 3.90948 4.15364 3.75667 3.34443 3.36023 
3.02582 2.97308 3.09359 3.31367 3.31367 3.49362 3.73269 3.79535 3.19442 
3.34083 3.24598 3.38971 3.90425 4.61157 4.99067 3.10554 3.08796 3.18682 
3.38765 3.58873 3.82412 3.82412 4.38027 4.38027 4.4746 4.27664 4.27664 
4.08993 3.60942 3.60942 3.52042 3.5596 3.47887 3.76601 3.71075 3.29083 
3.72659 3.65175 3.9399 4.21187 4.21187 3.95648 3.58264 2.83561 2.6824 
2.662 2.78746 2.91921 2.89591 2.95729 2.95773 2.67866 2.75935 2.65449 
2.58253 2.72808 2.80363 2.8538 3.36286 3.49599 3.51032 3.60294 3.92195 
2.79226 2.63588 2.56501 2.2506 2.2506 2.37349 2.47321 2.27756 2.32185 
2.3591 2.30242 2.21525 2.25368 2.49973 2.38097 2.4129 2.68182 2.88851 
2.76667 2.87823 2.57968 2.37699 2.29901 2.1839 1.93553 2.06252 2.02129 
2.22334 2.43238 2.72713 2.85207 2.7816 2.83134 3.14271 5.37273 4.98818 
4.76828 4.57674 4.43009 4.04071 3.78279 3.4839 3.67588 4.40691 4.42217 
4.61848 5.18159 4.33453 4.0719 3.90384 3.55239 3.54648 3.29264 3.31849 
3.45446 3.45442 3.43542 3.49207 3.64344 3.78975 5.67991 5.47271 5.17183 
4.62789 4.62789 4.10361 4.05558 3.86529 3.97385 3.93121 3.63328 4.20726 
4.06643 4.40263 4.61711 4.52052 4.20859 4.2096 4.39593 3.2337 3.28465 
2.97485 3.04331 3.04331 3.52249 3.86042 4.72389 4.9089 4.3513 4.82139 
5.58596 5.6085 5.0951 4.32174 4.29381 4.31536 4.68391 4.71886 4.79364 
4.537 4.28795 3.75422 3.69932 4.41601 2.91805 2.27763 2.73787 2.85054 
3.32018 3.9522 3.75866 3.71023 3.76816 3.43808 3.88632 3.88173 3.90638 
3.68469 3.94586 4.44522 4.40003 2.58565 2.82826 2.8933 3.02542 2.46029 
3.44842 3.56781 3.04411 3.22233 3.18736 2.96817 3.0718 3.01693 3.01689 
2.93867 2.85112 2.59457 2.84255 2.90298 2.90298 2.84219 2.82305 2.58833 
2.51708 2.19985 1.70294 1.3794 3.78937 3.74323 3.96548 4.07011 4.45096 
4.78392 4.08659 4.23475 4.3061 3.83402 3.83402 3.35534 3.35427 3.35427 
3.1253 3.18213 3.18213 3.26912 3.29805 3.29805 3.98999 4.14849 4.64642 
2.53497 3.08089 2.94932 2.85686 3.68146 3.37472 3.07419 2.56609 2.29165 
2.30618 2.4649 2.77162 2.97047 2.96 2.96731 2.82567 2.82836 2.74902 
3.45249 2.92571 2.84062 2.72868 2.74943 2.74943 2.84877 2.87014 2.74898 
2.7227 2.81011 2.87394 2.97672 2.82693 3.02282 2.60551 2.36298 2.49937 
4.74003 4.07325 3.76824 3.65602 3.54551 3.26932 3.13502 2.81551 2.41395 
2.20488 2.68497 2.62801 2.57605 2.9141 3.12605 5.27636 4.67035 3.82517 
5.36226 4.83803 3.83018 3.59656 3.70435 3.75989 3.76804 3.78804 3.74826 
3.30829 3.07947 3.12345 2.71087 2.72745 2.74792 2.97165 2.95761 2.85676 
3.06743 2.64914 2.61276 3.93795 2.6389 2.53855 2.45407 2.51814 2.06983 
2.06983 3.99312 3.90942 3.91984 3.68484 3.42522 3.65668 3.20205 2.99191 
2.40162 2.78414 2.83881 2.57919 3.37854 3.32252 3.31757 4.28751 4.81277 
4.81277 4.75361 4.75361 4.37174 3.93266 3.7754 3.76935 3.93433 3.71407 
3.88155 4.26505 3.82822 3.52656 2.75878 2.63095 2.71866 2.82728 2.75548 
2.61455 2.48247 2.48247 2.37554 2.10691 2.02254 2.01012 1.9566 1.96541 
1.71145 1.70532 1.70532 1.61157 1.77757 1.80584 1.95942 2.09124 2.38636 
2.70228 2.57515 2.48575 3.26563 3.28946 3.40852 3.5205 4.03403 4.48688 
4.17959 4.27638 4.76981 2.46247 2.24553 1.822 1.82049 2.14556 2.49883 
2.76564 2.66409 2.55853 2.44751 2.10617 1.99922 1.99922 1.94845 1.81319 
1.73043 1.73043 1.71542 1.81713 1.93768 2.03992 2.0524 1.85583 1.85583 
2.74912 2.71077 2.85822 2.69793 2.50583 2.50583 2.41969 2.35431 2.35431 
2.09055 1.92207 1.81758 1.92364 1.82293 1.94137 1.93205 1.91752 1.95791 
1.94332 1.89605 1.83915 1.83327 1.82005 1.81902 1.89855 1.72596 1.69143 
1.65954 1.64008 1.65213 1.64622 1.64543 1.62859 1.61263 1.75311 1.92098 
2.05781 2.01793 2.18046 2.17667 1.885 1.91044 1.87221 1.68115 1.69851 
1.76025 1.8011 1.95119 1.93388 1.97918 2.10276 2.29018 2.71286 2.82126 
3.18301 3.14279 2.82985 2.44983 2.5798 2.47462 2.41228 2.50716 2.66006 
3.76597 3.6991 3.75695 3.75862 2.27018 2.75826 2.78385 2.73305 2.86006 
2.85472 3.08999 3.03606 3.21416 3.22298 3.28879 3.12369 2.26766 1.98475 
2.68902 2.90237 2.90237 2.7222 2.7222 2.29952 1.33254 1.3404 4.23409 
3.60193 2.87398 2.34856 2.25956 2.17448 2.07254 1.99662 2.03298 2.12814 
2.16903 2.36731 2.30469 2.40892 2.36558 2.41625 2.41625 2.35254 2.16933 
2.19498 2.10844 2.14896 2.13442 2.12633 2.07828 3.6331 3.23736 2.94517 
2.67918 2.58189 2.57396 2.56521 2.44106 2.33441 2.25533 2.28551 2.06198 
2.13568 2.0759 2.03968 2.03968 2.02532 2.15168 2.15975 2.3193 2.19579 
3.34864 3.15162 2.48565 2.82271 2.61028 3.06727 3.06727 3.34506 3.17084 
3.0122 2.97258 3.03164 2.85861 2.69731 2.59231 2.48707 2.36439 2.28356 
2.29016 2.33787 2.33787 2.39427 2.679 2.679 2.88972 2.80625 2.66789 
2.48895 2.28907 2.36793 2.24895 2.52259 2.61296 2.65095 2.67429 2.54305 
2.66717 2.85985 2.98636 2.86581 2.87225 2.86008 2.80295 2.78579 2.73965 
2.62318 2.56599 2.37192 2.26895 2.17657 2.14715 2.13961 
rRFP 1 745 double
3366.94 3105.8 3305.83 2765.42 4179.48 3337.28 4254.17 3283.58 3266 
3654.64 3153.57 2799.57 3496.16 4111.56 3563.53 3623.04 3903.84 3938.04 
3742.02 3312.1 3114.64 3298.36 4259.88 4271.05 3595.9 3303.58 3291.01 
3691.35 4702.91 4167.1 4526.69 4423.58 4615.91 4008.28 3648.47 4357.79 
4015.11 3766.27 4257.38 3876.33 3720.09 3100.2 5056.69 4068.31 3703.37 
2886.88 4108.58 4397.6 5017.94 4493.89 3629.58 3620.59 3744.09 4181.16 
4064.57 3630.38 3615.3 3851.96 4081.1 4442.58 3887.28 3930.17 4445.47 
4392.44 4161.01 4130.74 4130.74 4104.57 4141.81 4028.73 3849.49 3869.1 
3768.23 3692.91 3756.01 3718.01 3718.01 3652.27 3579.85 3666.05 3801.9 
3818.44 3868.04 3859.83 3856.37 4025.84 3887.3 3989.75 4015.19 3997.4 
3908.37 4038.36 4038.36 3977.21 3943.65 3875.38 4017.89 3976.95 4027.65 
4138.1 4073.56 4096.58 4132.95 4122.27 4223.19 4238.9 4240.56 4255.09 
4253.63 4210.37 4257.43 4288.48 4411.2 4439.06 4461.6 4610.79 3914.67 
3767.75 3731.05 3595.46 3456.9 3464.7 3528.65 4297.96 4267.17 4173.38 
4086.75 3957.3 4006.64 3911.96 3948.57 3949.26 3885.11 3810.21 3810.21 
3889.85 3889.85 3879.57 4042.35 3959.04 4030.84 4053.07 3965.47 3864.9 
3823.36 3993.27 4121.52 4214.28 4228.98 4351.8 4152.11 3944.74 3952.69 