# vtk DataFile Version 3.0
vtk output
ASCII
DATASET POLYDATA
POINTS 1042 float
0.596814 0.177253 2.08275 0.892014 0.86196 1.81651 0.428551 0.0901674 1.68987 
2.45449 -0.244332 1.71249 3.01968 0.267949 1.46124 0.0550475 0.50228 1.25114 
0.174772 0.827408 1.22019 0.346989 1.07752 0.995162 1.95756 1.57721 0.941478 
3.08924 0.776383 1.01159 2.98169 0.870502 0.802365 0.221067 1.18382 0.517036 
2.28408 1.47533 0.547863 2.57365 -1.35697 0.610878 2.84559 -1.21427 0.529391 
0.296742 1.27828 0.17308 2.74373 1.53963 0.00420533 0.185937 1.26292 -0.0258846 
2.8895 1.51079 -0.0606827 -0.20626 1.03685 -0.203915 -0.637977 -1.12999 -0.267063 
-0.371246 -1.41189 -0.241818 0.364625 -1.95726 -0.126959 5.45364 0.811616 -0.809734 
-0.621922 -1.32665 -0.935046 5.00321 0.477711 -0.977421 5.01706 -0.289688 -0.905644 
5.20262 0.398705 -0.970881 6.81265 0.880143 -1.02285 -0.493552 0.678184 -1.17349 
-0.381972 0.729632 -1.17878 0.518811 1.4149 -1.2468 2.07196 -1.86383 -0.946532 
2.06708 -2.02804 -0.93114 3.30952 0.893178 -1.20993 6.0082 0.976841 -1.22933 
7.31621 0.554239 -1.19538 7.28526 -0.485743 -1.09789 4.49858 0.181544 -1.34928 
4.67165 0.450292 -1.37518 -0.670256 -0.918536 -1.55893 7.05428 1.0178 -1.6394 
7.63947 0.342888 -1.57873 0.0544153 0.64192 -1.97595 3.18637 -0.736253 -1.92733 
4.86378 0.829659 -2.00671 5.71565 1.0508 -2.10547 7.31128 1.05165 -2.17934 
2.94483 -0.581019 -2.19527 3.23073 0.144789 -2.14391 7.43655 0.950372 -2.23736 
0.267312 -1.42881 -2.18477 2.0982 0.926971 -2.41315 5.26522 1.04188 -2.63837 
5.7196 1.21382 -2.72337 6.70183 -1.5303 -2.40374 2.29196 0.062076 -2.73477 
6.37113 -1.53908 -2.60238 5.47803 1.12893 -3.11614 6.67162 1.1725 -3.05838 
1.61263 -0.557575 -3.0756 5.32378 0.889513 -3.3609 7.61464 -0.390876 -3.5187 
5.05437 0.488779 -3.79094 5.20152 0.502638 -3.79287 5.26939 0.317997 -3.77588 
7.11086 -0.668402 -3.69144 5.15533 0.193172 -3.96458 6.96555 -0.603856 -4.03165 
6.49139 -1.12549 -4.04775 6.9426 -0.755488 -4.08432 6.51986 -0.158883 -4.33923 
6.57371 -0.199298 -4.31336 6.62805 -0.223937 -4.28152 6.68223 -0.253829 -4.2492 
6.73648 -0.277883 -4.20998 6.78838 -0.319471 -4.17655 6.82989 -0.370809 -4.14216 
6.85435 -0.424642 -4.11987 6.88459 -0.479395 -4.09751 6.91342 -0.537569 -4.06987 
6.89985 -0.808994 -4.07913 6.87041 -0.862899 -4.07395 6.82572 -0.916347 -4.06876 
6.77104 -0.969497 -4.06355 6.71455 -1.02248 -4.05835 6.65801 -1.07354 -4.05332 
6.60182 -1.11274 -4.04941 6.54643 -1.12499 -4.04803 6.94997 -0.687369 -4.05849 
6.99733 -0.770346 -3.97901 7.05369 -0.732403 -3.84888 7.04608 -0.631938 -3.85577 
5.21237 0.255929 -3.86655 7.16583 -0.670046 -3.69152 7.22084 -0.67089 -3.68424 
7.27597 -0.668542 -3.66237 7.33149 -0.654072 -3.61933 7.38755 -0.621912 -3.5705 
7.44348 -0.593648 -3.52875 7.49972 -0.550454 -3.51071 7.55426 -0.498531 -3.50837 
7.597 -0.445134 -3.51355 5.2933 0.372784 -3.78111 5.26318 0.433061 -3.78662 
5.32251 0.257543 -3.83741 5.37599 0.208843 -3.90003 5.43027 0.187093 -3.96519 
5.48489 0.177096 -4.03145 5.53956 0.167898 -4.09034 5.59399 0.150349 -4.13357 
5.64813 0.121626 -4.15343 5.70307 0.119291 -4.16089 5.75879 0.142656 -4.16332 
5.81412 0.152885 -4.16451 5.86921 0.155193 -4.16496 5.9246 0.167452 -4.16635 
5.98074 0.20472 -4.17008 6.03693 0.24391 -4.17399 6.09275 0.270543 -4.16928 
6.14904 0.311913 -4.15107 6.20542 0.355254 -4.11074 6.26139 0.384199 -4.0616 
6.31747 0.417599 -4.02033 6.37328 0.442551 -3.99315 6.42921 0.471949 -3.97382 
6.4847 0.486279 -3.95309 6.54015 0.49981 -3.9397 6.59599 0.526596 -3.92758 
6.65141 0.538887 -3.90664 6.70661 0.542615 -3.87003 6.76174 0.544533 -3.83324 
6.81681 0.54496 -3.8112 6.87182 0.544007 -3.80391 6.92679 0.542254 -3.80398 
6.98171 0.538689 -3.80388 7.03633 0.525073 -3.80284 7.09044 0.494459 -3.80021 
7.14454 0.467053 -3.79787 7.19617 0.422016 -3.80132 7.23566 0.36659 -3.81118 
7.2498 0.308728 -3.83558 7.26201 0.250812 -3.85997 7.28749 0.191809 -3.89176 
7.29959 0.133897 -3.91615 7.31179 0.0759823 -3.94054 7.33923 0.0196856 -3.94283 
7.36161 -0.0343846 -3.92298 7.3912 -0.0859069 -3.87365 7.41569 -0.135893 -3.80956 
7.45537 -0.185642 -3.73811 7.49515 -0.235393 -3.66666 7.52158 -0.285437 -3.60257 
7.5632 -0.337319 -3.55326 5.27044 0.59647 -3.63828 5.31848 0.671074 -3.5165 
5.33451 0.735924 -3.43833 5.3341 0.804834 -3.3927 5.1201 0.492093 -3.79154 
7.67167 -0.326044 -3.39853 7.72682 -0.262538 -3.29312 7.77188 -0.200805 -3.20981 
7.80153 -0.139994 -3.14124 7.84253 -0.0802128 -3.08005 7.87168 -0.0207693 -3.02622 
7.86215 0.0391397 -2.97971 7.86397 0.0980174 -2.94059 7.87709 0.157249 -2.89412 
7.84985 0.217688 -2.84757 7.80274 0.278721 -2.801 7.76364 0.338821 -2.76183 
7.7495 0.398869 -2.71531 7.73549 0.459603 -2.66142 7.69821 0.521724 -2.60011 
7.65921 0.583897 -2.5388 7.63522 0.64493 -2.48489 7.60593 0.70543 -2.43835 
7.58177 0.765084 -2.3992 7.54067 0.825937 -2.35264 7.4895 0.887782 -2.29869 
5.39275 0.964905 -3.27897 5.44552 1.0402 -3.19698 5.26908 0.95671 -2.99992 
1.55809 -0.541447 -3.06944 1.50402 -0.510683 -3.04977 1.44958 -0.493034 -3.00655 
1.39486 -0.485327 -2.96239 1.33998 -0.481393 -2.94021 1.28497 -0.4799 -2.96243 
1.23016 -0.470536 -3.00772 1.1758 -0.445985 -3.05442 1.12114 -0.432619 -3.07775 
1.06654 -0.417872 -3.08634 1.0124 -0.388488 -3.08142 0.957878 -0.372801 -3.06033 
0.903207 -0.363174 -3.01637 0.848812 -0.344615 -2.96578 0.794889 -0.309859 -2.92417 
0.740807 -0.279688 -2.897 0.687231 -0.232519 -2.87143 0.634095 -0.174611 -2.83942 
0.583053 -0.114954 -2.80759 0.545794 -0.0569805 -2.79053 0.547244 -0.00154829 -2.7883 
0.583977 0.0521378 -2.79348 0.614604 0.106007 -2.79865 0.616904 0.161414 -2.79641 
0.647694 0.216661 -2.78682 0.68657 0.272358 -2.76989 0.702006 0.328063 -2.76029 
0.705628 0.384122 -2.75067 0.705533 0.440984 -2.73368 0.695327 0.500221 -2.69454 
0.66808 0.56066 -2.648 0.644049 0.620893 -2.60146 0.60286 0.679134 -2.5621 
0.551304 0.728207 -2.51439 0.497402 0.759216 -2.45754 0.44322 0.784171 -2.39269 
0.388113 0.777651 -2.31744 0.333132 0.775017 -2.23512 0.278125 0.771161 -2.14525 
0.222601 0.750629 -2.06868 0.16708 0.73134 -2.01456 0.110927 0.692291 -1.98835 
1.66923 -0.504483 -3.08082 1.72572 -0.451387 -3.08603 1.7804 -0.398237 -3.09124 
1.82512 -0.344098 -3.08906 1.85475 -0.288126 -3.07211 1.89963 -0.230536 -3.03306 
1.95453 -0.172552 -2.98663 2.01124 -0.114734 -2.94021 2.06798 -0.0594205 -2.901 
2.12445 -0.0134683 -2.85346 2.18041 0.015487 -2.80433 2.23644 0.0470649 -2.76289 
1.66606 -0.611234 -3.06337 1.71986 -0.65357 -3.03732 1.77423 -0.677627 -2.9981 
1.82844 -0.706721 -2.95841 1.8828 -0.730128 -2.93413 1.93698 -0.759262 -2.91676 
1.99166 -0.771496 -2.90096 2.04668 -0.77299 -2.87874 2.10174 -0.772672 -2.85669 
2.15684 -0.771554 -2.82727 2.21201 -0.769056 -2.78311 2.26721 -0.765757 -2.73157 
2.32243 -0.761338 -2.68758 2.37786 -0.749038 -2.66665 2.43366 -0.723051 -2.66188 
2.48903 -0.712032 -2.65571 2.54421 -0.707764 -2.63403 2.59973 -0.693293 -2.59099 
2.65574 -0.663054 -2.54197 2.71148 -0.64582 -2.48877 2.76958 -0.628214 -2.42669 
2.84233 -0.596573 -2.32877 6.72785 1.20757 -2.95775 6.78319 1.21351 -2.86182 
6.83905 1.23715 -2.77499 6.89465 1.25192 -2.68733 6.94964 1.24702 -2.61272 
7.00401 1.22204 -2.55109 7.05841 1.19887 -2.50451 7.11247 1.16142 -2.44668 
7.16786 1.12456 -2.37403 7.2315 1.09875 -2.28261 5.5626 1.19176 -2.96863 
5.63702 1.21578 -2.83728 5.38556 1.09858 -2.87731 6.31602 -1.53538 -2.72897 
6.26138 -1.51704 -2.84205 6.20641 -1.51113 -2.92421 6.15127 -1.5124 -2.97593 
6.0962 -1.51271 -2.99798 6.0412 -1.51165 -3.00529 5.98628 -1.50809 -3.00538 
5.93166 -1.49447 -3.00642 5.87755 -1.46396 -3.00905 5.82328 -1.43859 -3.01119 
5.76916 -1.40797 -3.01382 5.7146 -1.39243 -3.01505 5.66004 -1.37699 -3.01626 
5.60587 -1.3482 -3.01872 5.5513 -1.33276 -3.01993 5.49674 -1.31721 -3.02115 
5.44263 -1.2866 -3.02379 5.3884 -1.26043 -3.01856 5.33443 -1.22592 -2.99924 
5.28036 -1.19619 -2.95716 5.22649 -1.15961 -2.91571 5.17235 -1.13126 -2.88837 
5.1183 -1.09872 -2.89118 5.06412 -1.07052 -2.88615 5.01066 -1.02335 -2.86057 
4.95947 -0.962739 -2.79908 4.91835 -0.899921 -2.73038 4.89239 -0.837447 -2.66172 
4.85124 -0.77521 -2.60041 4.80022 -0.712678 -2.53909 4.74919 -0.650146 -2.47776 
4.70804 -0.588018 -2.41644 4.68199 -0.528155 -2.35498 4.64049 -0.477781 -2.29255 
4.58856 -0.442195 -2.2287 4.53546 -0.391475 -2.16627 4.48635 -0.33023 -2.09739 
4.4594 -0.265972 -2.00658 4.47661 -0.203222 -1.8786 4.50204 -0.159085 -1.71172 
4.54528 -0.156254 -1.52618 4.5987 -0.153724 -1.35553 4.6537 -0.157411 -1.22894 
4.70813 -0.181132 -1.15256 4.76252 -0.203849 -1.12091 4.81671 -0.234905 -1.10335 
4.87246 -0.257663 -1.0717 4.9361 -0.28235 -1.00271 6.37294 -1.55999 -2.407 
6.38722 -1.55822 -2.23611 6.42877 -1.54782 -2.11078 6.48235 -1.53143 -2.04558 
6.53801 -1.50613 -2.04819 6.59306 -1.50212 -2.11576 6.64755 -1.51358 -2.2414 
6.42684 -1.51099 -2.70197 6.48192 -1.5063 -2.76217 6.5366 -1.51777 -2.76133 
6.59106 -1.54004 -2.69251 6.64622 -1.54181 -2.5661 6.75656 -1.53671 -2.47777 
6.8116 -1.53205 -2.56029 6.86741 -1.50114 -2.6527 6.92363 -1.45709 -2.73146 
6.97996 -1.41086 -2.78811 7.036 -1.3717 -2.81433 7.08981 -1.34687 -2.83177 
7.13405 -1.30737 -2.85798 7.16334 -1.25964 -2.90721 7.20775 -1.21305 -2.96385 
7.26188 -1.17602 -3.01218 7.31742 -1.15386 -3.03681 7.37328 -1.12519 -3.04718 
7.42892 -1.10096 -3.04968 7.48324 -1.05978 -3.05377 7.52776 -1.00825 -3.05878 
7.55536 -0.954403 -3.06394 7.58806 -0.899905 -3.06174 7.61383 -0.843816 -3.04479 
7.64672 -0.785176 -2.99834 7.67464 -0.724312 -2.92975 7.71953 -0.661883 -2.83908 
7.7726 -0.599006 -2.74103 7.81576 -0.534451 -2.62823 7.83381 -0.468454 -2.508 
7.84986 -0.401705 -2.3804 7.87729 -0.335296 -2.25281 7.87935 -0.268821 -2.13257 
7.8544 -0.20292 -2.02704 7.83257 -0.139187 -1.94363 7.80359 -0.0766219 -1.87496 
7.78156 -0.0149569 -1.81368 7.75448 0.0468595 -1.75239 7.74426 0.108172 -1.69113 
7.74217 0.16855 -1.63725 7.72993 0.227848 -1.59811 7.69063 0.285881 -1.58106 
5.73014 1.14708 -2.55597 5.72896 1.09721 -2.35042 5.78953 1.27284 -2.63 
[...]
POINT_DATA 1042
SCALARS DY_raw double
LOOKUP_TABLE default
59.1932 65.238 59.4525 29.3904 26.2896 59.1923 73.3246 67.0707 46.9096 
29.705 42.5779 82.2948 39.3675 46.7514 46.8184 61.8435 62.2885 55.3209 
44.8323 98.4317 60.2355 64.904 41.1706 92.0237 63.7278 111.723 100.592 
80.4121 68.2963 58.33 60.8963 54.6024 53.9256 40.8584 42.9681 69.5066 
4.41204 26.213 75.8813 85.1139 38.4902 45.5241 63.3436 51.5893 33.4802 
104.062 84.6717 59.9842 53.5054 27.2457 49.7523 60.5222 41.749 83.3599 
51.5448 87.5633 49.5221 80.9472 45.4992 55.3017 51.384 52.7966 44.6278 
83.4882 62.4869 104.549 89.4402 76.2207 50.329 92.1676 46.2354 84.345 
92.8376 89.2694 103 87.1809 82.6702 67.3597 58.362 56.7249 49.7624 
62.2493 66.263 76.7033 63.8091 74.7857 78.855 65.447 73.1662 40.4068 
65.3049 55.8353 69.757 90.9557 70.8704 75.5353 59.3587 60.8456 67.2865 
49.0473 56.34 51.3235 44.6278 83.4302 72.9956 98.83 100.815 114.834 
107.039 93.1715 88.5994 87.9415 87.9415 90.0544 91.493 100.313 100.313 
90.3631 73.0707 84.1448 81.9871 65.1838 75.8566 86.7962 79.8169 67.5868 
80.2542 68.7202 62.6831 51.8314 65.6412 53.6195 49.6142 49.6142 51.5022 
52.9558 52.9558 52.0085 54.8922 52.8605 51.349 47.1162 39.9763 45.7999 
29.6962 37.6983 37.6983 28.9376 50.2383 58.2443 62.594 62.3575 54.8213 
44.3818 68.5187 56.019 58.6096 57.4489 70.4549 40.374 47.6068 55.8687 
42.9576 48.7695 41.5056 44.2587 45.0156 52.742 47.045 54.5894 56.199 
37.969 46.6357 52.8235 50.6492 66.1912 60.0387 58.8259 56.6992 47.2856 
56.7352 53.0528 84.1425 61.8288 61.8288 59.3827 58.4592 66.3521 54.1497 
52.265 50.4172 45.0057 48.968 47.8124 45.7944 48.8281 44.9177 42.2962 
47.5598 44.4791 39.8078 41.8309 43.6669 43.1726 43.1726 43.416 45.1437 
38.2331 44.3075 42.5743 42.5743 45.7097 45.7097 46.8931 52.5743 48.7336 
47.2236 47.0167 41.1553 48.2272 48.9102 54.7377 61.0318 60.6093 55.1597 
46.2727 46.2727 38.7476 34.5967 31.7773 43.4792 41.4007 51.5302 53.9198 
54.3857 63.4047 56.6029 43.6692 47.2105 51.3893 58.6813 53.1819 54.6684 
59.6137 56.091 43.7965 43.7965 43.114 49.7362 55.3689 48.0536 44.4944 
44.4944 51.0224 51.0224 55.4748 50.2373 59.4018 57.6526 62.0659 67.1266 
46.7217 51.0716 57.8009 59.1912 64.5095 64.5185 65.8444 61.5374 54.7326 
40.9095 81.312 71.65 60.766 47.4305 45.6568 47.8131 48.7564 48.7564 
50.384 56.51 66.6493 66.5931 71.7536 75.1965 75.1965 78.7092 81.4646 
81.4646 72.7013 70.2702 80.4368 94.8211 100.656 104.097 94.4972 83.847 
71.3972 59.1305 58.3794 55 53.5699 53.4282 49.9479 49.6232 44.3261 
47.0756 52.5406 54.8251 64.6835 82.6086 88.5053 93.3533 95.3141 101.573 
83.1338 89.1409 80.1185 86.7711 92.5781 58.7067 59.2239 60.4552 63.5901 
70.4486 83.1399 80.3294 77.4842 72.4699 67.589 68.0402 75.3885 68.5507 
60.453 57.3829 62.1722 58.2856 59.6776 59.3391 69.5844 62.4872 45.0921 
44.7216 49.8414 49.8414 55.5362 50.4312 46.7522 39.6275 42.9953 44.2657 
50.5635 67.0741 64.1763 73.7335 63.3095 72.5118 60.8687 57.2228 59.2266 
54.2357 46.3582 54.1342 43.7229 42.1119 56.6196 62.1783 64.957 62.0024 
58.4609 65.0224 55.9722 60.3548 63.7727 60.8898 55.4655 62.9152 96.2697 
86.0326 80.0763 71.7852 78.4169 67.6007 68.1463 79.399 76.5826 64.5112 
61.7038 58.1741 63.6016 63.451 61.4636 70.3139 73.3011 93.4545 97.6524 
96.2393 97.6383 88.564 99.7028 108.448 114.843 110.299 101 93.6529 
92.8743 57.0706 57.0493 48.7688 49.4167 50.1361 54.1975 52.8303 59.7687 
50.6597 44.6923 37.4234 32.3271 60.9 69.6606 56.7298 56.9618 65.3874 
60.3176 51.5145 59.4578 51.4713 57.7708 64.9423 39.8277 44.7686 36.244 
33.9364 39.8248 38.9332 36.3414 44.439 34.3342 39.6921 59.9651 48.9397 
48.9397 48.3711 50.4746 46.4772 47.9756 48.0631 54.0966 52.7209 55.012 
60.4292 59.6429 54.2439 52.3156 50.4242 41.5626 39.0598 65.9047 67.4006 
71.254 70.3598 72.3239 65.9224 51.7896 51.7896 48.4829 45.1989 54.2273 
57.9997 51.7201 45.7454 57.2645 57.3944 56.8262 61.0151 61.0151 60.6999 
56.4033 52.9234 59.4217 56.7838 51.2209 56.4133 50.7245 51.1606 62.2965 
48.3471 62.1778 66.2556 62.8222 59.0943 55.4512 41.5228 52.2988 44.6422 
46.4336 55 57.8852 61.2221 61.0561 62.1953 64.3169 64.7349 67.4237 
67.4237 68.4429 75.0281 74.965 71.4462 58.9242 55.6916 51.3017 55.0503 
40.5092 52.5318 40.2084 46.8924 61.1754 75.6181 78.036 66.091 81.153 
84.1864 84.968 88.1422 103.708 106.682 114.517 78.6005 87.3672 84.0673 
70.1181 72.918 93.6353 100.871 39.6594 35.0038 49.9949 63.8942 53.0336 
51.5487 50.0709 46.909 44.6776 41.7967 40.8217 40.634 31.7402 30.4035 
24.7852 25.7276 35.7807 35.7807 43.8502 48.5902 44.8693 48.4965 62.0482 
58.9052 45.5523 44.8873 36.6911 37.0936 36.0452 30.3617 30.7359 50.4585 
51.913 55.3638 52.332 54.0356 54.1373 54.8322 46.6985 42.092 50.494 
47.4697 49.6493 49.8884 49.8884 58.7308 55.0972 63.1462 59.9348 58.2467 
68.7171 62.5968 60.7486 51.032 51.3201 53.0966 46.3014 47.4543 49.7719 
51.0083 49.2445 54.1888 56.7154 60.8091 65.2931 59.7377 57.8132 60.5025 
64.9386 60.0998 54.0274 62.7802 51.0332 59.6114 70.4978 70.5388 75.0372 
74.3573 74.3573 70.5153 74.9773 64.8264 60.4825 62.1095 62.1095 70.2859 
58.8033 59.7274 75.8539 73.761 80.8837 36.8742 37.604 40.7591 38.7269 
48.6973 55.8601 47.5172 52.2109 48.4928 49.4592 48.7456 55.1633 58.4142 
59.7433 73.8798 78.7028 80.0596 78.1106 36.2873 44.7052 50.7924 56.3979 
57.5855 74.3185 58.9741 42.8024 39.9667 37.1431 42.1409 51.6672 51.6672 
46.3021 53.7291 59.2444 59.2444 67.0357 71.54 71.54 71.2426 65.7182 
65.7839 65.7839 62.2833 64.0081 64.0081 59.2233 34.8619 18.3943 18.108 
33.2215 49.3908 58.7454 60.4803 65.4937 70.6726 72.2519 63.683 64.6093 
79.0606 90.8694 60.8333 70.6934 85.7456 85.7456 79.1751 72.2019 61.2974 
60.7437 98.8751 76.5474 70.4819 92.4914 91.2421 91.2421 83.8446 78.8867 
78.8867 57.9682 63.7168 56.3329 41.1817 37.3781 43.9325 44.8455 69.8255 
64.5579 80.7368 90.8504 89.819 69.7593 38.7876 33.8453 29.4235 34.4879 
32.8352 41.5147 41.995 43.8546 47.173 49.2915 53.4283 51.7218 52.3699 
48.9713 27.5137 23.2825 27.1541 23.6932 29.6122 30.8398 34.0257 27.9987 
35.3403 44.1323 49.1625 52.3451 39.611 36.255 46.0145 41.382 41.9877 
47.5504 40.3322 33.026 48.3382 46.3141 40.5166 40.8584 49.3143 50.2648 
56.1502 59.5767 65.2108 60.4358 73.4999 65.2751 70.0963 81.3069 67.7529 
58.4311 58.4311 57.0774 61.846 62.2943 49.1474 49.1474 52.0603 59.0911 
59.0911 71.1247 66.2315 66.2315 62.0579 75.47 86.837 85.4897 85.4897 
77.8999 63.9028 63.9028 66.3906 69.7723 74.1755 57.7088 49.7848 45.1229 
48.2396 54.7188 62.3896 64.3756 67.7945 64.7245 73.4099 58.8399 61.6572 
71.9632 66.7405 59.8587 65.1329 60.0852 60.0852 68.09 73.2371 65.9044 
92.4372 77.955 81.1017 85.5181 88.661 73.4347 77.9225 90.5048 95.9898 
63.5474 39.0935 42.726 53.1265 53.1265 51.5574 53.6287 48.0899 58.5571 
64.0586 65.8168 68.1911 66.2677 71.2996 70.5365 70.3168 65.326 67.1785 
59.4826 72.8224 62.3773 70.4661 84.8199 59.3301 67.7247 56.7396 41.4894 
36.1511 39.6427 49.0437 79.7828 74.5276 74.6829 76.5497 75.5899 59.7544 
59.7544 67.5805 56.3556 61.1618 65.2751 62.4429 57.5594 75.3291 74.973 
60.0351 61.4951 61.4951 54.6576 61.7368 63.9629 58.9219 57.3509 57.3509 
56.6724 56.6724 67.4869 58.5775 58.5775 53.2959 35.7747 35.7747 35.0052 
39.5583 45.2445 48.5654 52.2416 51.6667 55.8844 57.8142 50.0696 51.8292 
38.909 37.6406 39.9263 40.63 40.2484 38.9289 32.4942 34.3946 33.9292 
33.3868 33.7618 32.5893 35.452 36.6054 33.7885 37.8305 36.3258 29.7605 
31.1179 56.9487 59.1778 52.9842 51.3716 92.9682 39.303 43.7154 40.0415 
41.585 42.8218 37.3236 38.5103 35.024 32.391 36.136 39.4221 39.4221 
33.3983 30.815 30.815 37.5217 45.491 47.1901 44.1235 44.1235 48.3359 
48.5616 48.5616 46.4575 46.3511 46.3511 53.987 48.88 59.5765 53.5511 
57.4723 54.4678 50.843 54.348 60.1993 58.3049 58.3049 38.6254 66.9193 
73.0301 56.1217 58.1076 68.4004 68.4004 60.8299 61.888 67.1835 69.2164 
67.2322 58.4396 52.2889 60.741 64.4411 69.8994 82.6372 75.479 64.5473 
64.5473 75.9252 84.4265 64.3183 67.1183 67.1183 73.2287 67.8664 67.8664 
62.9728 54.8426 53.424 60.6174 61.6887 75.6405 80.4379 80.6261 80.6261 
77.2136 73.6808 66.8614 65.31 58.1407 64.0784 51.6289 55.6857 56.3691 
62.7625 62.7625 68.1172 72.4862 72.4862 72.1993 75.1478 73.3001 74.2058 
67.745 70.6251 62.3473 63.0371 61.0763 64.872 46.4625 40.957 37.9997 
48.5179 51.8443 48.7165 47.3544 47.3544 72.4144 65.1821 58.8013 57.7128 
54.3414 55.6738 53.5178 25.2295 27.0073 35.859 33.562 31.7792 22.5924 
22.4104 21.8476 32.0153 30.9077 31.2714 56.1431 49.4515 
FIELD FieldData 7
DY_minmax 1 1042 double
0.496067 0.550805 0.498415 0.226189 0.198111 0.496059 0.624033 0.567401 0.384834 
0.229039 0.345609 0.705261 0.316537 0.383401 0.384008 0.520066 0.524096 0.461001 
0.366023 0.851388 0.505506 0.547781 0.332864 0.793361 0.537129 0.971746 0.870952 
0.688213 0.578499 0.48825 0.511489 0.454495 0.448367 0.330037 0.349141 0.589459 
0 0.197417 0.647185 0.73079 0.308592 0.372287 0.533651 0.427211 0.263224 
0.902371 0.726785 0.503229 0.444561 0.206769 0.410576 0.508102 0.338102 0.714906 
0.426807 0.75297 0.408491 0.693058 0.372062 0.460827 0.425351 0.438143 0.364171 
0.716068 0.525893 0.906785 0.769967 0.650258 0.415797 0.794664 0.378729 0.723827 
0.800731 0.76842 0.892758 0.749508 0.708661 0.570018 0.48854 0.473715 0.410667 
0.523741 0.560087 0.654628 0.537865 0.637264 0.674112 0.552698 0.622598 0.325948 
0.551411 0.465659 0.591727 0.78369 0.601809 0.644052 0.497566 0.51103 0.569355 
0.404191 0.47023 0.424803 0.364171 0.715543 0.621054 0.854995 0.872973 0.999917 
0.92933 0.803754 0.762353 0.756395 0.756395 0.775528 0.788556 0.868423 0.868423 
0.778324 0.621734 0.722014 0.702475 0.550314 0.646961 0.746024 0.682823 0.572074 
0.686783 0.582338 0.52767 0.429403 0.554456 0.445594 0.409325 0.409325 0.426422 
0.439585 0.439585 0.431006 0.45712 0.438721 0.425034 0.386704 0.322049 0.374785 
0.228959 0.301421 0.301421 0.22209 0.414976 0.487474 0.526863 0.524721 0.456478 
0.361943 0.580514 0.467323 0.490782 0.480271 0.598046 0.325651 0.391147 0.465962 
0.349046 0.401676 0.335898 0.360829 0.367683 0.437649 0.386059 0.454377 0.468953 
0.303872 0.382354 0.438386 0.418697 0.559436 0.503723 0.492741 0.473483 0.388239 
0.473808 0.440463 0.721993 0.519933 0.519933 0.497782 0.48942 0.560894 0.450396 
0.433329 0.416596 0.367593 0.403474 0.393008 0.374735 0.402206 0.366796 0.343057 
0.390721 0.362824 0.320524 0.338844 0.35547 0.350993 0.350993 0.353197 0.368843 
0.306264 0.36127 0.345576 0.345576 0.373968 0.373968 0.384684 0.43613 0.401351 
0.387677 0.385803 0.332726 0.396765 0.40295 0.45572 0.512716 0.50889 0.459541 
0.379066 0.379066 0.310923 0.273335 0.247805 0.35377 0.334948 0.426675 0.448314 
0.452532 0.534203 0.47261 0.355491 0.387559 0.425399 0.491431 0.441632 0.455093 
0.499875 0.467975 0.356643 0.356643 0.350463 0.410429 0.461436 0.395193 0.362963 
0.362963 0.422077 0.422077 0.462395 0.414968 0.497956 0.482116 0.522081 0.567907 
0.383132 0.422522 0.483459 0.496049 0.544208 0.54429 0.556296 0.517294 0.455674 
0.3305 0.696362 0.608868 0.510309 0.389551 0.373489 0.393015 0.401557 0.401557 
0.416295 0.471769 0.563585 0.563076 0.609806 0.640983 0.640983 0.672793 0.697744 
0.697744 0.618388 0.596374 0.688436 0.818692 0.871535 0.902686 0.81576 0.719317 
0.606579 0.495499 0.488697 0.458095 0.445145 0.443862 0.412346 0.409406 0.361439 
0.386337 0.435825 0.456512 0.545784 0.708104 0.761501 0.805401 0.823157 0.87983 
0.712859 0.767256 0.685554 0.745796 0.798381 0.491662 0.496345 0.507495 0.535882 
0.597989 0.712914 0.687464 0.661699 0.616293 0.572094 0.57618 0.642722 0.580803 
0.507475 0.479674 0.523043 0.487848 0.500453 0.497388 0.590164 0.525895 0.368376 
0.36502 0.411382 0.411382 0.462951 0.416723 0.383408 0.318891 0.349388 0.360892 
0.417922 0.567431 0.541191 0.627735 0.533342 0.616672 0.511239 0.478224 0.496369 
0.451175 0.379841 0.450256 0.355976 0.341388 0.472762 0.523098 0.54826 0.521505 
0.489436 0.548852 0.466899 0.506585 0.537536 0.51143 0.462311 0.529771 0.83181 
0.739109 0.685172 0.610092 0.670146 0.572201 0.577141 0.679039 0.653535 0.544223 
0.518801 0.486838 0.535987 0.534623 0.516626 0.596769 0.62382 0.806318 0.844331 
0.831535 0.844204 0.762032 0.862898 0.94209 1 0.958851 0.874646 0.808114 
0.801063 0.476846 0.476653 0.401669 0.407536 0.414051 0.450828 0.438448 0.501278 
0.418792 0.364755 0.298932 0.252782 0.511523 0.590853 0.47376 0.475861 0.552158 
0.506248 0.426533 0.498463 0.426141 0.483187 0.548127 0.320704 0.365446 0.288252 
0.267355 0.320678 0.312604 0.289134 0.362461 0.270958 0.319476 0.503057 0.403217 
0.403217 0.398068 0.417116 0.380918 0.394487 0.395279 0.449915 0.437457 0.458204 
0.507259 0.500139 0.451249 0.433787 0.416659 0.336414 0.31375 0.556842 0.570388 
0.605283 0.597186 0.614971 0.557002 0.429024 0.429024 0.399081 0.369342 0.451098 
0.485259 0.428394 0.374291 0.478602 0.479778 0.474633 0.512565 0.512565 0.509711 
0.470803 0.439291 0.498136 0.474249 0.423874 0.470893 0.419379 0.423328 0.524168 
0.397851 0.523093 0.560019 0.528929 0.495171 0.462182 0.336053 0.433635 0.364301 
0.380523 0.458096 0.484222 0.514439 0.512936 0.523252 0.542464 0.546249 0.570597 
0.570597 0.579827 0.639459 0.638887 0.607023 0.493631 0.464359 0.424605 0.458551 
0.326875 0.435745 0.324152 0.384678 0.514016 0.644802 0.666697 0.55853 0.694922 
0.722391 0.729468 0.758212 0.899163 0.926094 0.99705 0.671808 0.751194 0.721313 
0.594996 0.620351 0.807955 0.873474 0.31918 0.277021 0.412772 0.538637 0.440289 
0.426842 0.413461 0.384828 0.364622 0.338534 0.329705 0.328005 0.247469 0.235364 
0.184488 0.193021 0.284057 0.284057 0.35713 0.400052 0.366358 0.399203 0.52192 
0.493459 0.372542 0.366521 0.2923 0.295945 0.286452 0.234986 0.238374 0.416971 
0.430141 0.46139 0.433935 0.449362 0.450284 0.456576 0.382922 0.341209 0.417292 
0.389905 0.409643 0.411807 0.411807 0.491879 0.458976 0.531863 0.502783 0.487496 
0.58231 0.526887 0.510152 0.422163 0.424772 0.440859 0.379326 0.389766 0.410753 
0.421949 0.405977 0.45075 0.473629 0.510699 0.551304 0.500997 0.48357 0.507923 
0.548094 0.504276 0.449288 0.528549 0.422175 0.499854 0.598435 0.598806 0.639541 
0.633384 0.633384 0.598594 0.638998 0.547078 0.507742 0.522475 0.522475 0.596516 
0.492536 0.500904 0.646936 0.627984 0.692484 0.293959 0.300567 0.329138 0.310735 
0.401022 0.465884 0.390335 0.432839 0.399171 0.407921 0.401459 0.459574 0.489013 
0.501048 0.629061 0.672734 0.685021 0.667372 0.288644 0.364872 0.419994 0.470754 
0.481508 0.633033 0.494082 0.347641 0.321962 0.296394 0.341651 0.427916 0.427916 
0.379332 0.446587 0.49653 0.49653 0.567084 0.607872 0.607872 0.605179 0.555153 
0.555749 0.555749 0.524049 0.539668 0.539668 0.49634 0.275737 0.126615 0.124023 
0.260882 0.407302 0.492012 0.507722 0.55312 0.600017 0.614319 0.536724 0.545112 
0.675975 0.782909 0.510919 0.600206 0.73651 0.73651 0.677011 0.613866 0.515122 
0.510107 0.855403 0.653217 0.598291 0.797596 0.786284 0.786284 0.719295 0.674399 
0.674399 0.484974 0.53703 0.470166 0.332965 0.298522 0.357874 0.366142 0.592347 
0.544646 0.691153 0.782737 0.773396 0.591748 0.311286 0.266531 0.226489 0.27235 
0.257384 0.335981 0.340329 0.35717 0.387219 0.406403 0.443863 0.42841 0.434279 
0.403503 0.209195 0.17088 0.205939 0.174599 0.228198 0.239315 0.268165 0.213588 
0.280069 0.359684 0.405235 0.434054 0.318741 0.288351 0.376728 0.334779 0.340264 
0.390636 0.325272 0.259112 0.39777 0.379441 0.326942 0.330037 0.406609 0.415216 
0.468512 0.499539 0.550559 0.507319 0.62562 0.551141 0.594799 0.696315 0.573579 
0.489166 0.489166 0.476907 0.520089 0.524149 0.405098 0.405098 0.431475 0.495142 
0.495142 0.604112 0.559801 0.559801 0.522008 0.64346 0.746393 0.734192 0.734192 
0.665464 0.538714 0.538714 0.561243 0.591865 0.631738 0.482625 0.410869 0.368654 
0.396877 0.455549 0.525011 0.542995 0.573955 0.546155 0.624805 0.492868 0.518379 
0.611705 0.564411 0.502093 0.549853 0.504144 0.504144 0.576631 0.62324 0.55684 
0.797106 0.665963 0.694458 0.73445 0.76291 0.625029 0.665668 0.779607 0.829276 
0.535496 0.314056 0.346949 0.441131 0.441131 0.426921 0.445678 0.395522 0.490307 
0.540125 0.556046 0.577547 0.560129 0.605695 0.598785 0.596796 0.551602 0.568377 
0.498687 0.619485 0.5249 0.598148 0.728128 0.497306 0.573323 0.473849 0.335752 
0.287411 0.319029 0.404158 0.682514 0.634927 0.636333 0.653237 0.644546 0.501149 
0.501149 0.572017 0.470371 0.513894 0.551141 0.525494 0.481272 0.642184 0.638959 
0.50369 0.516911 0.516911 0.454995 0.5191 0.539258 0.49361 0.479384 0.479384 
0.47324 0.47324 0.57117 0.490491 0.490491 0.442664 0.284002 0.284002 0.277035 
0.318265 0.369755 0.399828 0.433117 0.427912 0.466105 0.483579 0.413448 0.429383 
0.312385 0.300899 0.321597 0.327969 0.324514 0.312565 0.254296 0.271505 0.26729 
0.262378 0.265774 0.255157 0.28108 0.291525 0.266017 0.302618 0.288993 0.229541 
0.241833 0.475741 0.495927 0.439842 0.425239 0.801914 0.315952 0.355909 0.32264 
0.336617 0.347817 0.298028 0.308774 0.277204 0.253362 0.287274 0.317031 0.317031 
0.262483 0.23909 0.23909 0.299822 0.371987 0.387374 0.359604 0.359604 0.397749 
0.399794 0.399794 0.380739 0.379776 0.379776 0.448922 0.402676 0.499538 0.444975 
0.480483 0.453276 0.420452 0.452192 0.505178 0.488023 0.488023 0.309816 0.56603 
0.621366 0.468253 0.486236 0.579442 0.579442 0.510887 0.520469 0.568423 0.586831 
0.568863 0.489242 0.433545 0.510083 0.543588 0.593016 0.708362 0.643542 0.54455 
0.54455 0.647583 0.724565 0.542477 0.567832 0.567832 0.623165 0.574606 0.574606 
0.530293 0.45667 0.443824 0.508964 0.518664 0.645004 0.688447 0.690151 0.690151 
0.659249 0.627258 0.565506 0.551457 0.486535 0.540304 0.427569 0.464305 0.470493 
0.528388 0.528388 0.576878 0.616441 0.616441 0.613842 0.640543 0.623811 0.632012 
0.573507 0.599588 0.524629 0.530875 0.513119 0.54749 0.380785 0.33093 0.304151 
0.399397 0.429519 0.401196 0.388861 0.388861 0.61579 0.550299 0.492518 0.482661 
0.452132 0.464197 0.444673 0.188511 0.20461 0.284766 0.263965 0.247822 0.164631 
0.162983 0.157887 0.24996 0.23993 0.243223 0.468447 0.407851 
WidthEq 1 1042 double
2.64853 5.56831 5.46226 3.33256 3.42511 6.3602 5.66583 7.52437 4.31756 
3.0983 3.77649 7.44488 2.29974 4.19014 4.75486 7.559 4.96407 7.93254 
4.70966 6.25942 8.12137 9.06977 8.3199 4.59539 8.84552 2.42166 3.11182 
4.25974 4.12577 7.79728 8.86302 6.49853 3.82888 6.01921 6.77492 7.21521 
2.02967 2.65421 2.26795 3.10519 7.68884 2.91878 2.73942 7.98876 6.06702 
5.19235 6.72108 3.36764 5.30143 4.42546 3.61702 6.79973 1.51129 5.46336 
6.42131 3.9363 4.29111 2.81721 4.75009 5.83409 6.13041 5.26199 4.74872 
1.96333 3.23068 3.60266 3.40591 2.15906 4.42956 2.04199 4.43221 1 
2.32573 3.25739 3.0013 4.03431 4.59603 4.99787 4.79362 4.65942 4.52219 
4.49427 4.43603 4.03666 4.26671 3.76402 3.69571 3.92019 3.40492 4.46002 
4.1745 4.09607 4.01931 3.33036 3.74098 3.47619 3.79194 4.01976 4.02673 
4.45274 4.27467 4.59838 4.74872 3.69033 3.67495 3.69215 3.60565 3.41428 
3.3748 3.72083 3.90629 3.98998 3.98998 4.10857 4.32279 4.21147 4.21147 
4.39455 4.59137 4.16419 3.79175 4.27691 3.94831 3.71693 3.73511 4.04303 
3.78603 4.1188 4.23902 4.40572 4.18556 4.28604 4.33817 4.33817 4.37738 
4.39546 4.39546 4.1773 4.43751 4.32677 3.9585 4.04458 3.69006 3.57523 
3.57841 3.67271 3.67271 3.60137 3.63179 3.41038 3.26637 3.52203 3.65013 
4.51908 4.02408 4.59656 5.21902 5.43187 2.60841 4.54587 4.13229 3.94774 
3.60717 3.53018 3.53916 3.28421 3.17945 3.12986 3.09799 3.06113 3.05192 
3.01206 3.04048 2.99498 3.02029 2.94171 2.86957 2.9663 3.10648 3.39162 
5.46953 4.78684 5.36144 6.0987 6.0987 5.9301 5.64488 5.21739 5.60862 
5.90251 6.00678 6.06001 5.72281 5.6911 5.61499 5.19527 5.23168 5.37152 
5.48079 6.1675 6.77518 7.34588 7.41442 7.39972 7.39972 6.78564 6.45283 
6.2013 6.06342 6.20785 6.20785 6.54357 6.54357 6.48678 6.63337 6.3608 
5.9501 5.34481 5.90896 5.76055 6.20126 6.18614 5.86391 6.64527 7.27697 
5.29199 5.29199 3.89534 4.23148 4.47032 5.54989 5.96814 6.07479 6.62363 
6.86918 6.23274 5.40494 6.3602 6.38088 5.95757 5.70667 5.76559 6.35861 
6.05842 6.38596 7.14978 7.14978 7.70017 7.38366 6.78079 7.32255 7.40442 
7.40442 6.51626 6.51626 6.19444 5.88198 5.5824 5.5929 5.66841 5.60873 
5.25505 5.15541 4.61437 3.66532 3.83703 3.45304 3.17301 3.13167 4.73804 