# vtk DataFile Version 3.0
vtk output
ASCII
DATASET POLYDATA
POINTS 611 float
1.35507 0.281875 1.48108 1.17031 0.112646 1.25119 1.20331 0.577437 1.27727 
0.0709197 0.332874 0.805411 2.43157 0.104745 1.18784 2.19369 0.94088 1.20213 
2.52149 0.643044 1.22373 0.415071 0.894311 0.803178 2.07338 -0.868965 0.900031 
1.64915 -0.291099 0.881381 2.78933 0.0143559 0.954172 2.93067 0.548698 0.995511 
-0.146987 0.325731 0.512561 1.86627 1.92329 0.810792 1.63224 -1.12402 0.436408 
2.76126 -0.810193 0.374092 -0.189048 0.0160498 -0.178471 0.725568 -0.836979 -0.0521308 
0.659246 -0.976378 -0.267582 -0.200275 0.569648 -0.287237 3.80722 1.31274 0.188647 
1.2264 -0.930863 -0.404549 3.59215 1.26267 -0.0388181 0.763721 -1.00286 -0.90198 
1.20139 -1.0345 -0.613737 -0.0500605 0.809997 -0.863432 0.936674 1.78986 -0.506316 
0.523426 -0.885645 -1.0167 2.48992 1.52582 -0.549981 2.67167 1.90128 -0.511884 
4.1151 0.26169 -0.723605 3.53092 1.42726 -0.57474 3.62736 0.320178 -0.684799 
2.83671 1.74407 -0.702794 4.7952 0.386082 -0.553399 0.701898 1.41336 -1.15459 
3.83635 0.682612 -0.912922 0.175767 -0.287365 -1.49597 0.142648 0.338291 -1.46937 
3.77626 0.151578 -1.34805 0.645506 0.769775 -2.04078 0.863734 1.16212 -1.75326 
1.33727 0.981174 -1.91145 3.14131 -0.665211 -1.99438 1.54082 1.36622 -2.07193 
0.766701 0.541356 -2.39821 1.77198 1.04815 -2.26335 3.18511 -0.345755 -2.17557 
3.44679 -0.482725 -2.15346 2.06116 1.29851 -2.21951 2.29253 1.2807 -2.19497 
2.21541 1.28664 -2.20315 2.13829 1.29258 -2.21133 1.99776 1.29365 -2.25655 
1.95353 1.26906 -2.30735 1.92431 1.22829 -2.36476 1.90459 1.17385 -2.40685 
1.87023 1.1287 -2.40535 1.82372 1.08862 -2.35271 2.05536 1.371 -2.1122 
2.0464 1.44198 -1.97546 2.03546 1.51008 -1.80924 2.03155 1.56871 -1.63524 
2.04807 1.60613 -1.47495 2.07966 1.62714 -1.32126 2.12217 1.63248 -1.16712 
2.1529 1.63208 -1.00709 2.1761 1.60189 -0.864257 2.2008 1.55862 -0.744266 
2.23823 1.52225 -0.659851 2.29914 1.50483 -0.601784 2.37098 1.49805 -0.571845 
2.43819 1.5022 -0.556803 3.51019 -0.477868 -2.11642 3.55369 -0.453712 -2.05826 
3.58248 -0.415034 -1.98608 3.60467 -0.369957 -1.90686 3.64243 -0.339121 -1.84901 
3.66777 -0.292539 -1.7992 3.69921 -0.250462 -1.76388 3.73477 -0.213185 -1.72833 
3.76531 -0.167463 -1.70785 3.77778 -0.101462 -1.68339 3.7798 -0.0265125 -1.62981 
3.77719 0.0550569 -1.51425 3.13793 -0.386349 -2.11556 3.09933 -0.43547 -2.06249 
3.08143 -0.503156 -2.02297 3.08267 -0.571063 -2.00373 3.10711 -0.622113 -1.99605 
1.70696 1.06457 -2.2697 1.66147 1.09823 -2.2656 1.63211 1.14654 -2.24411 
1.62067 1.2114 -2.19748 1.60849 1.27597 -2.14346 1.57824 1.32455 -2.09968 
1.78578 0.984299 -2.33207 1.81683 0.936074 -2.38322 1.85425 0.894397 -2.41096 
1.88845 0.851299 -2.40929 1.91393 0.800658 -2.40894 1.92263 0.735143 -2.41861 
1.939 0.675579 -2.44207 1.97595 0.634174 -2.45494 1.99077 0.573965 -2.46368 
2.00012 0.509356 -2.46578 2.03464 0.466537 -2.46406 2.09079 0.44244 -2.45906 
2.14596 0.417504 -2.45421 2.21398 0.403829 -2.4474 2.28839 0.398102 -2.43951 
2.3576 0.401216 -2.43176 2.41664 0.417632 -2.43194 2.48059 0.430921 -2.44666 
2.54153 0.450305 -2.47634 2.60496 0.465497 -2.49848 2.65418 0.492057 -2.49179 
2.69485 0.523391 -2.45597 2.74122 0.546786 -2.41245 2.80549 0.551924 -2.38276 
2.87138 0.557772 -2.36778 2.92179 0.582945 -2.36103 2.96569 0.6157 -2.35463 
3.0149 0.642261 -2.34795 3.0751 0.656031 -2.34067 3.13194 0.673721 -2.33358 
3.19221 0.687407 -2.3263 3.2418 0.712232 -2.31219 3.28978 0.736347 -2.28338 
3.34527 0.747825 -2.23197 3.39698 0.761118 -2.16597 3.45893 0.761188 -2.09202 
3.52547 0.754626 -2.01043 3.58587 0.753902 -1.92176 3.63487 0.763879 -1.81891 
3.69284 0.761933 -1.70819 3.75292 0.749955 -1.57038 3.80131 0.728885 -1.39698 
3.82431 0.698615 -1.1721 0.741604 0.619172 -2.22402 1.4546 1.36591 -1.98442 
1.38004 1.35849 -1.93328 1.32676 1.33407 -1.92539 1.27871 1.31004 -1.95421 
1.22167 1.29778 -1.99091 1.16806 1.28151 -2.02742 1.10786 1.26774 -2.03469 
1.05461 1.2394 -2.00461 1.00183 1.20274 -1.93011 0.940929 1.17294 -1.84125 
1.53722 1.43744 -1.97189 1.54374 1.50077 -1.89352 1.57023 1.54471 -1.83626 
1.6025 1.58064 -1.7713 1.62703 1.6217 -1.68456 1.63727 1.67421 -1.56899 
1.64814 1.7234 -1.43859 1.65033 1.78269 -1.30865 1.66176 1.83381 -1.19302 
1.7008 1.85667 -1.0981 1.73404 1.88889 -1.01829 1.75993 1.92965 -0.938877 
1.81139 1.93935 -0.850685 1.87623 1.93216 -0.754396 1.94514 1.92284 -0.67267 
2.01661 1.91441 -0.613009 2.09124 1.9075 -0.582771 2.16622 1.90275 -0.567305 
2.23432 1.90733 -0.559607 2.28606 1.93095 -0.552786 2.33779 1.95458 -0.545964 
2.40589 1.95915 -0.538267 2.4816 1.95469 -0.53017 2.55712 1.94751 -0.522226 
2.62383 1.93257 -0.515624 0.842011 0.690439 -2.10671 0.947716 0.64719 -2.16486 
1.01939 0.641144 -2.20311 1.07908 0.655084 -2.20921 1.14496 0.660777 -2.19424 
1.20147 0.674951 -2.16497 1.23124 0.721568 -2.14453 1.25548 0.774621 -2.12438 
1.26779 0.840269 -2.09748 1.2788 0.903547 -2.04845 1.30462 0.946977 -1.98383 
0.667926 0.879289 -1.91526 0.698228 0.939377 -1.82749 0.735299 0.977569 -1.78533 
0.775539 1.01321 -1.77014 0.815522 1.05052 -1.76395 0.847809 1.09679 -1.75817 
0.497438 0.73169 -1.94111 0.413087 0.692862 -1.86325 0.360573 0.654395 -1.81226 
0.31444 0.614608 -1.76542 0.275237 0.567317 -1.71978 0.24597 0.508457 -1.67362 
0.208103 0.459612 -1.62791 0.168999 0.408322 -1.56008 0.808544 1.19598 -1.56371 
0.764573 1.23851 -1.39489 0.74432 1.29953 -1.26734 0.729804 1.3631 -1.19126 
3.85306 0.138212 -1.1811 3.91396 0.134472 -1.03616 3.96363 0.148547 -0.921432 
4.02971 0.179467 -0.820679 3.73022 0.222388 -1.2129 3.70309 0.275264 -1.05666 
3.6739 0.29694 -0.877271 3.92311 0.65214 -0.87254 3.96751 0.606699 -0.847481 
3.98548 0.548559 -0.830903 4.01906 0.505598 -0.80774 4.06917 0.473539 -0.772293 
4.10269 0.40273 -0.742193 0.0542935 0.339167 -1.37459 -0.0359495 0.337378 -1.25028 
-0.119931 0.329033 -1.09578 -0.175757 0.322961 -0.93061 -0.192665 0.356796 -0.774156 
-0.187393 0.403949 -0.622097 -0.190483 0.47444 -0.462355 0.137956 0.261182 -1.48108 
0.134152 0.184499 -1.50011 0.133331 0.10971 -1.53366 0.139289 0.0411339 -1.5587 
0.157194 -0.0167556 -1.57446 0.167985 -0.0794295 -1.56138 0.181852 -0.139096 -1.54036 
0.182157 -0.21016 -1.51392 0.18221 -0.354491 -1.49851 0.20616 -0.406459 -1.49839 
0.230671 -0.457599 -1.4907 0.243644 -0.518039 -1.46982 0.265657 -0.569623 -1.42514 
0.293642 -0.61535 -1.36459 0.323552 -0.659065 -1.29627 0.361049 -0.696213 -1.2268 
0.410487 -0.723345 -1.16051 0.449704 -0.761373 -1.10334 0.484675 -0.813954 -1.05728 
0.0807982 -0.287946 -1.31245 0.00455093 -0.273349 -1.14853 -0.0358724 -0.229457 -1.01655 
-0.0740343 -0.184981 -0.914146 -0.109854 -0.138301 -0.806403 -0.132023 -0.0785874 -0.651764 
-0.15541 -0.0222595 -0.43526 3.83965 0.776847 -0.875676 3.84392 0.860029 -0.856261 
3.8493 0.937718 -0.864354 3.84889 1.00817 -0.903266 3.83002 1.06179 -0.962431 
3.8022 1.10766 -1.02295 3.7714 1.15164 -1.06898 3.73866 1.1953 -1.08538 
3.71018 1.24404 -1.07123 3.68876 1.30078 -1.01613 3.6507 1.346 -0.91865 
3.59638 1.38499 -0.766055 3.75179 0.635099 -0.795181 3.68441 0.600054 -0.714745 
3.62879 0.571965 -0.682426 3.60536 0.513703 -0.677862 3.5988 0.440583 -0.682116 
3.60358 0.37229 -0.684892 0.633443 1.42086 -1.22889 0.57187 1.41906 -1.29542 
0.526313 1.39601 -1.34629 0.48616 1.36278 -1.37469 0.446849 1.32599 -1.38824 
0.413298 1.28118 -1.39409 0.389684 1.22481 -1.39941 0.357397 1.17854 -1.40519 
0.32511 1.13226 -1.41097 0.301496 1.07589 -1.41629 0.26721 1.03065 -1.41477 
0.225182 0.990537 -1.39149 0.183464 0.942152 -1.3238 0.142971 0.880922 -1.20437 
0.0698879 0.835442 -1.043 0.713785 1.47691 -1.11291 0.738806 1.51999 -1.04094 
0.768291 1.55268 -0.939131 0.798155 1.58363 -0.829913 0.828521 1.6166 -0.735459 
0.853996 1.65784 -0.656058 0.871215 1.7113 -0.5919 0.899921 1.75397 -0.541928 
4.75073 0.365654 -0.626417 4.68506 0.362147 -0.656176 4.60684 0.365469 -0.642223 
4.52582 0.36946 -0.61362 4.44673 0.372511 -0.592313 4.37517 0.368305 -0.581307 
4.313 0.34997 -0.587357 4.23072 0.323786 -0.634961 3.50048 1.50649 -0.606584 
3.44962 1.54634 -0.632621 3.39762 1.57537 -0.646878 3.34024 1.59837 -0.654553 
3.29395 1.631 -0.65806 3.24765 1.66362 -0.661566 3.18989 1.68632 -0.66681 
3.13463 1.71118 -0.671676 3.06655 1.72494 -0.678486 2.99088 1.73213 -0.686446 
2.91384 1.73814 -0.694614 2.78668 1.72192 -0.709359 2.72979 1.72739 -0.707877 
2.69208 1.76612 -0.680303 2.67836 1.8299 -0.611588 2.81316 1.8036 -0.545829 
2.77572 1.84836 -0.450796 2.73023 1.88202 -0.4467 3.63347 0.26032 -0.522893 
3.62538 0.186797 -0.393038 3.62132 0.115051 -0.29997 3.63704 0.0595407 -0.226316 
3.65311 0.0060498 -0.167451 3.64542 -0.0554972 -0.126512 3.62139 -0.11217 -0.109509 
3.60734 -0.180799 -0.106905 3.60006 -0.254898 -0.118748 3.58788 -0.320706 -0.145644 
3.56177 -0.366393 -0.195478 3.53527 -0.410338 -0.252742 3.51777 -0.466049 -0.302115 
3.49447 -0.518906 -0.329606 3.47411 -0.577774 -0.342149 3.4484 -0.631697 -0.347578 
3.42678 -0.689102 -0.360188 3.39572 -0.732921 -0.388095 3.36051 -0.768018 -0.438415 
3.32493 -0.801378 -0.496166 3.28853 -0.835094 -0.546549 3.25171 -0.870901 -0.582165 
3.22139 -0.914281 -0.617433 3.20248 -0.968363 -0.666881 3.17413 -1.00886 -0.731634 
3.13358 -1.03385 -0.804442 3.08272 -1.04554 -0.885192 3.0412 -1.0668 -0.972852 
2.99929 -1.08633 -1.06791 2.94053 -1.08881 -1.1491 2.87896 -1.09063 -1.21563 
2.82438 -1.10317 -1.26699 2.76074 -1.10386 -1.32623 2.69179 -1.09837 -1.38576 
2.62741 -1.0995 -1.43764 2.5716 -1.1145 -1.46688 2.51081 -1.12628 -1.48158 
2.45345 -1.14207 -1.49611 2.38791 -1.14574 -1.52586 2.32592 -1.14964 -1.57761 
2.27991 -1.17086 -1.63592 2.23221 -1.19271 -1.67951 2.16411 -1.19728 -1.68721 
2.08347 -1.19503 -1.65119 1.99835 -1.19273 -1.58581 1.91153 -1.19106 -1.50575 
1.82553 -1.18904 -1.43302 1.74033 -1.18665 -1.36766 1.65522 -1.1842 -1.30228 
1.57066 -1.18092 -1.22933 1.49289 -1.17143 -1.14789 1.42875 -1.15047 -1.07185 
1.36219 -1.13161 -0.996181 1.30685 -1.10235 -0.903863 1.25505 -1.06831 -0.773608 
0.676109 -0.948958 -1.03383 0.597563 -0.91761 -1.07227 3.55044 1.3648 -0.346828 
3.56987 1.31108 -0.168246 -0.0418063 0.908497 -0.72348 -0.0289028 0.97093 -0.584751 
-0.0198417 1.02471 -0.454335 0.00235429 1.06473 -0.34551 0.0351423 1.09876 -0.273128 
0.073152 1.13319 -0.237449 0.113656 1.1686 -0.223828 0.154967 1.20436 -0.217564 
0.196278 1.24013 -0.2113 0.236854 1.27545 -0.197675 0.277 1.30869 -0.169283 
0.321228 1.33328 -0.11848 0.374584 1.34595 -0.0597778 0.419267 1.36872 -0.0015503 
0.464758 1.39185 0.0493202 0.518181 1.40444 0.108016 0.562128 1.42677 0.173604 
0.606525 1.44728 0.246618 0.667355 1.44866 0.320511 0.735811 1.44115 0.394801 
0.804266 1.43365 0.469102 0.865904 1.43538 0.535638 0.912659 1.45703 0.586576 
0.95938 1.48261 0.615331 1.00989 1.50637 0.629477 1.0434 1.55252 0.627933 
1.08847 1.58779 0.612196 1.15238 1.60501 0.575287 1.21687 1.62415 0.523607 
1.2921 1.63208 0.465102 1.3654 1.64096 0.413893 1.42183 1.66689 0.376584 
1.47386 1.69277 0.36862 1.53125 1.70722 0.390545 1.57555 1.73173 0.441352 
1.61379 1.762 0.499245 1.65929 1.78512 0.550115 1.7215 1.79137 0.58709 
1.7772 1.80519 0.623716 1.80507 1.84884 0.673643 1.83348 1.88926 0.738401 
0.871965 -0.972026 -0.89905 0.957671 -0.966594 -0.883406 1.02435 -0.979726 -0.848379 
1.07621 -1.00537 -0.797665 1.1363 -1.02262 -0.717299 0.5315 -0.919986 -0.758838 
0.516512 -0.92995 -0.544615 0.532367 -0.951554 -0.397194 0.58792 -0.967434 -0.312286 
-0.12718 0.762239 -0.642931 -0.171691 0.680425 -0.450337 1.20675 -0.973707 -0.513221 
0.718785 -0.995361 -0.579785 3.56492 1.19237 0.0592385 3.52295 1.14183 0.141715 
3.47415 1.10053 0.216426 3.42455 1.05887 0.298495 3.38016 1.00726 0.403033 
3.35131 0.936249 0.515804 3.32327 0.865592 0.621218 3.2813 0.815054 0.703695 
3.23324 0.774188 0.771055 3.18561 0.735412 0.823637 3.14071 0.696052 0.861564 
3.10408 0.650026 0.882673 3.07515 0.594054 0.904147 3.02127 0.558125 0.941263 
3.66061 1.25517 0.0354827 3.72218 1.25697 0.102015 3.76774 1.28002 0.152889 
-0.173378 0.62343 -0.117557 -0.136884 0.652049 0.0221281 -0.0805084 0.654986 0.12544 
-0.0214418 0.655732 0.214025 0.0266792 0.664741 0.30927 0.071993 0.65218 0.425545 
0.0947489 0.607249 0.547729 0.0966096 0.539773 0.659067 0.0955855 0.458093 0.744534 
-0.188216 0.490888 -0.0882857 -0.1749 0.429831 0.111659 -0.160992 0.377098 0.312072 
0.667903 -0.91425 -0.196482 0.692924 -0.871175 -0.124515 -0.181422 0.101749 -0.00686648 
-0.169991 0.159191 0.153829 -0.163186 0.213458 0.293972 -0.15108 0.263471 0.412113 
-0.164749 -0.062654 -0.0204438 -0.148512 -0.127329 0.112499 -0.135189 -0.186057 0.203139 
-0.104232 -0.229533 0.259146 -0.0911012 -0.289837 0.280053 -0.0736064 -0.34705 0.286672 
-0.0188296 -0.372331 0.291464 0.0448175 -0.389932 0.297601 0.0924885 -0.421364 0.301316 
0.140242 -0.452725 0.305043 0.204697 -0.469283 0.318783 0.268832 -0.485286 0.34743 
0.318559 -0.509836 0.403925 0.369629 -0.516569 0.483817 0.409282 -0.498658 0.586016 
0.448654 -0.47635 0.680944 0.490941 -0.455974 0.768636 0.515414 -0.409671 0.825782 
0.536197 -0.357944 0.875332 0.544922 -0.29236 0.909301 0.539414 -0.225602 0.941765 
0.521506 -0.167861 0.957505 0.506753 -0.107587 0.966262 0.479977 -0.0580636 0.965715 
0.445616 -0.0151087 0.964018 0.409971 0.0267345 0.962127 0.375609 0.0696898 0.96043 
0.348676 0.119076 0.95986 0.331666 0.177052 0.960794 0.294823 0.217815 0.953743 
0.231046 0.237983 0.927824 0.155284 0.267463 0.876163 2.78899 -0.763795 0.409221 
2.8 -0.700517 0.458246 2.8102 -0.637595 0.514638 2.83631 -0.591907 0.564471 
2.86478 -0.54507 0.592239 2.87841 -0.47854 0.604414 2.88298 -0.404232 0.61597 
2.87718 -0.335668 0.641025 2.8575 -0.277945 0.686412 2.84775 -0.210948 0.745778 
2.8429 -0.137671 0.813446 2.82809 -0.0624794 0.882602 1.6723 -1.08679 0.442604 
1.70711 -1.04346 0.44852 1.73774 -0.99656 0.461613 1.78731 -0.972991 0.483109 
1.83196 -0.946298 0.519144 1.87249 -0.914806 0.554958 1.91686 -0.890378 0.605778 
1.97066 -0.879527 0.671894 2.01826 -0.867928 0.774661 -0.0570549 0.322831 0.651614 
2.84215 0.580968 1.02715 2.75905 0.59604 1.06351 2.68363 0.608666 1.11056 
2.6137 0.629892 1.16607 2.9106 0.442937 1.02053 2.89868 0.35497 1.03735 
2.89026 0.277102 1.04261 2.87687 0.208613 1.03783 2.85291 0.152293 1.02253 
2.82912 0.0859289 0.994329 2.69203 0.0214794 0.976164 2.61423 0.0343143 0.998085 
2.55371 0.0573562 1.03235 2.48836 0.0767433 1.09574 1.71584 -0.284895 0.889003 
1.76537 -0.259994 0.903107 1.80566 -0.226925 0.931508 1.84346 -0.194839 0.981966 
1.88688 -0.1706 1.04014 1.94097 -0.157499 1.09147 1.9885 -0.131566 1.11287 
2.03314 -0.0983719 1.11191 2.08471 -0.0706692 1.09653 2.14445 -0.0550728 1.09638 
2.19272 -0.0287007 1.11041 2.23286 0.00453459 1.13881 2.2727 0.0394222 1.15978 
2.31454 0.0732853 1.17348 2.36487 0.0985416 1.18022 0.454552 0.927024 0.838936 
0.500109 0.950072 0.889809 0.562417 0.952317 0.948991 0.632111 0.947259 1.00116 
0.698978 0.949379 1.03098 0.757661 0.96362 1.04557 0.82695 0.966806 1.05333 
0.901488 0.963881 1.06138 0.970256 0.968969 1.06171 1.02308 0.995215 1.0464 
1.07064 1.03148 1.00861 1.11893 1.06819 0.963456 1.17292 1.09697 0.926016 
1.23473 1.11145 0.918576 1.29002 1.12834 0.940389 1.34671 1.13843 0.991858 
1.39929 1.152 1.05052 1.46366 1.15314 1.1024 1.53585 1.14907 1.13251 
1.60433 1.1519 1.14763 1.66382 1.16649 1.15486 1.73391 1.16988 1.15526 
1.80994 1.16486 1.14845 1.88046 1.15233 1.1332 1.93797 1.12907 1.13093 
2.00379 1.1137 1.14488 2.06657 1.09629 1.17331 2.11155 1.06141 1.19148 
2.15064 1.01067 1.20078 2.44931 0.687621 1.21796 2.40199 0.731573 1.21489 
2.37323 0.781178 1.21413 2.35752 0.840422 1.21526 2.32817 0.888619 1.21437 
2.27694 0.92306 1.21041 2.50493 0.538815 1.21687 2.49542 0.451922 1.21163 
2.48808 0.374528 1.20709 2.47479 0.306025 1.20232 2.45167 0.249084 1.19703 
2.4384 0.180663 1.19226 2.16853 0.835007 1.2614 2.14561 0.754663 1.30723 
2.11808 0.696886 1.32379 2.09679 0.641588 1.2964 2.05907 0.609419 1.24594 
1.99714 0.605439 1.19419 1.92311 0.610526 1.17138 1.8459 0.616922 1.17814 
1.77369 0.628831 1.20809 1.71295 0.650664 1.23977 1.64381 0.664545 1.25524 
1.57548 0.678783 1.26334 1.51723 0.701597 1.27298 1.44797 0.712671 1.28829 
1.37977 0.708566 1.29552 1.32865 0.683102 1.29614 1.28601 0.648883 1.2898 
1.24462 0.613202 1.28354 1.21081 0.148055 1.26481 1.2497 0.182754 1.29314 
1.28617 0.216387 1.34352 1.32102 0.249309 1.40862 
LINES 57 731
4 50 51 52 49 
8 49 53 54 55 56 57 58 46 
16 49 59 60 61 62 63 64 65 66 67 68 69 70 71 72 28 
14 48 73 74 75 76 77 78 79 80 81 82 83 84 39 
7 47 85 86 87 88 89 43 
8 46 90 91 92 93 94 95 44 
45 46 96 97 98 99 100 101 102 103 104 105 106 107 108 109 110 111 112 113 114 115 116 117 118 119 120 121 122 123 124 125 126 127 128 129 130 131 132 133 134 135 136 137 138 36 
3 40 139 45 
12 44 140 141 142 143 144 145 146 147 148 149 41 
27 44 150 151 152 153 154 155 156 157 158 159 160 161 162 163 164 165 166 167 168 169 170 171 172 173 174 29 
13 40 175 176 177 178 179 180 181 182 183 184 185 42 
8 40 186 187 188 189 190 191 41 
10 40 192 193 194 195 196 197 198 199 38 
6 41 200 201 202 203 35 
6 39 204 205 206 207 30 
5 39 208 209 210 32 
8 36 211 212 213 214 215 216 30 
9 38 217 218 219 220 221 222 223 19 
10 38 224 225 226 227 228 229 230 231 37 
13 37 232 233 234 235 236 237 238 239 240 241 242 27 
9 37 243 244 245 246 247 248 249 16 
14 36 250 251 252 253 254 255 256 257 258 259 260 261 31 
8 36 262 263 264 265 266 267 32 
17 35 268 269 270 271 272 273 274 275 276 277 278 279 280 281 282 25 
10 35 283 284 285 286 287 288 289 290 26 
10 34 291 292 293 294 295 296 297 298 30 
13 31 299 300 301 302 303 304 305 306 307 308 309 33 
6 33 310 311 312 313 29 
5 33 314 315 316 29 
57 32 317 318 319 320 321 322 323 324 325 326 327 328 329 330 331 332 333 334 335 336 337 338 339 340 341 342 343 344 345 346 347 348 349 350 351 352 353 354 355 356 357 358 359 360 361 362 363 364 365 366 367 368 369 370 371 24 
4 23 372 373 27 
4 31 374 375 22 
43 25 376 377 378 379 380 381 382 383 384 385 386 387 388 389 390 391 392 393 394 395 396 397 398 399 400 401 402 403 404 405 406 407 408 409 410 411 412 413 414 415 416 13 
7 23 417 418 419 420 421 24 
6 27 422 423 424 425 18 
4 25 426 427 19 
3 24 428 21 
3 23 429 18 
16 22 430 431 432 433 434 435 436 437 438 439 440 441 442 443 11 
5 22 444 445 446 20 
11 19 447 448 449 450 451 452 453 454 455 3 
5 19 456 457 458 12 
4 18 459 460 17 
6 16 461 462 463 464 12 
34 16 465 466 467 468 469 470 471 472 473 474 475 476 477 478 479 480 481 482 483 484 485 486 487 488 489 490 491 492 493 494 495 496 3 
14 15 497 498 499 500 501 502 503 504 505 506 507 508 10 
11 14 509 510 511 512 513 514 515 516 517 8 
3 12 518 3 
6 11 519 520 521 522 6 
8 11 523 524 525 526 527 528 10 
6 10 529 530 531 532 4 
17 9 533 534 535 536 537 538 539 540 541 542 543 544 545 546 547 4 
31 7 548 549 550 551 552 553 554 555 556 557 558 559 560 561 562 563 564 565 566 567 568 569 570 571 572 573 574 575 576 5 
8 6 577 578 579 580 581 582 5 
8 6 583 584 585 586 587 588 4 
20 5 589 590 591 592 593 594 595 596 597 598 599 600 601 602 603 604 605 606 2 
6 1 607 608 609 610 0 

POINT_DATA 611
SCALARS DY_raw double
LOOKUP_TABLE default
280.905 235.01 556.623 392.194 348.485 310.994 318.589 535.574 174.185 
438.839 316.386 350.642 413.519 367.728 360.858 474.402 308.903 292.719 
307.996 306.344 245.664 295.257 295.399 324.201 288.45 322.414 258.5 
299.238 303.952 342.095 305.817 278.055 322.604 242.388 360.27 304.374 
293.511 229.542 321.623 255.702 269.706 285.76 265.831 294.631 203.606 
323.798 297.586 253.144 298.035 260.326 255.454 204.426 208.75 234.197 
239.853 241.394 241.394 235.603 251.444 221.338 209.782 229.09 193.424 
238.236 252.379 260.583 246.942 260.648 244.792 248.697 242.307 252.081 
262.25 284.931 299.896 287.697 293.954 310.157 266.185 286.581 301.759 
259.733 282.353 318.96 312.794 257.705 269.137 285.012 285.628 262.766 
298.964 298.964 286.705 239.848 245.031 227.388 273.801 275.671 305.866 
305.866 318.256 368.076 421.442 363.944 358.472 358.472 372.227 385.255 
362.65 308.634 279.32 295.01 306.821 336.095 389.689 382.355 409.937 
416.75 422.084 384.851 391.868 391.868 398.457 398.457 400.483 327.626 
327.626 302.224 303.51 303.51 276.917 282.426 308.623 271.119 242.215 
293.512 299.928 279.3 288.277 325.2 230.626 249.341 249.341 267.878 
241.377 262.908 260.51 243.163 268.266 262.715 226.28 229.122 248.879 
250.844 267.872 330.101 278.135 301.987 364.197 279.482 323.095 298.252 
237.3 276.044 270.867 300.873 333.029 351.047 320.672 296.121 280.842 
272.074 279.512 301.611 284.872 291.591 267.132 279.435 278.561 299.447 
291.174 291.635 301.449 290.83 266.253 293.458 249.583 257.349 240.486 
264.083 260.044 261.151 274.297 255.974 271.961 322.456 357.343 363.04 
360.535 343.591 299.408 308.583 275.68 287.157 260.566 261.472 300.164 
314.009 231.508 285.835 359.784 267.802 246.775 248.478 263.268 277.697 
286.21 346.851 340.939 295.149 295.564 257.153 263.386 276.658 307.474 
299.692 299.222 301.867 303.686 282.071 267.192 277.386 245.913 225 
222.169 222.169 223.352 206.611 236.438 252.549 264.068 288.13 313.562 
306.467 295.103 275.486 264.013 273.741 286.572 325.803 327.556 330.704 
328.747 318.504 308.63 317.475 247.473 245.673 247.103 245.209 254.124 
272.887 322.791 358.532 372.219 339.73 321.529 334.348 303.894 293.025 
264.623 282.164 292.957 292.957 326.708 326.708 308.898 336.796 336.796 
330.507 329.413 306.968 288.806 332.145 293.32 273.992 313.98 252.806 
255.818 281.279 258.5 349.536 324.198 354.913 385.287 339.599 308.112 
314.479 304.976 246.665 235.151 253.704 251.465 250.51 248.73 248.73 
239.308 229.908 241.721 226.365 242.388 269.186 308.736 288.475 297.141 
361.312 331.759 327.589 351.347 339.038 444.347 443.894 435.402 393.616 
351.402 351.402 394.755 395.043 334.109 348.869 317.117 314.799 327.237 
327.237 354.63 374.396 296.527 295.278 311.353 295.715 334.8 311.736 
313.277 344.48 284.107 286.342 291.696 266.668 293.856 326.882 295.933 
312.747 304.031 304.031 302.161 302.161 289.083 274.764 264.362 252.891 
245.486 251.019 245.857 250.827 265.241 243.469 242.538 249.16 215.873 
195.392 206.618 193.548 286.789 242.637 304.803 369.931 302.882 327.335 
312.718 278.583 289.146 354.489 388.486 392.359 392.359 346.578 346.578 
380.225 386.004 384.493 389.091 372.849 395.857 406.705 385.713 363.609 
341.656 304.039 304.039 301.372 301.372 316.943 357.665 357.665 432.022 
406.72 323.904 294.741 258.458 258.458 281.757 292.052 304.971 313.166 
300.66 330.067 330.438 274.601 254.837 236.631 238.894 266.419 443.322 
351.438 342.772 303.095 401.396 366.001 268.645 322.76 318.279 353.523 
358.002 342.918 359.524 342.083 364.796 363.235 413.051 371.578 357.529 
348.845 342.152 329.729 289.959 244.754 242.587 316.597 340.396 329.041 
331.209 298.742 286.434 271.722 255.434 304.176 329.445 385.482 409.561 
284.953 264.847 308.963 324.356 306.808 337.46 322.33 389.171 355.258 
287.759 269.147 339.894 249.766 249.766 244.034 240.521 243.814 261.781 
294.873 304.08 326.91 328.281 358.543 320.729 370.384 409.855 412.649 
385.473 426.785 436.978 410.129 368.445 326.185 326.185 331.071 318.782 
369.93 360.498 439.522 514.205 388.204 421.876 394.171 391.632 349.144 
299.858 283.459 308.764 339.205 310.441 360.858 267.363 239.898 239.898 
230.279 217.472 226.225 198.721 186.111 423.96 334.237 304.391 239.854 
247.608 332 354.704 336.307 305.456 292.545 285.43 349.442 374.196 
321.609 283.839 438.839 397.05 328.538 349.822 354.812 401.14 401.14 
353.59 363.064 363.064 395.042 395.042 390.849 414.597 414.597 493.921 
480.933 413.21 445.716 405.351 337.117 328.181 310.018 290.608 290.608 
320.754 302.099 267.176 278.084 274.492 298.524 295.933 320.206 291.892 
296.115 273.712 250.921 274.143 287.255 311.09 311.09 302.4 300.47 
309.211 332.87 349.565 349.597 316.008 304.809 296.995 351.836 379.707 
370.479 325.392 347.106 314.983 362.158 389.583 338.446 279.125 268.245 
252.935 259.465 269.084 299.463 257.878 294.714 252.094 278.057 358.723 
425.841 425.841 491.366 528.028 215.73 235.992 225.905 263.727 
FIELD FieldData 7
DY_minmax 1 611 double
0.279051 0.159046 1 0.57005 0.455761 0.357729 0.37759 0.944961 0 
0.692017 0.371829 0.4614 0.62581 0.506078 0.488113 0.785008 0.352262 0.309944 
0.34989 0.34557 0.186904 0.31658 0.316951 0.392264 0.298781 0.387591 0.220466 
0.32699 0.339316 0.439052 0.344191 0.271601 0.388087 0.178337 0.486577 0.340418 
0.312014 0.144748 0.385521 0.21315 0.249769 0.291746 0.239636 0.314942 0.0769295 
0.391209 0.32267 0.206461 0.323844 0.225242 0.212502 0.0790741 0.0903801 0.156919 
0.17171 0.175737 0.175737 0.160595 0.202018 0.123296 0.0930784 0.143567 0.0503067 
0.167481 0.204461 0.225914 0.190244 0.226085 0.184625 0.194835 0.178126 0.203682 
0.230274 0.289579 0.32871 0.296813 0.313173 0.355541 0.240561 0.293893 0.333581 
0.223693 0.28284 0.37856 0.362436 0.218387 0.248281 0.28979 0.291402 0.231622 
0.326272 0.326272 0.294217 0.171697 0.185248 0.139115 0.260477 0.265365 0.34432 
0.34432 0.376718 0.506987 0.646529 0.496182 0.481874 0.481874 0.51784 0.551907 
0.4928 0.351559 0.274906 0.315934 0.346818 0.423363 0.563501 0.544324 0.616445 
0.634259 0.648206 0.55085 0.569197 0.569197 0.586428 0.586428 0.591724 0.401219 
0.401219 0.334797 0.33816 0.33816 0.268624 0.283029 0.35153 0.253464 0.177886 
0.312017 0.328793 0.274856 0.298328 0.394874 0.147584 0.196518 0.196518 0.244989 
0.175695 0.231994 0.225723 0.180364 0.246003 0.23149 0.136219 0.143651 0.195311 
0.200448 0.244975 0.407689 0.27181 0.334177 0.496845 0.27533 0.389371 0.324411 
0.165034 0.266342 0.252805 0.331265 0.415346 0.462461 0.383036 0.318838 0.278887 
0.255961 0.275408 0.333195 0.289425 0.306995 0.243038 0.275208 0.272922 0.327535 
0.305903 0.307109 0.332771 0.305004 0.24074 0.311876 0.19715 0.217457 0.173364 
0.235066 0.224504 0.227399 0.261774 0.213862 0.255665 0.387701 0.478923 0.493819 
0.487268 0.442962 0.327434 0.351424 0.26539 0.295399 0.225868 0.228239 0.32941 
0.365612 0.149888 0.291944 0.485304 0.24479 0.189808 0.194263 0.232935 0.270664 
0.292924 0.451489 0.436028 0.316297 0.317383 0.216945 0.233242 0.267946 0.348526 
0.328176 0.326948 0.333864 0.338621 0.2821 0.243195 0.26985 0.187555 0.132871 
0.125469 0.125469 0.128562 0.0847881 0.16278 0.204906 0.235026 0.297944 0.364443 
0.345892 0.316177 0.264881 0.234883 0.26032 0.29387 0.396451 0.401035 0.409266 
0.404148 0.377366 0.351546 0.374676 0.191634 0.186926 0.190667 0.185715 0.209026 
0.258085 0.388577 0.482032 0.51782 0.432867 0.385275 0.418794 0.339164 0.310744 
0.236478 0.282344 0.310566 0.310566 0.398819 0.398819 0.352248 0.425196 0.425196 
0.408752 0.405892 0.347201 0.299712 0.413034 0.311515 0.260977 0.365537 0.205579 
0.213454 0.280029 0.220466 0.458509 0.392256 0.472569 0.55199 0.432524 0.350194 
0.366841 0.341992 0.189522 0.159413 0.207926 0.202073 0.199576 0.19492 0.19492 
0.170286 0.145705 0.176595 0.136442 0.178337 0.248409 0.351826 0.298847 0.321507 
0.4893 0.412025 0.401123 0.463243 0.431057 0.706421 0.705236 0.683032 0.573769 
0.463387 0.463387 0.576746 0.577499 0.41817 0.456765 0.373738 0.367679 0.4002 
0.4002 0.471829 0.523512 0.3199 0.316636 0.358668 0.317777 0.419977 0.35967 
0.363699 0.445288 0.287424 0.293269 0.307267 0.241826 0.312916 0.399273 0.318347 
0.362314 0.339522 0.339522 0.334631 0.334631 0.300436 0.262994 0.235795 0.2058 
0.186439 0.200905 0.187409 0.200404 0.238093 0.181165 0.17873 0.196044 0.109006 
0.0554529 0.084806 0.0506309 0.294439 0.178988 0.341542 0.511838 0.336518 0.400458 
0.362237 0.272981 0.3006 0.471459 0.560356 0.570482 0.570482 0.450773 0.450773 
0.538753 0.553866 0.549914 0.561936 0.519467 0.579628 0.607993 0.553103 0.495305 
0.437905 0.339544 0.339544 0.332568 0.332568 0.373285 0.479764 0.479764 0.674194 
0.608032 0.391487 0.31523 0.220359 0.220359 0.281281 0.3082 0.341981 0.363407 
0.330709 0.407602 0.40857 0.262568 0.210889 0.163285 0.169203 0.241175 0.703741 
0.463481 0.440823 0.337075 0.594111 0.501562 0.246994 0.388495 0.376779 0.468933 
0.480646 0.441203 0.484626 0.439021 0.498411 0.494329 0.624586 0.516143 0.479408 
0.456702 0.4392 0.406717 0.302727 0.184525 0.178858 0.37238 0.434608 0.404918 
0.410588 0.325693 0.293509 0.255041 0.212451 0.339902 0.405975 0.552501 0.615463 
0.289637 0.237065 0.352419 0.392668 0.346782 0.426932 0.38737 0.562147 0.47347 
0.296973 0.248307 0.433295 0.19763 0.19763 0.182642 0.173457 0.182065 0.229046 
0.315575 0.339651 0.399346 0.40293 0.482059 0.383185 0.513022 0.616231 0.623536 
0.552478 0.6605 0.687153 0.616946 0.507953 0.397451 0.397451 0.410227 0.378093 
0.511835 0.487172 0.693803 0.889084 0.559617 0.647664 0.575219 0.568581 0.457485 
0.32861 0.285731 0.351898 0.431494 0.356284 0.488113 0.243641 0.171827 0.171827 
0.146676 0.113187 0.136074 0.064157 0.0311854 0.653114 0.418506 0.340464 0.171713 
0.191986 0.412655 0.472023 0.423917 0.343248 0.309488 0.290883 0.458262 0.52299 
0.385486 0.286723 0.692017 0.582748 0.403604 0.459256 0.472305 0.593444 0.593444 
0.469108 0.493883 0.493883 0.577499 0.577499 0.566534 0.628631 0.628631 0.836047 
0.802084 0.625004 0.710001 0.604454 0.426035 0.40267 0.355177 0.304424 0.304424 
0.383249 0.334469 0.243155 0.271677 0.262284 0.325121 0.318348 0.381815 0.307781 
0.318823 0.260245 0.200649 0.261371 0.295655 0.357979 0.357979 0.335258 0.33021 
0.353067 0.414931 0.458586 0.458668 0.370838 0.341555 0.321123 0.464523 0.5374 
0.51327 0.395376 0.452153 0.368159 0.491513 0.563223 0.42951 0.274397 0.245948 
0.205915 0.222991 0.248142 0.327578 0.218842 0.315161 0.203716 0.271604 0.482532 
0.65803 0.65803 0.829366 0.92523 0.108632 0.161613 0.135237 0.234134 
WidthEq 1 611 double
1.64099 3.54956 1.06467 3.28277 2.23336 2.36449 2.29707 1.92097 1.35317 
2.02768 2.54673 2.29212 3.12407 1.04118 2.20123 1 4.0787 3.14674 
3.48245 4.0468 1.40811 2.0217 3.02351 3.15761 2.98156 3.82943 2.84288 
2.80339 1.99433 1.74826 3.38243 2.93888 3.5017 2.28498 1.16263 3.03525 
4.30227 3.53801 2.6722 2.45189 3.23242 3.35562 2.5841 2.07834 3.64908 
1.46879 2.7 2.14219 1.46191 2.99368 2.19062 2.90356 3.17309 3.09104 
2.87823 2.70509 2.70509 2.89883 2.94499 3.35126 3.32013 3.515 4.12995 