# vtk DataFile Version 3.0
vtk output
ASCII
DATASET POLYDATA
POINTS 891 float
0.299245 0.508513 1.69868 0.555502 -0.240081 1.75471 1.12043 1.01425 1.46054 
-0.271316 0.671331 1.08467 1.48579 -1.49517 1.24712 2.74819 0.0436802 1.13243 
0.777424 -1.60658 1.05469 0.231046 1.21663 0.241813 4.88776 0.32658 0.309638 
6.3296 0.399512 0.304584 5.96329 -0.978938 0.407532 6.22651 0.638816 0.0861081 
5.63344 0.813497 -0.194529 5.94879 0.786909 -0.192454 6.87544 0.282227 -0.0876131 
-0.324621 -1.34801 -0.168289 3.31101 -0.238147 -0.383957 7.11953 0.543276 -0.307619 
6.98635 -0.386115 -0.238177 -0.433559 0.36808 -0.497167 0.967866 1.35953 -0.570898 
0.292946 -2.03675 -0.317188 3.17551 -1.74201 -0.438704 5.04296 0.850131 -0.531691 
4.67028 -0.980554 -0.394936 6.35131 0.985248 -0.853408 6.97234 0.569316 -0.822143 
4.80113 0.705041 -0.788325 3.20809 -1.58856 -0.751004 4.28281 -0.1136 -0.860971 
5.01228 -1.37543 -0.90014 5.39742 -1.48618 -0.758052 3.3689 -0.9322 -1.06744 
3.31511 -1.27735 -1.04165 3.50081 -0.716221 -1.01669 4.10078 -0.742367 -1.01457 
4.42375 0.401663 -1.10001 4.58646 0.578181 -1.21344 4.68134 -1.19838 -0.980323 
0.0765125 0.514158 -1.31018 4.15889 -0.115612 -1.32883 5.28402 0.840333 -1.33312 
5.47876 0.923277 -1.43955 5.62863 0.990178 -1.41109 1.68855 -2.50388 -1.35153 
2.82867 -2.06752 -1.38383 5.13176 -1.46067 -1.36171 3.2115 -1.42208 -1.56568 
4.00312 -0.156016 -1.66011 1.37629 0.86364 -1.93762 4.32795 -0.167138 -1.9266 
5.28099 0.569486 -1.91455 7.39669 0.180655 -1.8849 3.05469 -1.54282 -1.95781 
4.87753 0.320762 -2.09663 4.89671 -0.244543 -2.1175 6.04216 -1.3069 -2.17518 
0.456708 -0.0728568 -2.46954 1.00511 -1.86323 -2.33554 4.76493 -0.133196 -2.46384 
4.8367 -0.719562 -2.41998 4.64908 -0.798362 -2.6147 6.22542 -0.647492 -2.62554 
1.80588 -1.87765 -2.73536 1.75056 -1.87238 -2.6392 1.69847 -1.89609 -2.5706 
1.65977 -1.9383 -2.53774 1.61559 -1.9827 -2.527 1.57638 -2.02852 -2.51616 
1.52095 -2.06841 -2.48348 1.45939 -2.10392 -2.41399 1.41734 -2.14182 -2.30717 
1.41786 -2.18987 -2.18473 1.42682 -2.24059 -2.06952 1.45463 -2.29607 -1.97622 
1.4949 -2.34553 -1.89824 1.54131 -2.37876 -1.81651 1.58695 -2.41556 -1.7048 
1.63672 -2.4486 -1.54632 6.17564 -0.696042 -2.68878 6.15978 -0.750248 -2.70702 
6.17175 -0.808495 -2.68038 6.1806 -0.864815 -2.63902 6.19455 -0.923585 -2.61234 
6.19208 -0.978571 -2.59337 6.17985 -1.03042 -2.56722 6.16586 -1.08016 -2.51894 
6.15175 -1.12876 -2.45588 6.13754 -1.17678 -2.38544 6.12146 -1.2243 -2.31504 
6.09396 -1.26881 -2.24487 4.71276 -0.765574 -2.52057 4.77301 -0.747932 -2.45502 
4.85066 -0.658786 -2.32053 4.86296 -0.598677 -2.23588 4.86727 -0.537557 -2.16617 
4.86483 -0.47576 -2.11136 4.88209 -0.420495 -2.07463 4.88067 -0.361329 -2.06421 
4.88911 -0.302612 -2.07973 4.87378 -0.77948 -2.32635 4.90132 -0.839636 -2.26986 
4.91422 -0.899232 -2.25797 4.94177 -0.963253 -2.25317 4.97898 -1.02872 -2.23342 
5.01794 -1.09245 -2.18407 5.057 -1.15454 -2.11257 5.09594 -1.21495 -2.0189 
5.13301 -1.27321 -1.90312 5.15856 -1.32733 -1.77278 5.15793 -1.37397 -1.6356 
5.14578 -1.41757 -1.49863 4.80859 -0.174875 -2.30844 4.85873 -0.203115 -2.19117 
0.941956 -1.88676 -2.3338 0.885241 -1.88608 -2.33387 0.831551 -1.87344 -2.3274 
0.778381 -1.85774 -2.3063 0.725697 -1.83851 -2.26319 0.675572 -1.80911 -2.2134 
0.629331 -1.76565 -2.1721 0.579213 -1.73845 -2.15186 0.526539 -1.72144 -2.13829 
0.473396 -1.70563 -2.1172 0.420219 -1.68826 -2.07395 0.367038 -1.6698 -2.01592 
0.313883 -1.65067 -1.95051 0.261191 -1.62924 -1.87785 0.211055 -1.59708 -1.79113 
0.16482 -1.54799 -1.67596 0.115164 -1.50954 -1.53029 0.065501 -1.46888 -1.35506 
0.0192173 -1.41438 -1.16602 -0.0314441 -1.37579 -0.968363 -0.0872214 -1.35702 -0.776655 
-0.147369 -1.35581 -0.598486 -0.204155 -1.34363 -0.443418 -0.261404 -1.33431 -0.302998 
0.503677 -0.0973707 -2.40827 0.532896 -0.144775 -2.36757 0.5347 -0.199887 -2.36345 
0.534151 -0.258575 -2.38878 0.546443 -0.321321 -2.42123 0.545865 -0.379564 -2.43916 
0.547043 -0.437719 -2.44967 0.570863 -0.502408 -2.46711 0.596447 -0.569218 -2.50667 
0.609168 -0.633182 -2.55389 0.634859 -0.70002 -2.59345 0.660544 -0.765202 -2.61085 
0.67335 -0.825878 -2.61374 0.700904 -0.889898 -2.60895 0.738116 -0.957024 -2.61135 
0.777092 -1.02572 -2.62849 0.816181 -1.0961 -2.66778 0.855272 -1.16703 -2.71447 
0.89436 -1.23741 -2.75376 0.933471 -1.30602 -2.7709 0.973072 -1.37167 -2.77342 
1.01572 -1.42528 -2.7694 1.06531 -1.45279 -2.76733 1.11796 -1.4688 -2.76612 
1.17109 -1.48296 -2.76504 1.22429 -1.4969 -2.76399 1.27794 -1.50909 -2.76306 
1.33419 -1.51154 -2.76286 1.39479 -1.49818 -2.77127 1.4541 -1.49079 -2.79409 
1.51523 -1.47822 -2.83958 1.57503 -1.47119 -2.89209 1.6387 -1.4491 -2.93829 
1.70191 -1.42701 -2.96221 1.75912 -1.42639 -2.96967 1.81587 -1.42697 -2.96961 
1.87602 -1.41472 -2.97051 1.93271 -1.41551 -2.97043 1.98895 -1.41741 -2.96285 
2.04651 -1.41323 -2.94086 2.09884 -1.42707 -2.89524 2.1564 -1.42069 -2.84371 
2.21266 -1.41973 -2.79919 2.26983 -1.417 -2.7771 2.33301 -1.3928 -2.77146 
2.39619 -1.36916 -2.77321 2.4534 -1.36743 -2.76589 2.51016 -1.36626 -2.74368 
2.57074 -1.34848 -2.693 2.6295 -1.33589 -2.61964 2.68702 -1.32685 -2.53117 
2.73631 -1.34932 -2.44776 2.78689 -1.36747 -2.37211 2.83954 -1.37841 -2.30442 
2.8922 -1.38961 -2.23673 2.94291 -1.4126 -2.16071 2.99329 -1.46639 -2.06753 
4.84042 0.387859 -2.09422 4.81296 0.454061 -2.06947 4.80188 0.519132 -2.00006 
4.78511 0.587523 -1.87518 4.7669 0.642142 -1.69356 4.70483 0.646886 -1.46739 
4.84808 0.269597 -2.12252 4.7961 0.223282 -2.16364 4.74236 0.176878 -2.21219 
4.70149 0.127629 -2.25308 4.64775 0.0839862 -2.2647 4.59575 0.042089 -2.24672 
4.56628 -0.00355441 -2.19875 4.53666 -0.0482794 -2.13847 4.48196 -0.0864843 -2.07125 
4.41101 -0.124277 -2.00158 4.94478 0.359731 -2.09952 5.01203 0.3987 -2.10242 
5.07928 0.438221 -2.09792 5.14653 0.479399 -2.07127 5.21376 0.523338 -2.00769 
3.04455 -1.63088 -2.0478 3.02095 -1.69588 -2.1098 2.97904 -1.74516 -2.13584 
2.94005 -1.79167 -2.13237 2.88649 -1.8326 -2.10704 2.83647 -1.87226 -2.0521 
2.82051 -1.91839 -1.96199 2.83106 -1.96832 -1.8196 2.83161 -2.01563 -1.62293 
3.13782 -1.47971 -1.76195 7.34708 0.208064 -1.88696 7.3009 0.248409 -1.88999 
7.25142 0.276448 -1.88467 7.20418 0.307539 -1.85729 7.17306 0.363169 -1.79462 
7.15943 0.430188 -1.67748 7.12871 0.50433 -1.48412 7.07045 0.562002 -1.19133 
5.29306 0.635726 -1.74865 5.29558 0.703384 -1.59772 5.28336 0.773836 -1.46186 
5.32065 0.495105 -2.03526 5.36334 0.433213 -2.14204 5.41295 0.399633 -2.22123 
5.46563 0.37985 -2.27173 5.51927 0.365909 -2.29295 5.57552 0.362352 -2.30753 
5.63612 0.374612 -2.33071 5.69544 0.379785 -2.38308 5.75658 0.390145 -2.45812 
5.8164 0.394427 -2.54755 5.88006 0.414301 -2.62331 5.94326 0.434078 -2.67677 
5.99998 0.432285 -2.69148 6.05366 0.421308 -2.67578 6.10684 0.410679 -2.63041 
6.15999 0.400497 -2.57763 6.21315 0.389762 -2.53224 6.26633 0.377476 -2.50903 
6.32002 0.365947 -2.50072 6.37673 0.365811 -2.49327 6.43988 0.391003 -2.47285 
6.50305 0.417959 -2.43028 6.56027 0.423655 -2.37127 6.61752 0.43001 -2.30487 
6.6812 0.46114 -2.2329 6.74788 0.504664 -2.147 6.81455 0.550396 -2.03155 
6.87804 0.588164 -1.86763 6.93215 0.603632 -1.61788 6.96831 0.60043 -1.26107 
4.35955 -0.263832 -1.98373 4.37446 -0.336804 -2.01542 4.40232 -0.402125 -2.00805 
4.43943 -0.4658 -1.96367 4.47641 -0.529003 -1.91436 4.50199 -0.590846 -1.88745 
4.50151 -0.649114 -1.90537 4.49127 -0.705906 -1.93828 4.48881 -0.763653 -1.95624 
4.50099 -0.821956 -1.9296 4.50029 -0.874648 -1.87366 4.49967 -0.926261 -1.80295 
4.51381 -0.98122 -1.72456 4.52472 -1.03422 -1.63146 4.55217 -1.08927 -1.50848 
4.58986 -1.14284 -1.3559 4.63233 -1.18326 -1.17459 4.2377 -0.147935 -1.62846 
1.41947 0.812007 -1.93375 1.46909 0.784598 -1.93169 1.52173 0.768584 -1.93047 
1.57486 0.754429 -1.9294 1.62803 0.740933 -1.92095 1.68122 0.728096 -1.90512 
1.73487 0.717564 -1.88204 1.79109 0.715568 -1.87444 1.85119 0.727062 -1.88272 
1.90741 0.722847 -1.90467 1.96111 0.709661 -1.91852 2.0148 0.697027 -1.92499 
2.07101 0.694469 -1.92478 2.13109 0.706419 -1.92566 2.18681 0.702552 -1.91792 
2.23741 0.680531 -1.89398 2.28365 0.643798 -1.84666 2.33375 0.622126 -1.79302 
2.38638 0.609423 -1.74749 2.43899 0.59496 -1.72411 2.48858 0.568007 -1.71465 
2.53126 0.514504 -1.71064 2.57135 0.451265 -1.7059 2.61354 0.39535 -1.70914 
2.66005 0.354592 -1.72837 2.70525 0.307194 -1.76937 2.75177 0.264226 -1.81815 
2.79394 0.205444 -1.85831 2.83352 0.138583 -1.87558 2.87262 0.0710706 -1.87796 
2.9117 0.00400528 -1.87293 2.95077 -0.0630607 -1.86791 2.98985 -0.130126 -1.86288 
3.02882 -0.197163 -1.85786 3.06603 -0.263736 -1.85287 3.09348 -0.327729 -1.84808 
3.10451 -0.387385 -1.84362 3.12044 -0.447781 -1.83167 3.1296 -0.505287 -1.80509 
3.14551 -0.562922 -1.75621 3.15643 -0.618684 -1.70003 3.18199 -0.678318 -1.64357 
3.20766 -0.738531 -1.5945 3.22054 -0.79382 -1.52598 3.24972 -0.849329 -1.42031 
3.29819 -0.897758 -1.26069 4.0765 -0.122564 -1.49422 3.25033 -1.48136 -1.45725 
3.28546 -1.53734 -1.31934 3.29801 -1.5826 -1.14511 3.26125 -1.60098 -0.950619 
3.26979 -1.3556 -1.3057 5.07476 -1.42286 -1.1318 5.18488 -1.46202 -1.19075 
5.238 -1.46502 -1.04194 5.29113 -1.47024 -0.922689 5.34427 -1.47766 -0.832981 
5.55343 0.969887 -1.43806 5.41651 0.900067 -1.47869 5.35102 0.870263 -1.44305 
2.92424 -2.01252 -1.25173 2.99969 -1.96223 -1.13663 3.05631 -1.91293 -1.02268 
3.09329 -1.86542 -0.875181 3.13462 -1.82175 -0.674166 2.75757 -2.13487 -1.41347 
2.7213 -2.19432 -1.44618 2.69074 -2.24696 -1.47692 2.63686 -2.29089 -1.49346 
2.57208 -2.32908 -1.49805 2.50801 -2.35648 -1.49602 2.44819 -2.36748 -1.49522 
2.38707 -2.38336 -1.49405 2.32774 -2.39251 -1.49338 2.26665 -2.40828 -1.49222 
2.20732 -2.41688 -1.48416 2.1462 -2.4311 -1.46083 2.08636 -2.43879 -1.41571 
2.0222 -2.46219 -1.36197 1.95595 -2.49402 -1.31505 1.89222 -2.51797 -1.29347 
1.83399 -2.51788 -1.29597 1.7702 -2.50955 -1.31889 1.6026 -2.5524 -1.21174 
1.53205 -2.57458 -1.06154 1.47426 -2.56391 -0.911316 1.42048 -2.54231 -0.784187 
[...]
POINT_DATA 891
SCALARS DY_raw double
LOOKUP_TABLE default
649.771 742.355 681.893 958.615 628.687 709.053 502.551 735.443 921.247 
1000.96 839.842 804.769 778.477 859.592 772.677 586.052 674.558 782.998 
787.131 451.689 484.404 727.152 538.523 1033.31 874.165 777.786 728.422 
706.527 581.219 609.697 635.677 697.611 632.506 557.631 655.984 638.013 
671.476 753.833 730.072 453.873 606.186 692.688 908.473 909.065 513.336 
525.693 525.18 451.342 692.143 935.466 617.737 687.889 531.44 460.18 
512.949 500.075 733.175 567.668 518.395 467.818 486.469 583.678 645.018 
376.751 396.03 471.34 474.824 443.016 468.386 473.88 425.353 518.643 
560.689 547.806 525.543 471.134 479.025 517.671 489.124 536.276 536.276 
472.38 497.543 495.183 490.826 539.454 591.067 575.325 639.395 570.147 
547.403 493.798 526.937 484.051 506.428 479.811 495.008 490.422 458.329 
463.28 546.379 560.611 585.848 591.844 576.074 545.409 532.922 646.088 
557.085 568.659 577.22 506.12 459.013 465.296 467.685 481.333 494.14 
494.14 543.885 577.068 611.324 593.436 599.524 695.848 631.199 662.995 
610.379 542.635 544.993 531.015 464.791 457.682 556.948 452.393 458.526 
488.516 454.558 536.074 618.9 525.164 522.639 473.296 456.825 462.698 
488.724 461.481 496.177 492.764 468.489 515.061 507.044 511.377 527.617 
527.617 531.699 562.931 565.73 649.733 675.885 692.084 687.519 687.519 
719.279 701.062 701.062 724.852 724.852 766.642 667.61 687.399 597.167 
600.787 600.787 649.156 599.188 599.188 523.406 563.67 521.25 500.141 
592.249 594.595 543.232 575.009 480.885 491.795 523.724 623.437 626.172 
725.268 619.483 660.058 503.299 522.312 454.101 511.288 575.697 661.159 
711.339 726.7 767.097 512.949 564.853 546.854 602.922 588.909 625.349 
558.618 535.053 549.175 570.894 479.555 525.597 525.597 577.676 629.934 
395.95 392.006 412.86 490.159 487.333 562.326 548.461 546.611 497.645 
530.484 533.068 544.264 572.543 595.726 610.317 587.357 561.977 809.981 
717.007 675.764 660.554 656.036 633.745 704.169 758.806 758.806 883.032 
892.127 984.394 948.893 990.266 858.544 855.325 741.276 680.084 853.625 
906.125 839.939 905.456 905.456 837.298 721.962 858.227 770.414 556.731 
498.093 587.401 580.468 670.854 718.854 790.177 570.123 621.111 639.699 
739.491 739.491 755.79 733.643 696.836 681.838 769.893 800.853 740.258 
707.422 708.865 630.471 609.019 677.471 608.61 814.772 663.248 663.248 
574.947 560.757 584.643 613.55 658.953 658.953 733.035 733.035 818.364 
715.312 715.312 595.318 599.663 626.766 667.492 681.275 681.275 724.766 
691.685 714.347 732.078 724.898 670.343 617.885 551.349 532.661 543.485 
556.928 645.886 664.012 641.651 639.86 603.459 651.522 644.537 607.145 
594.59 580.576 633.197 591.472 594.074 591.011 621.222 620.376 462.457 
466.849 484.73 602.459 577.839 613.901 604.235 673.365 725.246 703.513 
908.3 797.754 723.614 566.041 659.306 650.396 572.596 582.731 543.296 
520.584 522.583 554.348 580.644 538.355 599.523 599.523 592.585 742.812 
672.741 716.673 649.027 588.697 545.743 455.432 497.592 485.305 597.496 
728.47 836.313 713.505 639.799 634.958 586.596 617.859 641.005 642.151 
642.151 655.715 655.715 701.56 760.258 809.8 774.984 676.652 676.652 
583.216 558.357 558.357 570.454 612.656 612.656 836.38 783.31 739.342 
811.643 782.657 750.817 750.817 673.102 648.132 684.218 818.382 898.498 
838.397 768.983 660.66 756.225 829.121 778.842 821.636 600.526 568.965 
407.033 411.303 396.149 385.198 418.77 409.311 396.27 436.604 451.689 
622.157 605.709 655.705 647.819 647.038 808.638 781.965 747.582 687.706 
700.715 744.608 807.082 887.556 964.379 925.043 961.11 949.866 828.253 
745.968 732.256 684.82 714.444 743.332 736.672 688.61 754.798 742.216 
750.833 813.949 830.24 742.64 826.571 819.859 710.676 662.892 786.862 
761.29 739.647 728.501 770.213 792.151 788.256 788.256 744.475 724.452 
687.376 687.376 713.545 756.958 778.332 769.025 808.534 754.499 754.499 
756.038 710.14 625.904 625.579 656.066 685.124 685.124 693.215 689.001 
760.376 838.759 785.034 835.399 688.338 654.441 699.074 723.423 685.535 
744.976 731.335 584.821 556.031 526.877 541.692 561.222 610.138 554.22 
577.241 590.508 597.007 648.102 652.721 627.113 594.232 611.065 601.312 
592.219 592.634 581.386 659.415 654.19 580.679 590.737 911.619 824.884 
855.637 779.253 779.706 769.887 795.953 793.514 806.553 814.432 623.744 
629.294 622.377 692.234 678.528 733.659 673.036 724.675 666.635 733.032 
681.245 652.362 621.985 670.243 766.651 689.478 786.37 739.866 728.268 
838.024 739.932 848.775 743.809 835.877 810.098 784.405 844.027 723.548 
782.319 837.22 922.227 744.592 744.592 715.795 628.526 583.673 551.095 
518.917 565.459 573.36 550.047 550.047 537.908 576.241 660.177 670.879 
626.531 714.65 668.825 766.715 702.383 761.454 697.542 775.236 649.336 
581.029 548.502 585.498 551.64 605.883 557.267 613.182 644.743 713.801 
700.904 650.09 627.69 592.421 621.448 656.168 655.95 712.964 738.172 
713.336 713.802 741.693 803.503 775.132 518.608 763.321 823.396 593.118 
659.586 884.551 1077.07 932.135 900.828 794.849 664.178 705.294 626.014 
689.388 743.484 476.51 593.366 759.494 834.526 930.158 869.928 721.575 
701.896 802.308 735.14 845.049 789.002 602.063 568.309 521.742 570.526 
617.337 664.056 664.814 660.487 743.571 785.598 748.318 677.096 614.821 
610.213 594.476 560.048 546.781 574.896 598.047 587.16 560.506 581.612 
513.008 509.807 503.136 492.346 515.035 533.417 704.121 675.383 656.542 
609.485 579.414 552.665 574.69 587.885 608.309 628.234 572.98 646.868 
663.249 640.729 684.386 688.719 677.973 676.074 629.711 637.05 661.919 
645.114 674.728 685.513 630.887 669.964 674.231 673.73 684.853 689.958 
630.246 651.488 606.59 572.31 628.784 658.907 726.716 785.482 895.691 
795.351 798.286 820.237 804.747 800.633 760.877 760.877 715.841 703.669 
651.857 667.487 646.106 620.061 690.858 684.066 689.86 654.087 617.082 
586.269 594.642 622.146 515.103 532.708 532.708 564.838 563.404 502.046 
521.159 468.549 456.031 487.244 601.915 927.322 804.167 824.396 827.079 
646.339 578.53 581.731 549.04 531.76 614.854 507.239 524.828 608.854 
528.312 565.67 532.866 542.886 566.674 591.618 668.094 606.535 618.81 
628.669 650.36 660.579 651.314 680.049 720.273 834.7 834.7 899.083 
854.655 916.982 796.456 758.97 758.97 683.14 683.14 660.107 613.471 
582.29 572.749 561.362 561.362 642.726 703.308 703.308 781.934 850.649 
768.365 870.453 726.805 660.527 762.543 762.543 706.95 751.41 801.211 
829.455 778.97 805.046 868.731 939.391 946.155 915.135 858.599 843.391 
871.306 930.351 909.166 881.22 1084.17 927.731 878.798 802.894 695.828 
702.673 657.252 657.252 759.708 804.752 804.752 829.329 781.103 804.282 
804.282 798.035 898.929 898.929 882.215 778.498 749.392 696.268 672.62 
708.659 765.625 765.625 523.601 538.679 555.059 586.324 610.642 610.077 
565.594 559.295 536.01 517.477 536.542 547.704 580.856 595.565 572.167 
603.7 616.636 562.625 598.717 603.063 609.744 647.033 712.773 754.251 
754.251 763.339 763.339 760.726 755.567 825.955 627.006 544.25 630.977 
582.012 563.904 676.614 625.503 611.615 712.076 675.336 694.637 686.076 
686.076 598.412 638.803 638.803 663.789 694.422 694.422 711.695 728.631 
690.691 597.773 634.249 542.204 505.764 537.969 509.257 484.145 548.608 

FIELD FieldData 7
DY_minmax 1 891 double
0.385939 0.516815 0.431346 0.822517 0.356134 0.469739 0.17783 0.507043 0.769695 
0.882375 0.65462 0.605042 0.567877 0.68254 0.559677 0.295866 0.420977 0.574267 
0.58011 0.105931 0.152177 0.495323 0.22868 0.928112 0.70314 0.566899 0.497119 
0.466169 0.289034 0.32929 0.366015 0.453565 0.361533 0.255691 0.394721 0.369317 
0.416621 0.533039 0.499451 0.109019 0.324326 0.446606 0.751638 0.752473 0.193075 
0.210542 0.209818 0.105441 0.445834 0.789794 0.340655 0.439821 0.218667 0.117934 
0.192528 0.174329 0.503838 0.269879 0.200226 0.128731 0.155096 0.29251 0.37922 
0 0.0272528 0.13371 0.138635 0.0936719 0.129533 0.137301 0.0687035 0.200576 
0.260013 0.241802 0.210331 0.133419 0.144574 0.199203 0.158849 0.225503 0.225503 
0.135179 0.170751 0.167413 0.161254 0.229996 0.302954 0.280703 0.37127 0.273382 
0.241232 0.165456 0.212301 0.151678 0.183309 0.145684 0.167167 0.160684 0.115317 
0.122316 0.239785 0.259903 0.295578 0.304053 0.281761 0.238414 0.220761 0.380733 
0.254919 0.271279 0.283381 0.182875 0.116285 0.125167 0.128544 0.147836 0.16594 
0.16594 0.236259 0.283167 0.331589 0.306303 0.31491 0.451073 0.359684 0.404631 
0.330254 0.234492 0.237826 0.218065 0.124453 0.114403 0.254725 0.106926 0.115596 
0.15799 0.109987 0.225218 0.342299 0.209796 0.206226 0.136475 0.113192 0.121493 
0.158283 0.119773 0.16882 0.163995 0.12968 0.195513 0.18418 0.190305 0.213262 
0.213262 0.219033 0.263183 0.267139 0.385885 0.422853 0.445751 0.439298 0.439298 
0.484194 0.458443 0.458443 0.492072 0.492072 0.551146 0.411156 0.439128 0.311578 
0.316694 0.316694 0.385069 0.314434 0.314434 0.207309 0.264226 0.204262 0.174423 
0.304626 0.307942 0.235336 0.280256 0.147203 0.162624 0.20776 0.348713 0.352579 
0.49266 0.343123 0.400481 0.178887 0.205764 0.109341 0.19018 0.281228 0.402037 
0.472971 0.494684 0.55179 0.192528 0.265898 0.240456 0.319713 0.299905 0.351415 
0.257085 0.223774 0.243736 0.274438 0.145322 0.210407 0.210407 0.284026 0.357897 
0.0271388 0.0215644 0.0510431 0.160313 0.156317 0.262326 0.242727 0.240113 0.170894 
0.217316 0.220968 0.236795 0.276769 0.30954 0.330166 0.29771 0.261834 0.61241 
0.480982 0.422682 0.401181 0.394795 0.363284 0.462835 0.54007 0.54007 0.715675 
0.728531 0.858958 0.808774 0.867259 0.681058 0.676507 0.515289 0.428788 0.674105 
0.748318 0.654759 0.747373 0.747373 0.651024 0.487987 0.680609 0.556478 0.254418 
0.171528 0.297772 0.287973 0.415742 0.483593 0.584415 0.273348 0.345425 0.371701 
0.512765 0.512765 0.535805 0.504498 0.452469 0.431269 0.555741 0.599507 0.513851 
0.467433 0.469473 0.358657 0.328332 0.425095 0.327754 0.619182 0.404989 0.404989 
0.280168 0.260109 0.293873 0.334736 0.398918 0.398918 0.50364 0.50364 0.62426 
0.478587 0.478587 0.308963 0.315107 0.353418 0.410989 0.430472 0.430472 0.491951 
0.445187 0.477222 0.502286 0.492137 0.415019 0.340865 0.24681 0.220392 0.235694 
0.254696 0.380446 0.40607 0.37446 0.371928 0.320472 0.388413 0.37854 0.325682 
0.307934 0.288124 0.36251 0.303527 0.307205 0.302875 0.345581 0.344385 0.121153 
0.127361 0.152638 0.319059 0.284255 0.335233 0.321569 0.419291 0.49263 0.461907 
0.751393 0.595125 0.490322 0.267578 0.399417 0.386822 0.276845 0.291171 0.235427 
0.203321 0.206146 0.251049 0.288221 0.228441 0.314908 0.314908 0.3051 0.51746 
0.418409 0.480511 0.384887 0.299604 0.238885 0.111223 0.170819 0.153451 0.312042 
0.497186 0.649632 0.476032 0.371841 0.364998 0.296634 0.340828 0.373546 0.375166 
0.375166 0.39434 0.39434 0.459147 0.542122 0.612154 0.562938 0.423938 0.423938 
0.291856 0.256716 0.256716 0.273817 0.333472 0.333472 0.649727 0.574708 0.512556 
0.614759 0.573785 0.528777 0.528777 0.418918 0.383621 0.434632 0.624286 0.737536 
0.652578 0.554456 0.401331 0.536421 0.639466 0.568392 0.628886 0.316325 0.271712 
0.0428056 0.0488427 0.0274211 0.0119408 0.059397 0.0460268 0.0275917 0.0846068 0.105931 
0.346903 0.323652 0.394326 0.383179 0.382075 0.610511 0.572807 0.524203 0.439562 
0.457953 0.519998 0.608312 0.722068 0.830666 0.77506 0.826044 0.810149 0.638239 
0.521921 0.502538 0.435483 0.477359 0.518196 0.508781 0.44084 0.534404 0.516618 
0.528799 0.618019 0.641047 0.517217 0.635861 0.626373 0.472034 0.404486 0.579729 
0.54358 0.512986 0.497231 0.556194 0.587206 0.581699 0.581699 0.519811 0.491506 
0.439097 0.439097 0.476089 0.537457 0.567671 0.554515 0.610364 0.533981 0.533981 
0.536156 0.471276 0.3522 0.351741 0.394837 0.435913 0.435913 0.447351 0.441394 
0.542288 0.653091 0.577145 0.64834 0.440456 0.39254 0.455633 0.490053 0.436494 
0.520519 0.501236 0.294126 0.253429 0.212217 0.233159 0.260766 0.329913 0.250869 
0.283411 0.302165 0.311352 0.383579 0.390109 0.353909 0.307428 0.331223 0.317437 
0.304583 0.305169 0.28927 0.399571 0.392185 0.28827 0.302488 0.756084 0.633477 
0.676949 0.568972 0.569613 0.555734 0.59258 0.589132 0.607565 0.618701 0.349146 
0.356992 0.347215 0.445964 0.426589 0.504521 0.418825 0.491822 0.409778 0.503635 
0.43043 0.3896 0.34666 0.414878 0.551158 0.442067 0.579034 0.513295 0.496901 
0.652051 0.513389 0.667248 0.518869 0.649015 0.612575 0.576256 0.660537 0.490229 
0.573307 0.650914 0.771079 0.519977 0.519977 0.479269 0.355907 0.292503 0.246451 
0.200964 0.266756 0.277925 0.24497 0.24497 0.22781 0.281997 0.400649 0.415777 
0.353086 0.477651 0.412873 0.551249 0.46031 0.543813 0.453466 0.563295 0.385323 
0.288766 0.242786 0.295083 0.247221 0.323899 0.255175 0.334216 0.378831 0.476451 
0.45822 0.386389 0.354725 0.304869 0.345901 0.394981 0.394673 0.475267 0.510901 
0.475793 0.476452 0.515878 0.603253 0.563147 0.200527 0.546451 0.631374 0.305854 
0.399812 0.717821 0.98996 0.785086 0.740831 0.59102 0.406304 0.464426 0.352355 
0.44194 0.518411 0.141019 0.306204 0.541042 0.647106 0.782291 0.69715 0.487439 
0.459622 0.601564 0.506615 0.661981 0.582754 0.318498 0.270784 0.204958 0.273918 
0.34009 0.406131 0.407203 0.401087 0.518533 0.577942 0.525243 0.424565 0.336534 
0.330019 0.307774 0.259107 0.240352 0.280096 0.312822 0.297432 0.259754 0.289589 
0.192612 0.188086 0.178656 0.163404 0.195476 0.221461 0.462767 0.422144 0.39551 
0.32899 0.286482 0.24867 0.279805 0.298457 0.327328 0.355494 0.277387 0.381835 
0.40499 0.373156 0.43487 0.440995 0.425805 0.42312 0.357581 0.367956 0.403111 
0.379356 0.421217 0.436463 0.359244 0.414483 0.420515 0.419806 0.43553 0.442746 
0.358338 0.388366 0.324898 0.27644 0.356271 0.398853 0.494706 0.577778 0.733568 
0.591729 0.595878 0.626908 0.60501 0.599195 0.542997 0.542997 0.479334 0.462129 
0.388887 0.410981 0.380757 0.34394 0.444019 0.434417 0.442608 0.392039 0.339729 
0.296173 0.308009 0.346888 0.195572 0.220459 0.220459 0.265878 0.26385 0.177116 
0.204134 0.129764 0.112069 0.156192 0.318289 0.778282 0.604191 0.632787 0.636579 
0.381087 0.285233 0.289757 0.243546 0.219119 0.336581 0.184456 0.20932 0.328099 
0.214245 0.267054 0.220682 0.234847 0.268473 0.303733 0.41184 0.324821 0.342173 
0.356109 0.386771 0.401217 0.388119 0.428739 0.485599 0.647353 0.647353 0.738363 
0.675561 0.763665 0.59329 0.540301 0.540301 0.433109 0.433109 0.400549 0.334625 
0.290547 0.277061 0.260964 0.260964 0.375979 0.461618 0.461618 0.572762 0.669898 
0.553582 0.697893 0.494834 0.401143 0.545352 0.545352 0.466766 0.529614 0.600012 
0.639938 0.568573 0.605434 0.695458 0.795343 0.804904 0.761055 0.681136 0.659638 
0.699098 0.782564 0.752617 0.713112 1 0.778861 0.709689 0.602392 0.451044 
0.46072 0.396514 0.396514 0.541344 0.605019 0.605019 0.63976 0.571588 0.604354 
0.604354 0.595524 0.738145 0.738145 0.714519 0.567906 0.526761 0.451666 0.418238 
0.469182 0.549708 0.549708 0.207585 0.2289 0.252055 0.296251 0.330626 0.329828 
0.266946 0.258042 0.225127 0.198929 0.225878 0.241657 0.28852 0.309313 0.276237 
0.320813 0.339099 0.26275 0.313769 0.319913 0.329356 0.382067 0.474997 0.53363 
0.53363 0.546476 0.546476 0.542783 0.535491 0.63499 0.353757 0.236775 0.359372 
0.290154 0.264557 0.423883 0.351633 0.332001 0.474012 0.422077 0.449361 0.437258 
0.437258 0.313338 0.370434 0.370434 0.405754 0.449057 0.449057 0.473474 0.497415 
0.443782 0.312435 0.363997 0.233883 0.182371 0.227895 0.187309 0.151812 0.242935 

WidthEq 1 891 double
2.40258 2.09443 1.71388 1 2.48716 2.14553 2.38994 2.01335 1.9051 
2.54215 1.81417 3.1319 2.7835 2.47 3.07124 3.76664 3.28131 1.70499 
1.91103 3.80303 2.29974 1.91267 3.57566 2.93045 3.34192 2.37518 3.15306 
3.21848 3.60044 4.1202 4.32849 3.23715 3.74063 3.88614 3.61949 2.5559 
3.06619 2.42061 3.83556 3.05935 3.35411 3.41007 2.39494 2.39142 4.11439 
3.88327 3.99374 4.33331 1.82204 1.0182 2.58231 2.60373 1.95522 3.57488 
3.14071 2.72506 2.01995 1.62207 2.09056 2.23547 2.37075 1.39926 1.88397 
2.69184 2.65862 2.64682 2.66131 2.62982 2.5816 2.52046 2.75577 2.57355 
2.59967 2.89967 3.10841 3.4322 3.57333 3.51073 4.03026 2.19224 2.19224 
2.29406 2.25338 2.23086 2.15161 2.09709 2.07246 2.20438 2.13903 2.31115 
2.40153 2.05573 2.12116 2.36939 2.35207 2.59762 2.70756 2.77097 2.82785 
2.72564 2.44717 2.33537 2.39204 2.39376 2.3011 2.5641 2.69087 2.54271 
2.95995 3.1453 3.35296 3.81808 2.60401 2.79318 2.22841 2.32374 2.38156 
2.38156 2.25865 2.19249 2.14723 2.17605 2.14683 1.89144 2.06582 1.98137 
2.16147 2.58923 2.62668 2.86782 3.36694 3.25456 3.27597 4.14913 4.50002 
4.32992 4.68769 3.9813 1.56136 1.94938 2.03195 2.24955 2.27591 2.28649 
2.15219 2.12125 1.99224 1.89211 1.85373 1.878 1.92535 1.98027 2.01685 
2.01685 1.92886 1.88788 1.90019 1.90511 1.95824 1.96379 1.9048 1.9048 
1.79451 1.80368 1.80368 1.7879 1.7879 1.63605 1.91389 1.75256 1.95569 
1.79818 1.79818 1.66472 1.78384 1.78384 2.05457 1.98177 2.10428 2.13483 
1.90188 1.93455 2.11169 2.07865 2.41262 2.4646 2.40303 2.38753 2.4701 
2.21024 2.64964 2.53466 3.17285 3.20945 3.57364 3.13709 2.8109 2.49172 
2.48535 2.36029 2.28518 3.14071 2.74655 2.71698 2.33889 2.26144 2.09631 
2.26265 2.37247 2.46964 2.55187 3.07724 2.62162 2.62162 2.69664 2.73063 
3.36622 2.92976 2.56216 2.1875 2.19278 2.20546 2.62228 2.95297 3.62949 
3.73756 1.99304 2.37898 2.55362 2.77243 2.99986 3.45062 3.90663 3.17676 
2.7472 3.08808 3.25275 2.66628 2.75081 2.28785 2.04937 2.04937 1.70405 
1.63982 1.51526 1.51676 1.4759 1.60322 1.55939 1.76556 1.88092 1.64921 
1.63496 1.72882 1.62122 1.62122 1.64352 1.68787 1.58874 1.7173 2.54621 
2.89085 2.7766 3.02774 3.17585 3.42963 3.38129 2.50035 2.32151 2.14467 
1.89449 1.89449 1.88086 1.78068 1.89692 1.82025 1.68547 1.73468 1.81248 
1.92019 2.19375 2.85773 3.59988 3.72632 2.98075 1.29989 1.81118 1.81118 
2.2234 2.26202 2.14723 2.12605 2.08186 2.08186 2.0577 2.0577 1.91532 
2.09961 2.09961 2.35109 2.31107 2.2653 2.09683 2.061 2.061 1.84797 
1.91977 1.83808 1.83156 1.88844 2.0969 2.27313 2.43772 2.44361 2.32971 
2.39086 2.0875 2.02849 2.08193 2.1825 2.36072 2.4955 2.47138 2.69316 
2.78521 3.04583 2.9848 3.12682 3.40587 3.62257 3.74001 2.9021 4.43439 
4.13392 3.4969 3.41679 3.83847 4.13872 4.03412 3.97152 3.44495 3.24323 
2.34568 2.68378 3.07822 3.57122 3.07688 3.05427 3.39355 3.52445 3.78489 
3.84216 3.71445 3.49264 3.16952 3.22861 2.59209 2.59209 2.40628 1.94804 
2.10184 2.03185 2.27973 2.4563 2.88849 3.70021 3.84573 4.1162 3.43754 
2.63726 2.23079 2.32881 2.40361 2.47638 2.74052 2.5916 2.59715 2.62167 
2.62167 2.62801 2.62801 2.49729 2.33006 2.19919 2.30487 2.62842 2.62842 
3.03969 3.0693 3.0693 3.05435 2.76827 2.76827 2.52751 2.52844 2.71017 
2.67064 2.63946 2.66462 2.66462 2.33095 2.10614 2.00824 2.02682 2.44456 
2.61939 2.98136 3.46793 3.46257 3.48659 3.67693 2.26238 3.12226 3.9789 
3.37751 3.81848 4.10798 4.22194 4.14995 4.25968 4.26829 3.99034 3.80303 
4.28627 4.24883 4.17802 4.2436 4.30643 3.82367 3.94521 2.56902 2.48049 
2.39011 2.08472 1.95324 1.77882 2.06067 2.34789 2.2474 2.52704 3.42449 
2.42069 2.42137 2.46038 2.39262 2.58051 2.55132 2.88171 2.83863 2.91753 
2.74939 2.64128 2.5521 2.78393 2.59338 2.64773 3.00814 3.19803 2.82579 
2.9778 2.85729 2.79807 2.75789 2.53926 2.53232 2.53232 2.62875 2.72019 
2.76517 2.76517 2.63115 2.43852 2.41712 2.36161 2.10976 2.2581 2.2581 
2.29313 2.46411 2.64417 2.7068 2.52711 2.47325 2.47325 2.50704 2.64559 
2.57145 2.51446 2.75214 2.65139 2.97006 2.949 2.81851 2.44913 2.41081 
2.19986 2.05407 2.24396 2.3515 2.33156 2.87912 3.39788 3.38249 3.80234 
3.73304 3.75359 3.78164 3.62777 3.50497 3.41418 3.50859 3.56328 3.89855 
3.92386 3.916 3.68135 3.14755 3.1233 3.50536 3.45556 2.65687 2.92036 
2.61406 2.87793 2.96206 2.94445 2.67361 2.63857 2.56074 2.46597 3.05644 
2.56763 2.55748 2.44503 2.17875 2.10708 2.19378 2.07059 2.21482 2.09334 
2.21704 2.42242 2.4277 2.3624 2.13797 2.22266 2.03531 2.05234 1.86913 
1.71121 1.75878 1.57617 1.75562 1.6926 1.8097 1.84609 1.77348 1.85156 
1.81639 1.77167 1.66771 1.88211 1.88211 1.9553 2.17333 2.1298 2.27827 
2.62284 2.5563 2.61723 2.62651 2.62651 2.51585 2.4322 2.3431 2.4212 
2.62237 2.37289 2.7183 2.45358 2.78253 2.59431 3.02102 2.86616 3.26651 