# vtk DataFile Version 3.0
vtk output
ASCII
DATASET POLYDATA
POINTS 811 float
1.96442 1.29776 0.316272 0.558416 0.960714 0.416328 2.07961 1.89344 -0.206605 
-0.408676 0.0784004 0.29192 -0.421273 0.81934 -0.343565 0.994031 -0.494626 0.449733 
0.15598 0.430327 -0.0137131 0.220877 1.40927 -0.409574 -0.265957 0.763032 -0.192394 
2.61774 0.648841 -0.0759031 2.6449 1.86004 -0.570963 0.03242 -0.673495 0.101921 
-0.199564 -0.51937 0.124088 4.92706 0.771837 -0.113994 0.1221 -0.917729 -0.0059341 
6.06658 0.47335 -0.239933 5.14011 0.747339 -0.311949 2.55066 2.09577 -1.1115 
1.79152 -0.640311 -0.0625366 0.312472 -1.01263 -0.0565772 6.35972 0.642192 -0.352561 
5.94986 0.555971 -0.357877 6.49726 -0.339734 -0.15249 6.14691 -0.644563 -0.0620496 
5.93238 0.799034 -0.676648 5.01736 1.16397 -0.917598 1.20311 1.97267 -1.62917 
1.05339 2.0254 -1.69388 -0.194434 1.26694 -1.55047 -0.851165 -0.593993 -0.778601 
7.00679 -0.00939247 -0.599492 5.3981 0.974167 -1.01888 3.40627 1.0754 -1.40328 
-0.519986 0.873099 -1.52553 7.10999 -0.172816 -0.594456 6.59735 -0.0119337 -0.856299 
5.29709 0.838116 -1.49416 -0.812457 -0.630992 -1.26622 6.96321 0.19348 -1.19387 
6.71525 0.63259 -1.29041 3.10643 -0.081702 -1.24709 -0.0124995 0.139108 -1.64793 
-0.274242 0.913382 -1.99215 6.8258 -0.269352 -1.01732 6.20579 0.847832 -1.68285 
1.61637 -1.35843 -1.08769 -0.262547 -1.32862 -1.4315 -0.58222 -1.11047 -1.66151 
4.70511 0.489764 -1.75728 4.12341 -0.557111 -1.38489 2.86902 1.4291 -2.32587 
-0.62484 -0.846064 -1.81061 -0.45487 -0.128254 -2.0887 7.05863 -0.766964 -1.22396 
6.92355 -0.670815 -1.33119 6.58279 0.512898 -1.79725 0.0954844 0.840861 -2.57702 
6.83288 0.241228 -1.87788 6.43091 0.52896 -2.10848 5.07074 0.37266 -2.25185 
4.71802 0.238196 -2.0869 5.94623 0.521912 -2.37091 0.910228 0.921118 -2.96328 
0.0258196 -0.699273 -2.38529 6.60863 -1.01193 -1.81946 6.69724 0.0671767 -2.25412 
0.792926 -1.37202 -2.24969 6.2464 -0.345145 -2.34664 4.98124 -0.754045 -2.30438 
2.42633 0.204017 -2.95213 1.26789 0.245832 -3.08449 0.477919 -0.0359134 -3.04724 
1.23726 -1.05472 -2.7702 1.20407 -0.972301 -2.80737 1.19808 -0.910414 -2.83339 
1.196 -0.856662 -2.85569 1.18141 -0.801993 -2.87961 1.18168 -0.749931 -2.90098 
1.19166 -0.699531 -2.9207 1.20352 -0.649452 -2.9401 1.21736 -0.599711 -2.95917 
1.24279 -0.551953 -2.97626 1.29455 -0.508698 -2.9889 1.35789 -0.467425 -2.99956 
1.42311 -0.426472 -3.0099 1.48844 -0.385539 -3.02023 1.55377 -0.344604 -3.03056 
1.61842 -0.300867 -3.03406 1.68169 -0.251621 -3.02389 1.74253 -0.195621 -2.9926 
1.80043 -0.145895 -2.95098 1.85398 -0.112466 -2.91114 1.90311 -0.0720002 -2.89876 
1.94102 -0.0255169 -2.90605 1.99473 0.0172987 -2.9183 2.05808 0.0585722 -2.92897 
2.12142 0.0998452 -2.93963 2.17514 0.142661 -2.95189 2.2137 0.186241 -2.96596 
2.26443 0.216446 -2.97333 2.31903 0.220332 -2.9695 2.37284 0.213062 -2.96116 
1.16386 -1.0824 -2.69374 1.11404 -1.10885 -2.62348 1.05553 -1.13547 -2.57011 
0.991313 -1.16588 -2.53182 0.936853 -1.19792 -2.4919 0.905467 -1.22853 -2.43419 
0.875279 -1.25666 -2.36933 0.832927 -1.2854 -2.31348 0.807446 -1.32508 -2.27558 
1.31076 -1.04497 -2.70255 1.37336 -1.01538 -2.65219 1.42692 -0.995932 -2.60661 
1.47869 -0.972878 -2.55464 1.53259 -0.934843 -2.50057 1.58321 -0.910704 -2.44112 
1.63372 -0.903975 -2.39866 1.68695 -0.908458 -2.38348 1.74437 -0.912256 -2.39229 
1.80478 -0.897792 -2.40027 1.86341 -0.88513 -2.39964 1.92287 -0.863298 -2.39466 
1.98221 -0.853341 -2.4009 2.04237 -0.834214 -2.40278 2.10075 -0.816981 -2.39601 
2.16103 -0.780357 -2.38094 2.22131 -0.743732 -2.36588 2.27695 -0.715374 -2.33178 
2.33059 -0.672782 -2.27158 2.37786 -0.634421 -2.17809 2.42334 -0.6036 -2.08168 
2.47265 -0.573655 -2.00867 2.5283 -0.539564 -1.9689 2.58352 -0.512982 -1.93411 
2.64055 -0.484397 -1.90802 2.69296 -0.464006 -1.86293 2.74467 -0.440905 -1.81099 
2.79656 -0.394369 -1.73649 2.84423 -0.354343 -1.64365 2.89025 -0.304253 -1.53099 
2.94132 -0.232834 -1.42658 2.99414 -0.165363 -1.33646 3.04748 -0.124036 -1.27577 
0.404236 -0.038438 -2.94898 0.335792 -0.0415198 -2.88214 0.276156 -0.0357368 -2.85828 
0.218557 -0.0383641 -2.85488 0.156217 -0.0666781 -2.84944 0.0914356 -0.105773 -2.83981 
0.0280075 -0.146928 -2.82921 -0.0256252 -0.189862 -2.8169 -0.0627503 -0.23562 -2.80178 
-0.10558 -0.277713 -2.7807 -0.145419 -0.312255 -2.73829 -0.206287 -0.325112 -2.65328 
-0.282997 -0.308017 -2.50976 -0.36741 -0.245856 -2.31048 1.20878 0.282171 -3.03292 
1.153 0.32644 -2.99231 1.10629 0.389436 -2.9746 1.07568 0.452909 -2.9796 
1.07138 0.508338 -2.99476 1.06888 0.563561 -3.00966 1.05039 0.626894 -3.0134 
1.0349 0.697777 -2.99583 1.0118 0.772549 -2.97255 0.993881 0.841914 -2.95459 
0.958942 0.894929 -2.95572 5.03471 -0.763191 -2.29531 5.08818 -0.772336 -2.28623 
5.14162 -0.781581 -2.27712 5.19468 -0.792484 -2.26736 5.24557 -0.812483 -2.25408 
5.29388 -0.84909 -2.24228 5.3468 -0.8776 -2.24943 5.4028 -0.90438 -2.27307 
5.45595 -0.937552 -2.28632 5.50057 -0.984065 -2.26277 5.53991 -1.03022 -2.20772 
5.57815 -1.07532 -2.14517 5.61775 -1.12604 -2.09626 5.6591 -1.1807 -2.06165 
5.70328 -1.22907 -2.03737 5.75008 -1.26074 -2.01166 5.79267 -1.29884 -1.96765 
5.83364 -1.32676 -1.90385 5.87937 -1.3289 -1.84212 5.92833 -1.32308 -1.79139 
5.97974 -1.32391 -1.76181 6.03256 -1.33015 -1.74595 6.08646 -1.33744 -1.7376 
6.14294 -1.33388 -1.73345 6.20526 -1.30565 -1.73885 6.27015 -1.26658 -1.74846 
6.33545 -1.22574 -1.75875 6.40068 -1.18479 -1.76909 6.46413 -1.14353 -1.77974 
6.51787 -1.10062 -1.79203 6.55677 -1.05517 -1.80684 6.29615 -0.438017 -2.40003 
6.34183 -0.514064 -2.41249 6.38198 -0.567663 -2.37039 6.41765 -0.609744 -2.3013 
6.44359 -0.650162 -2.23385 6.45675 -0.696457 -2.18939 6.48421 -0.750573 -2.15638 
6.51225 -0.807477 -2.1302 6.52555 -0.861859 -2.10653 6.54331 -0.914315 -2.07516 
6.554 -0.957501 -2.02418 6.57782 -0.989493 -1.9363 0.830743 -1.39059 -2.15788 
0.870075 -1.39142 -2.05712 0.904105 -1.39763 -1.93055 0.935719 -1.40838 -1.79431 
0.970867 -1.41553 -1.67527 1.01522 -1.41216 -1.59987 1.06486 -1.40914 -1.55596 
1.11559 -1.40717 -1.51956 1.16431 -1.39669 -1.46273 1.211 -1.37779 -1.38542 
1.25631 -1.3534 -1.29445 1.30258 -1.33626 -1.21646 1.34875 -1.33654 -1.15546 
1.39477 -1.36016 -1.11705 1.44756 -1.3665 -1.10115 1.50645 -1.35276 -1.10094 
1.56247 -1.35114 -1.09604 0.721492 -1.38772 -2.17795 0.65006 -1.40342 -2.10623 
0.578627 -1.41912 -2.03449 0.507217 -1.43471 -1.9628 0.436879 -1.45146 -1.89857 
0.370075 -1.46462 -1.85156 0.308989 -1.47064 -1.83103 0.247885 -1.48239 -1.81619 
0.189787 -1.47578 -1.80055 0.131832 -1.45157 -1.76801 0.0735893 -1.4229 -1.72928 
0.0160501 -1.39693 -1.69743 -0.0404369 -1.37579 -1.67688 -0.0995966 -1.35187 -1.64166 
-0.170678 -1.32935 -1.56148 6.03186 0.432891 -2.39551 6.09673 0.378692 -2.41504 
6.15014 0.345461 -2.41752 6.20673 0.350899 -2.41145 6.25994 0.361288 -2.38094 
6.30932 0.381083 -2.31446 6.36279 0.431556 -2.2173 6.73877 0.132335 -2.09984 
6.78592 0.198501 -1.97758 6.66105 0.0212591 -2.23885 6.66412 -0.0313742 -2.21691 
6.67613 -0.0882241 -2.2004 6.70729 -0.151036 -2.18757 6.74906 -0.218351 -2.17988 
6.79114 -0.280344 -2.15826 6.8302 -0.336443 -2.12328 6.85753 -0.38237 -2.06952 
6.86984 -0.421318 -2.01208 6.89758 -0.448063 -1.94204 6.93642 -0.462339 -1.87601 
6.96285 -0.49155 -1.81312 6.96227 -0.530977 -1.76481 6.94928 -0.568113 -1.71263 
6.93285 -0.595648 -1.63058 6.92073 -0.622446 -1.50214 6.64551 0.176512 -2.15944 
6.60458 0.286688 -2.05598 6.58862 0.397972 -1.93441 6.66188 -1.01631 -1.80432 
6.7163 -1.00442 -1.77967 6.77296 -0.956164 -1.73153 6.82611 -0.887304 -1.64196 
6.87305 -0.800766 -1.49794 -0.0290673 -0.713116 -2.40918 -0.0927633 -0.735824 -2.3901 
-0.163078 -0.752469 -2.32591 -0.235166 -0.765263 -2.24739 -0.307277 -0.778159 -2.16884 
-0.379216 -0.792049 -2.09255 -0.452734 -0.804197 -2.00907 -0.532686 -0.81913 -1.91438 
5.05031 0.252823 -2.34404 5.02655 0.163874 -2.40635 4.97721 0.109099 -2.4236 
4.91462 0.0863022 -2.399 4.84933 0.10175 -2.33142 4.78102 0.144577 -2.21909 
5.15083 0.451324 -2.15344 5.20566 0.533667 -2.00168 5.25066 0.66424 -1.7769 
5.83985 0.572449 -2.26285 5.76118 0.602385 -2.18647 5.69571 0.599797 -2.14903 
5.63605 0.590856 -2.14056 5.57524 0.574634 -2.13189 5.51283 0.577707 -2.09432 
5.44256 0.607099 -1.9815 5.36908 0.697914 -1.7736 5.95523 0.663476 -2.18425 
5.98259 0.750672 -2.00825 6.02262 0.798981 -1.874 6.0717 0.832119 -1.78891 
6.13328 0.857399 -1.73689 4.71156 0.36398 -1.92209 4.66086 0.163716 -2.15848 
4.60001 0.107718 -2.18977 4.5359 0.0832435 -2.17001 4.47234 0.0837918 -2.12829 
4.40551 0.0705329 -2.08124 4.33809 0.0425369 -2.04426 4.27394 0.0122566 -2.00603 
4.22961 -0.0161425 -1.95052 4.22397 -0.0484673 -1.88149 4.20793 -0.0817071 -1.82117 
4.18052 -0.118374 -1.77666 4.18255 -0.160078 -1.72715 4.18615 -0.196677 -1.6635 
4.18792 -0.230268 -1.59321 4.16897 -0.26301 -1.53339 4.17168 -0.307518 -1.49071 
4.16896 -0.356472 -1.46281 4.15887 -0.406854 -1.44311 4.14712 -0.456952 -1.42369 
4.13526 -0.507031 -1.40429 4.98118 0.430399 -2.07807 4.90439 0.479828 -1.93712 
4.83442 0.49966 -1.84232 4.77014 0.506771 -1.78998 6.36191 0.644457 -2.00195 
6.28816 0.743456 -1.85695 6.49455 0.527246 -1.99421 6.54388 0.529187 -1.89359 
6.86125 0.242697 -1.69069 6.89978 0.234686 -1.46642 6.84568 0.368913 -1.69183 
6.80067 0.503541 -1.4983 -0.573978 -0.935005 -1.80518 -0.553333 -1.01506 -1.75817 
-0.476389 -1.17633 -1.703 -0.411418 -1.23977 -1.70399 -0.368041 -1.28629 -1.64839 
-0.323191 -1.31428 -1.55066 0.0233734 0.827963 -2.49847 -0.0500709 0.820777 -2.40631 
-0.125812 0.826562 -2.28754 -0.201719 0.854326 -2.14564 6.6337 0.581915 -1.68785 
6.67641 0.625245 -1.52046 6.88012 -0.507985 -1.23152 6.84198 -0.378516 -1.12566 
7.0029 -0.717821 -1.27583 -0.533943 -0.068929 -2.05392 -0.599227 -0.0139808 -2.00257 
-0.665962 0.000951027 -1.92419 -0.727946 -0.000910429 -1.82237 -0.775624 -0.00972111 -1.71893 
-0.836188 -0.0165302 -1.61761 -0.892842 -0.0320669 -1.53643 -0.922923 -0.0602157 -1.47156 
-0.938702 -0.101562 -1.43201 -0.949353 -0.149159 -1.40546 -0.947058 -0.204348 -1.3906 
[...]
POINT_DATA 811
SCALARS DY_raw double
LOOKUP_TABLE default
449.82 362.784 591.242 625.718 460.571 452.73 185.657 326.711 731.798 
473.185 461.397 424.304 347.539 574.775 417.09 625.508 594.026 336.439 
487.151 425.82 618.441 578.353 759.534 548.098 574.865 490.189 534.914 
449.567 508.967 489.217 779.329 564.431 452.633 442.997 1219.24 540.296 
679.909 534.113 615.208 691.554 515.419 372.09 369.548 700.694 576.701 
758.798 374.153 357.761 524.004 622.081 500.194 372.788 460.059 844.304 
646.289 660.896 365.99 548.921 475.823 389.298 655.899 421.49 330.49 
538.597 636.594 460.952 292.792 732.499 597.989 619.908 444.176 440.492 
352.246 363.518 383.802 422.401 453.778 472.47 447.156 447.156 408.912 
393.862 425.125 428.643 441.442 441.442 492.078 555.071 549.323 551.493 
572.208 556.037 535.573 506.488 554.757 467.82 473.545 494.721 464.601 
446.409 491.1 491.1 350.075 345.109 344.074 371.614 337.063 339.281 
333.444 328.764 316.625 397.448 464.131 479.89 486.555 496.625 545.034 
613.106 552.249 552.249 525.25 493.831 556.084 461.767 538.448 521.699 
563.82 451.751 449.616 446.957 509.944 476.095 507.666 530.483 459.591 
420.83 402.369 403.277 436.894 414.465 418.187 400.003 459.556 474.678 
439.292 490.846 484.335 484.335 469.036 467.141 473.228 442.288 437.39 
456.58 444.714 413.847 376.084 349.929 418.157 474.642 478.24 426.558 
426.558 356.062 333.364 353.353 372.011 336.363 355.828 611.858 611.858 
673.704 685.348 685.348 724.539 637.433 619.012 655.092 654.043 646.855 
643.827 674.272 605.455 501.082 469.703 469.703 506.763 515.859 557.411 
597.129 544.723 544.723 567.102 663.158 584.903 670.882 574.757 567.067 
633.755 612.964 652.928 545.738 627.551 658.022 757.405 842.597 711.619 
695.1 607.834 541.201 554.05 579.64 391.717 424.638 483.651 445.018 
344.115 369.079 369.079 406.279 391.377 411.754 436.65 435.096 474.606 
491.275 531.363 581.141 758.798 315.072 340.697 302.057 301.026 346.478 
348.139 306.658 315.572 315.572 301.171 322.073 351.566 333.235 342.484 
358.321 480.634 468.773 403.183 414.005 483.32 475.965 511.711 540.388 
604.176 508.32 508.32 522.886 514.514 501.046 475.659 479.171 453.251 
464.772 492.201 513.888 514.404 534.053 565.231 599.826 616.285 492.305 
558.668 589.083 641.25 678 711.796 757.235 720.038 482.892 390.334 
443.766 450.847 440.468 422.264 394.522 382.546 419.361 390.423 395.602 
418.706 500.004 565.592 415.453 462.346 570.535 445.213 558.893 517.332 
519.06 462.169 548.723 532.36 580.364 415.227 461.042 467.916 494.981 
522.395 441.504 575.58 533.657 566.314 590.801 561.409 622.476 556.185 
543.087 582.763 580.243 580.243 573.271 555.624 612.583 521.393 539.299 
539.299 537.064 565.708 584.802 434.859 495.04 465.816 463.694 500.893 
510.053 473.612 561.719 659.947 702.525 743.364 805.585 380.627 382.284 
343.386 273.998 298.101 319.887 398.85 376.997 445.467 418.67 712.844 
764.702 673.713 679.45 737.962 412.068 418.394 499.702 490.18 485.956 
566.823 520.241 576.306 639.379 630.8 590.085 587.031 559.722 559.664 
531.33 523.617 501.107 407.214 498.706 470.638 442.982 391.079 452.614 
498.294 423.433 454.05 467.68 470.186 470.186 451.925 413.184 413.184 
374.131 361.024 405.623 455.651 484.401 434.17 453.812 399.126 490.545 
544.065 535.517 511.715 456.701 456.701 422.859 408.83 427.05 402.64 
366.706 414.629 466.947 470.976 431.186 483.908 420.013 578.108 570.959 
549.984 562.232 545.269 431.566 442.658 442.489 407.512 407.512 369.92 
372.465 429.357 515.552 451.312 465.328 438.417 415.585 445.411 382.331 
480.411 454.411 495.1 528.115 573.363 668.645 674.404 674.429 739.079 
566.764 569.237 622.892 591.24 591.24 543.038 403.848 409.006 424.922 
595.22 608.626 535.983 459.85 615.576 611.693 646.779 671.519 650.5 
634.766 621.01 619.61 574.079 520.083 387.952 488.452 525.17 529.125 
523.433 416.528 472.16 445.758 407.552 448.825 488.629 492.344 477.861 
386.421 671.448 587.198 529.782 524.967 477.905 537.676 567.778 755.537 
736.812 623.281 610.753 590.569 454.688 435.797 435.383 439.542 411.828 
555.306 758.988 683.784 638.597 579.774 613.852 641.219 682.201 802.499 
784.349 751.333 773.409 771.265 749.407 740.311 740.311 659.205 642.062 
704.391 704.396 722.346 750.725 513.238 491.506 524.604 567.244 462.073 
491.036 621.699 594.455 556.634 494.196 495.439 507.072 571.663 843.717 
504.452 589.189 567.962 508.954 497.761 470.058 458.942 513.713 499.266 
540.695 579.347 597.108 609.989 657.696 776.009 669.791 702.33 576.267 
588.286 532.097 553.793 554.769 566.311 515.529 447.516 450.99 478.717 
535.767 585.538 489.019 528.728 453.548 453.428 453.428 462.546 441.688 
578.834 588.316 641.114 641.114 646.506 716.31 741.848 703.519 649.936 
577.231 540.618 586.73 537.26 582.756 531.995 476.18 522.505 561.903 
626.892 481.134 492.048 509.922 531.927 587.637 568.386 588.612 538.042 
450.226 406.676 449.415 441.464 465.133 460.28 494.398 472.802 480.52 
467.435 475.235 478.51 449.567 584.498 645.198 664.37 662.941 650.854 
729.297 506.977 431.524 438.053 378.689 472.759 534.914 574.865 559.979 
552.561 580.961 569.874 571.945 623.177 622.88 603.545 646.476 667.807 
583.674 585.327 600.452 659.505 675.605 645.821 622.303 622.303 655.787 
685.824 685.824 731.187 723.959 711.391 643.76 586.557 588.863 610.452 
381.951 391.618 437.312 429.909 440.497 464.299 467.738 508.174 512.217 
544.434 544.434 543.669 572.647 608.269 604.111 564.934 554.045 502.99 
557.598 510.589 476.539 476.539 446.866 404.098 443.867 476.429 439.241 
534.842 565.497 591.527 544.122 458.014 568.893 548.414 417.327 417.327 
436.936 443.08 414.814 443.243 412.501 430.111 441.33 392.56 432.922 
454.451 474.853 426.845 412.849 408.61 408.61 432.928 447.479 463.975 
463.975 452.117 425.718 458.771 450.978 482.421 515.203 561.106 578.109 
631.127 445.932 462.144 446.194 424.556 396.312 443.855 452.026 418.989 
434.458 422.536 529.387 565.777 428.198 464.224 485.784 522.973 513.166 
537.363 491.633 512.209 455.924 398.231 369.044 425.551 486.488 519.391 
549.931 601.241 615.985 553.048 568.383 551.439 523.588 523.588 491.252 
572.188 515.435 557.017 640.312 603.561 655.071 635.728 646.471 559.633 
559.633 496.642 546.253 464.013 507.642 585.064 521.281 545.689 545.689 
554.263 616.926 604.815 275.736 333.858 397.373 420.474 455.243 480.585 
430.639 457.092 430.36 670.549 697.024 562.713 611.881 570.747 519.916 
519.916 449.153 427.695 460.348 430.735 407.065 394.601 427.814 433.599 
449.726 449.726 366.448 385.55 456.042 430.987 492.299 496.511 496.511 
411.413 433.097 433.097 473.467 430.306 430.018 468.924 440.025 466.047 
450.772 
FIELD FieldData 7
DY_minmax 1 811 double
0.255581 0.171372 0.392408 0.425764 0.265982 0.258396 0 0.136471 0.528397 
0.278186 0.266781 0.230893 0.156623 0.376476 0.223914 0.425561 0.395101 0.145883 
0.291698 0.232361 0.418723 0.379938 0.555232 0.350666 0.376563 0.294638 0.337911 
0.255336 0.312807 0.293697 0.574384 0.366468 0.258303 0.248979 1 0.343117 
0.478195 0.337135 0.415596 0.489462 0.319049 0.180376 0.177916 0.498304 0.37834 
0.554521 0.182372 0.166513 0.327355 0.422245 0.304318 0.181051 0.265487 0.637248 
0.445666 0.459799 0.174474 0.351462 0.280739 0.197025 0.454964 0.228171 0.140128 
0.341474 0.436287 0.266352 0.103654 0.529076 0.398936 0.420142 0.25012 0.246556 
0.161176 0.172083 0.191707 0.229053 0.259411 0.277495 0.253003 0.253003 0.216001 
0.20144 0.231688 0.235092 0.247475 0.247475 0.296466 0.357412 0.351851 0.353951 
0.373992 0.358347 0.338548 0.310408 0.357109 0.272996 0.278535 0.299023 0.269881 
0.252281 0.29552 0.29552 0.159076 0.154272 0.153271 0.179915 0.146487 0.148633 
0.142986 0.138458 0.126713 0.20491 0.269427 0.284674 0.291123 0.300865 0.347701 
0.413561 0.354682 0.354682 0.32856 0.298162 0.358392 0.26714 0.34133 0.325125 
0.365877 0.257449 0.255384 0.252811 0.313751 0.281002 0.311548 0.333623 0.265035 
0.227533 0.209671 0.210549 0.243075 0.221374 0.224976 0.207382 0.265001 0.279632 
0.245395 0.295273 0.288974 0.288974 0.274173 0.272339 0.278229 0.248293 0.243555 
0.262121 0.25064 0.220777 0.18424 0.158935 0.224947 0.279596 0.283077 0.233075 
0.233075 0.164869 0.142908 0.162248 0.1803 0.14581 0.164642 0.412354 0.412354 
0.472191 0.483457 0.483457 0.521374 0.437098 0.419276 0.454184 0.453169 0.446214 
0.443285 0.47274 0.406159 0.305177 0.274818 0.274818 0.310674 0.319474 0.359676 
0.398104 0.3474 0.3474 0.369053 0.461988 0.386275 0.469461 0.376459 0.369019 
0.43354 0.413424 0.45209 0.348383 0.427538 0.457019 0.553172 0.635597 0.508875 
0.492891 0.408461 0.343993 0.356425 0.381183 0.199366 0.231216 0.288313 0.250935 
0.15331 0.177463 0.177463 0.213454 0.199037 0.218752 0.242839 0.241335 0.279561 
0.295689 0.334474 0.382636 0.554521 0.12521 0.150003 0.112618 0.111621 0.155597 
0.157203 0.11707 0.125694 0.125694 0.111761 0.131984 0.160519 0.142783 0.151732 
0.167054 0.285394 0.273918 0.210459 0.22093 0.287992 0.280876 0.315461 0.343206 
0.404922 0.31218 0.31218 0.326273 0.318173 0.305142 0.28058 0.283978 0.2589 
0.270047 0.296585 0.317567 0.318067 0.337077 0.367243 0.400713 0.416638 0.296686 
0.360892 0.39032 0.440791 0.476347 0.509045 0.553008 0.51702 0.287579 0.198027 
0.249723 0.256574 0.246533 0.22892 0.202079 0.190492 0.226111 0.198114 0.203124 
0.225478 0.304134 0.367592 0.22233 0.2677 0.372373 0.251123 0.36111 0.320899 
0.322571 0.267529 0.35127 0.335439 0.381884 0.222111 0.266438 0.273088 0.299274 
0.325798 0.247535 0.377255 0.336694 0.36829 0.391981 0.363545 0.422628 0.358491 
0.345817 0.384205 0.381766 0.381766 0.375021 0.357947 0.413056 0.324829 0.342153 
0.342153 0.33999 0.367703 0.386177 0.241106 0.299332 0.271057 0.269004 0.304994 
0.313857 0.2786 0.363844 0.458881 0.500076 0.539588 0.599788 0.188635 0.190239 
0.152604 0.0854708 0.108791 0.129869 0.206267 0.185123 0.251369 0.225443 0.51006 
0.560232 0.4722 0.477751 0.534362 0.219055 0.225176 0.303843 0.29463 0.290542 
0.368783 0.323714 0.377957 0.438982 0.430681 0.391289 0.388334 0.361912 0.361856 
0.334442 0.32698 0.305201 0.214359 0.302878 0.275723 0.248965 0.198748 0.258284 
0.30248 0.230051 0.259673 0.272861 0.275285 0.275285 0.257618 0.220135 0.220135 
0.182351 0.16967 0.21282 0.261222 0.289038 0.24044 0.259443 0.206533 0.294983 
0.346763 0.338494 0.315464 0.262238 0.262238 0.229495 0.215923 0.23355 0.209934 
0.175167 0.221533 0.272152 0.27605 0.237552 0.288561 0.226742 0.379701 0.372784 
0.35249 0.364341 0.347929 0.23792 0.248651 0.248488 0.214648 0.214648 0.178276 
0.180738 0.235782 0.319177 0.257024 0.270585 0.244548 0.222458 0.251315 0.190285 
0.285178 0.260023 0.29939 0.331332 0.37511 0.467296 0.472868 0.472892 0.535442 
0.368725 0.371118 0.423029 0.392406 0.392406 0.34577 0.211102 0.216093 0.231491 
0.396257 0.409227 0.338945 0.265284 0.415952 0.412195 0.446141 0.470077 0.449741 
0.434519 0.421209 0.419855 0.375802 0.323561 0.195723 0.292958 0.328483 0.332309 
0.326802 0.223371 0.277195 0.25165 0.214686 0.254618 0.293129 0.296723 0.282711 
0.194242 0.470008 0.388496 0.332945 0.328287 0.282753 0.340582 0.369706 0.551365 
0.533248 0.423406 0.411285 0.391757 0.26029 0.242013 0.241612 0.245637 0.218823 
0.35764 0.554704 0.481943 0.438225 0.381313 0.414284 0.440761 0.480412 0.596801 
0.579241 0.547298 0.568657 0.566582 0.545435 0.536634 0.536634 0.458163 0.441577 
0.501881 0.501886 0.519253 0.54671 0.316939 0.295912 0.327935 0.36919 0.267436 
0.295457 0.421876 0.395517 0.358925 0.298515 0.299717 0.310973 0.373466 0.63668 
0.308438 0.390422 0.369884 0.312793 0.301964 0.275161 0.264406 0.317398 0.30342 
0.343503 0.3809 0.398083 0.410546 0.456703 0.571173 0.468406 0.499887 0.37792 
0.389548 0.335184 0.356176 0.35712 0.368287 0.319155 0.253351 0.256713 0.283539 
0.338735 0.38689 0.293506 0.331925 0.259188 0.259071 0.259071 0.267894 0.247713 
0.380404 0.389578 0.440659 0.440659 0.445877 0.513413 0.538121 0.501037 0.449195 
0.378853 0.343429 0.388043 0.34018 0.384198 0.335086 0.281084 0.325904 0.364022 
0.4269 0.285877 0.296436 0.31373 0.33502 0.38892 0.370295 0.389864 0.340936 
0.255974 0.213839 0.255189 0.247496 0.270396 0.265701 0.29871 0.277816 0.285283 
0.272623 0.28017 0.283338 0.255336 0.385883 0.444611 0.46316 0.461778 0.450083 
0.525978 0.310881 0.237879 0.244196 0.18676 0.277775 0.337911 0.376563 0.362161 
0.354984 0.382461 0.371735 0.373738 0.423305 0.423018 0.404311 0.445848 0.466486 
0.385086 0.386686 0.401319 0.458454 0.474031 0.445213 0.42246 0.42246 0.454856 
0.483918 0.483918 0.527806 0.520814 0.508654 0.44322 0.387876 0.390106 0.410994 
0.189916 0.19927 0.243479 0.236316 0.24656 0.26959 0.272917 0.312039 0.31595 
0.347121 0.347121 0.346381 0.374417 0.408882 0.404859 0.366955 0.35642 0.307024 
0.359857 0.314376 0.281431 0.281431 0.252723 0.211344 0.249821 0.281325 0.245346 
0.337841 0.3675 0.392684 0.346819 0.263508 0.370786 0.350971 0.224143 0.224143 
0.243116 0.24906 0.221712 0.249217 0.219474 0.236512 0.247367 0.200181 0.239232 
0.260061 0.279801 0.233352 0.21981 0.21571 0.21571 0.239237 0.253316 0.269276 
0.269276 0.257803 0.232262 0.264241 0.256701 0.287123 0.318839 0.363251 0.379702 
0.430997 0.251819 0.267504 0.252073 0.231137 0.203811 0.24981 0.257715 0.225751 
0.240718 0.229183 0.332562 0.36777 0.234661 0.269517 0.290377 0.326357 0.316869 
0.34028 0.296035 0.315943 0.261487 0.205668 0.177429 0.2321 0.291057 0.322892 
0.35244 0.402082 0.416347 0.355455 0.370291 0.353898 0.326952 0.326952 0.295666 
0.373973 0.319064 0.359295 0.439884 0.404327 0.454164 0.435449 0.445843 0.361826 
0.361826 0.300882 0.348881 0.269312 0.311524 0.38643 0.32472 0.348335 0.348335 
0.356631 0.417258 0.40554 0.0871524 0.143386 0.204838 0.227188 0.260827 0.285346 
0.237023 0.262616 0.236753 0.469138 0.494753 0.364806 0.412376 0.372579 0.323399 
0.323399 0.254936 0.234175 0.265767 0.237116 0.214215 0.202156 0.234289 0.239886 
0.25549 0.25549 0.174918 0.193399 0.261601 0.23736 0.29668 0.300754 0.300754 
0.218421 0.239401 0.239401 0.278459 0.236701 0.236422 0.274064 0.246104 0.271281 
0.256502 
WidthEq 1 811 double
2.58058 2.59614 2.32476 1.90058 2.89555 1.89558 1 2.33364 1.10686 
2.40104 3.2299 3.40901 2.64925 2.29578 4.297 3.79873 3.45099 3.98304 
1.9847 3.30514 4.34656 3.96527 2.649 3.19685 4.26663 1.4539 1.66531 
2.90448 3.75198 3.55419 3.73592 3.3533 3.6965 4.59075 1.46199 5.91015 
3.51166 3.51597 4.62211 3.22755 3.40586 1.60691 4.44889 4.73916 4.51649 
1.08271 3.57764 2.62328 3.90592 2.27028 3.06428 3.59228 4.81335 2.10513 
3.68536 4.29338 2.3911 4.47769 4.48244 3.76228 2.94007 3.07274 2.61822 
2.57344 3.16214 3.95893 3.87585 2.25646 1.70911 1.53098 2.60119 1.40494 
3.21511 3.23895 3.10188 2.66177 2.4931 2.46453 2.67074 2.67074 2.93757 
2.97926 2.95804 3.01838 3.05211 3.05211 2.70907 2.37816 2.38438 2.32947 
2.15161 2.12406 2.29257 2.65392 2.6841 3.16142 3.48102 3.56471 3.69011 
3.45566 2.87208 2.87208 3.22247 3.03903 2.91983 3.00728 3.17337 3.61387 
3.55873 3.88232 3.87867 2.98952 2.69755 2.59419 2.5702 2.51425 2.3684 
2.13421 2.25955 2.25955 2.33393 2.29201 2.10185 2.18464 1.88721 1.87209 
2.02451 2.49951 2.58738 3.13432 3.1235 3.23416 3.33386 3.2 3.4444 
3.62034 3.61852 3.55505 3.31155 3.3224 3.59551 3.71436 3.51014 3.52031 
1.99575 3.02314 3.43904 3.43904 3.50539 3.36769 3.30447 3.35713 3.26138 
3.09941 3.30342 3.43409 4.02346 5.09566 3.45979 3.2586 3.3286 3.47746 
3.47746 3.56078 3.56534 3.59342 3.47535 3.57652 3.07069 2.19637 2.19637 
2.73161 2.85112 2.85112 2.69448 2.96547 2.90226 2.71071 2.64952 2.56216 
2.60396 2.49605 2.71869 3.26677 3.47987 3.47987 3.29217 3.14932 3.04398 
2.61714 2.26182 2.26182 1.9191 1.50517 1.63866 1.53125 1.91458 2.35536 
2.44812 3.24761 2.81329 2.77209 2.82654 2.45592 2.49976 2.28917 2.18286 
2.57156 2.99654 3.13561 3.42052 3.53427 3.72844 3.41618 3.4042 3.6756 
4.18443 3.94218 3.94218 3.68288 3.72826 3.68948 3.54361 3.4277 3.23306 
2.7855 2.64841 2.19426 1.08271 3.89996 3.87769 3.5863 3.41816 3.2229 
3.10209 3.11535 3.25839 3.25839 3.53888 3.37342 3.40774 3.6196 3.75573 
3.81813 3.25561 3.40981 3.7467 3.85634 3.927 4.23575 4.44969 4.66316 
4.62739 3.99319 3.99319 3.87024 3.87884 3.89093 3.89169 4.07854 4.29545 
4.37345 4.23266 4.28431 4.08631 4.14108 4.1743 4.14106 4.30599 5.00918 
4.85105 4.60113 3.2926 3.22702 2.96049 2.74172 3.14644 3.03123 3.29479 
2.82036 2.89222 2.94132 3.01725 3.29114 3.61974 3.60083 3.58047 3.55943 
3.33099 3.06197 3.17845 4.14913 4.44547 4.85953 3.49017 3.79805 4.18048 
4.71525 4.98245 4.65639 5.07224 4.71857 3.45777 3.96527 4.63797 4.94936 
4.95492 3.85538 3.21482 3.31656 3.22857 3.14652 3.41843 3.07155 3.26572 
3.20145 2.8747 2.49519 2.49519 2.33217 2.49114 2.35886 2.73967 2.82512 
2.82512 2.91952 2.97142 2.87064 3.81316 3.76502 4.20904 4.4625 3.94501 
4.03275 4.66877 4.66099 4.39658 4.04812 3.66586 2.9731 3.44592 2.98696 
2.20929 2.26643 3.1666 3.5651 3.67724 4.00576 3.95854 4.22506 3.93502 
3.4068 3.87886 3.93463 2.96917 5.05474 4.86395 4.07244 3.45066 3.02206 
2.70588 2.7857 2.62336 2.47565 2.55334 2.61294 2.69991 2.73097 2.86393 
3.00702 3.27344 3.46227 3.53525 4.47161 4.58721 4.75181 4.67329 3.59246 
2.92873 3.03086 3.26093 3.19286 3.14611 3.14611 3.13985 3.2726 3.2726 
3.20395 2.97918 2.99422 2.85163 3.08929 3.71252 2.91336 2.97282 2.74174 
3.13618 2.99036 3.32104 3.67099 3.67099 3.81195 3.74818 3.63737 3.53966 
3.5424 3.3008 3.03618 3.07839 3.44352 3.75968 4.39076 3.89102 3.63775 
3.67443 3.70951 3.54796 3.88457 3.92872 3.74359 3.84945 3.84945 3.92647 
3.99167 3.04359 2.83403 3.13676 3.39014 3.96658 4.02608 3.68035 3.71371 
4.27512 3.9254 3.77046 3.38314 2.78579 2.56705 2.28929 2.22124 2.07559 
2.32331 2.19651 2.14117 1.79313 1.79313 1.59371 1.17809 1.13897 1.11333 
1.47543 2.09972 2.89639 3.55677 4.01323 3.71189 3.3219 3.10595 3.15649 
4.82076 4.95953 5.40741 6.00239 6.28312 2.81534 2.98348 3.25555 3.59213 
3.76166 3.69648 3.46694 3.43323 4.01607 3.7801 3.72542 4.096 4.27117 
4.8453 3.80397 3.76303 3.83975 4.05209 4.74765 4.44433 4.42761 4.63389 
4.46598 5.25327 5.42725 5.75959 3.81519 4.07774 4.31606 4.46844 4.62634 
3.36257 3.17202 3.34292 3.77233 4.5982 4.32551 4.27079 4.5072 3.7255 
3.65814 3.93473 3.79296 4.03257 4.36023 4.25707 4.25707 4.26505 4.1802 
3.89695 3.49567 3.43939 3.37909 3.75669 3.14097 3.12763 3.22219 2.76014 
2.43352 4.73281 4.28757 4.00997 3.71686 3.5024 3.52048 3.53599 3.09636 
4.22795 3.50914 3.34663 3.29153 3.03665 3.02128 3.36523 3.00996 2.81385 
2.57215 2.6604 2.65791 2.57944 2.39625 2.2755 2.17257 2.09835 2.06876 
1.95989 1.96276 1.94536 2.05705 2.2334 2.41474 3.61377 3.20483 2.97396 
2.82596 2.7164 3.14482 2.9588 3.07296 3.00865 3.00865 3.17706 3.26537 
3.3368 3.45011 3.57648 3.57648 3.59752 3.51338 3.50697 3.6443 4.0525 
4.38376 2.87556 2.71937 2.69078 2.51908 2.62272 2.81145 2.6882 2.54364 
2.19954 3.4512 2.8574 2.27552 1.87147 1.64613 1.78234 1.97809 2.41287 
2.83366 3.21511 3.12548 3.26384 3.15563 3.13426 3.06817 3.1037 3.16985 
3.07779 3.2124 3.06649 2.90448 3.36186 2.85497 2.40057 1.95934 1.79044 
1.71205 1.86671 2.20163 2.25077 2.5167 2.65807 1.66531 4.26663 4.17703 
3.67271 3.85591 3.8414 3.41597 3.3804 3.566 3.55902 3.4303 3.09691 
4.0654 3.62762 3.22931 2.83333 2.68251 2.1847 2.09414 2.09414 1.96884 
1.88052 1.88052 2.09311 2.23573 2.56085 3.16613 4.36833 4.21894 4.07588 
4.32267 3.90686 2.44703 2.96076 3.24061 3.26099 3.32352 3.14028 3.08334 
2.94875 2.94875 2.82647 2.78681 2.70414 2.68359 2.74716 2.56605 2.62291 
2.42697 2.43105 2.41042 2.41042 2.34611 2.39441 2.34371 2.35741 3.73127 
3.15982 2.95837 2.86796 2.93327 3.32258 3.46047 3.20571 3.39774 3.39774 
2.98315 3.37713 3.66805 3.52398 3.53523 3.23539 2.91581 3.1456 2.8293 
2.54751 2.49982 2.60213 2.71014 2.7707 2.7707 2.72752 2.75185 2.78124 
2.78124 2.37405 3.22976 3.13502 2.84352 2.73308 2.67692 2.35757 2.66135 
2.40508 2.36737 2.24674 2.16692 2.23096 1.94215 1.88369 1.91274 2.05337 
2.10501 2.42528 2.42914 2.14639 2.75713 2.611 2.20548 2.17758 2.06348 
1.8927 1.89745 1.85586 2.0112 2.24469 2.51367 2.90933 2.78734 2.77649 
2.48138 2.10351 1.91667 1.96892 1.88656 1.88856 2.0819 2.0819 2.26616 
2.07412 2.27984 2.25147 2.06215 2.2738 2.15701 2.24179 2.20446 2.49836 
2.49836 2.46159 2.2833 2.41682 2.29644 2.08796 2.18446 2.15752 2.15752 