# vtk DataFile Version 3.0
vtk output
ASCII
DATASET POLYDATA
POINTS 888 float
1.96159 -0.419301 1.89059 2.58209 0.58896 1.4001 2.42059 -0.442257 1.66923 
0.270488 0.470848 1.32223 0.443441 -0.323214 1.46403 0.274763 -0.587112 1.44431 
1.64658 0.914732 1.57042 0.149592 -0.0430988 1.26858 0.00479478 -0.38885 0.844536 
0.255423 -1.06665 0.817005 0.0969388 -1.1992 0.537414 0.530791 -1.65401 0.594719 
0.0413649 1.19784 0.228654 0.154398 -1.33001 0.398815 0.435106 -1.738 0.253036 
2.54014 -2.2908 0.161189 2.57926 -2.44637 0.22105 1.47927 2.03154 0.0209138 
3.60061 -0.412864 -0.0372395 5.11463 -0.558316 -0.0804061 5.22128 -0.603853 0.00736899 
5.46111 -0.658195 0.0125853 5.67037 -1.18396 -0.00826782 -0.36547 0.648984 -0.31523 
-0.280328 0.57934 -0.316052 -0.101733 -1.13984 -0.534916 3.31838 -1.797 -0.32068 
5.09217 -0.382197 -0.252419 5.87706 -0.52243 -0.300142 5.35994 -1.12666 -0.216108 
3.63749 -0.623546 -0.447974 5.31571 -0.223349 -0.370024 4.99914 -0.976596 -0.621119 
5.3885 -0.852174 -0.641436 5.93613 -1.05643 -0.46011 6.30032 -0.639777 -0.49247 
6.52628 -0.492049 -0.643991 6.16353 -1.27144 -0.397045 6.10177 -1.43368 -0.407748 
0.196623 1.42704 -0.65571 -0.0503961 0.778083 -0.698521 6.55098 -0.130262 -0.523745 
0.0762639 0.761512 -0.895517 -0.0531881 -0.956323 -1.24162 3.17789 0.990241 -0.778586 
6.7985 -0.485773 -1.1927 0.805138 1.77063 -1.0845 6.71397 0.185211 -0.902275 
3.56373 -0.35691 -1.23789 5.80701 -0.886346 -1.25702 6.76669 -1.13301 -1.1709 
0.366899 1.21039 -1.46305 0.38249 1.0558 -1.47073 1.4298 1.67013 -1.46952 
3.36121 0.179453 -1.41664 4.51219 -0.915687 -1.87679 0.822125 1.42148 -1.63685 
1.21664 1.35665 -1.89417 1.02613 1.41256 -1.83083 2.19172 1.21559 -1.80191 
2.60843 0.827451 -1.80845 0.520262 -0.852415 -2.16861 2.20506 1.03168 -2.01163 
2.51085 0.710634 -2.01835 2.61832 0.497002 -2.22646 1.66082 -1.62742 -2.37163 
5.0799 -1.28213 -2.38093 1.51419 0.368622 -2.67137 1.81219 0.124867 -2.67425 
5.02261 -1.13192 -2.49894 4.97615 -1.05396 -2.58225 4.93265 -1.01292 -2.61971 
4.88257 -0.986887 -2.62214 4.82206 -0.974232 -2.60124 4.76839 -0.953546 -2.53665 
4.70987 -0.936161 -2.40262 4.62425 -0.931844 -2.17371 1.76969 0.159775 -2.67383 
1.72834 0.196087 -2.6733 1.69324 0.240037 -2.67215 1.66656 0.294265 -2.67017 
1.62399 0.329087 -2.66976 1.56546 0.344418 -2.67092 5.19866 -1.31644 -2.36919 
5.27198 -1.31154 -2.35585 5.33363 -1.3104 -2.33992 5.38454 -1.33245 -2.32665 
5.43731 -1.35438 -2.33345 5.5054 -1.35464 -2.36085 5.57348 -1.33905 -2.39484 
5.63022 -1.31364 -2.40642 5.6968 -1.30041 -2.39605 5.76314 -1.30342 -2.3717 
5.81543 -1.32629 -2.36372 5.8669 -1.35024 -2.36326 5.92795 -1.3625 -2.36185 
5.98589 -1.3789 -2.33107 6.05388 -1.38329 -2.27705 6.12775 -1.38066 -2.20762 
6.20246 -1.37711 -2.13069 6.27584 -1.37527 -2.04646 6.34265 -1.38154 -1.95548 
6.40013 -1.39911 -1.87282 6.46736 -1.40452 -1.79662 6.53966 -1.40061 -1.72717 
6.60413 -1.38734 -1.66491 6.64821 -1.35606 -1.61723 6.68357 -1.31645 -1.58424 
6.71709 -1.27594 -1.54384 6.74779 -1.23611 -1.46647 6.76759 -1.19153 -1.33726 
4.99549 -1.35284 -2.24439 4.91427 -1.38551 -2.11951 4.84192 -1.39112 -2.01199 
4.78766 -1.37175 -1.92584 4.74277 -1.34054 -1.85891 4.70604 -1.2984 -1.81486 
4.67676 -1.23413 -1.80353 4.61879 -1.12737 -1.82802 1.61347 -1.66006 -2.36754 
1.54733 -1.67618 -2.34836 1.4776 -1.67827 -2.3063 1.41577 -1.66775 -2.25587 
1.34569 -1.66705 -2.21367 1.27636 -1.66518 -2.19365 1.21595 -1.65223 -2.18758 
1.14596 -1.65099 -2.18245 1.07038 -1.65675 -2.16305 1.00037 -1.65597 -2.12085 
0.945995 -1.63617 -2.06967 0.893093 -1.61449 -2.02578 0.832588 -1.60184 -2.00488 
0.782231 -1.57661 -1.99782 0.73819 -1.54367 -1.99014 0.6948 -1.51012 -1.96756 
0.650981 -1.47726 -1.93018 0.607411 -1.44401 -1.90019 0.564591 -1.40958 -1.8924 
0.52227 -1.37436 -1.89937 0.47945 -1.33993 -1.89158 0.435881 -1.30668 -1.86159 
0.391811 -1.27421 -1.81682 0.347742 -1.24175 -1.77206 0.303423 -1.20967 -1.7199 
0.259104 -1.1776 -1.66773 0.215035 -1.14513 -1.62297 0.171716 -1.11149 -1.60038 
0.128373 -1.07768 -1.57964 0.0824751 -1.04431 -1.52746 0.025243 -1.0069 -1.41051 
2.58233 0.53907 -2.15864 2.55624 0.593315 -2.09726 2.52847 0.64569 -2.05089 
2.44444 0.716602 -2.04254 2.39508 0.743397 -2.06504 2.359 0.786241 -2.07141 
2.33349 0.84189 -2.06932 2.29827 0.885609 -2.06076 2.25821 0.923497 -2.0601 
2.22397 0.968322 -2.04404 2.54237 0.748002 -1.91881 2.5749 0.786942 -1.84885 
2.13029 1.02431 -2.04423 2.06374 1.01155 -2.09169 2.01032 0.990998 -2.14654 
1.95124 0.987361 -2.19326 1.89332 1.00066 -2.21678 1.82507 1.00403 -2.22633 
1.7563 1.00677 -2.22108 1.69662 1.02043 -2.20011 1.63292 1.02892 -2.15728 
1.57339 1.04241 -2.10661 1.50976 1.05098 -2.06378 1.45129 1.06613 -2.04269 
1.39038 1.07855 -2.04408 1.34055 1.10491 -2.05426 1.29698 1.14381 -2.04872 
1.25515 1.2154 -1.99437 2.19636 1.11502 -1.90359 0.588463 -0.829524 -2.26158 
0.636298 -0.792362 -2.32478 0.675231 -0.750903 -2.35095 0.721396 -0.716553 -2.36242 
0.7886 -0.698816 -2.38147 0.864372 -0.686296 -2.42277 0.934069 -0.668211 -2.47142 
0.990459 -0.639838 -2.51253 1.05035 -0.615523 -2.53891 1.10624 -0.587935 -2.56524 
1.17577 -0.570312 -2.60649 1.25337 -0.558691 -2.65521 1.33213 -0.548615 -2.69654 
1.41016 -0.539872 -2.71571 1.48653 -0.533319 -2.7202 1.55634 -0.534873 -2.71793 
1.61657 -0.548135 -2.7166 1.68631 -0.549774 -2.71433 1.76121 -0.545104 -2.71155 
1.83095 -0.546743 -2.70928 1.89117 -0.560005 -2.70795 1.96091 -0.561644 -2.70568 
2.03582 -0.556974 -2.7029 2.10531 -0.559006 -2.69324 2.16472 -0.573522 -2.66974 
2.2318 -0.57893 -2.62323 2.29857 -0.584817 -2.56933 2.35601 -0.602001 -2.52377 
2.41753 -0.613938 -2.50006 2.47604 -0.629476 -2.48406 2.54503 -0.632293 -2.45962 
2.61933 -0.628966 -2.40498 2.69289 -0.626817 -2.32815 2.75971 -0.633083 -2.23717 
2.81718 -0.650663 -2.15451 2.88449 -0.656143 -2.07831 2.95837 -0.653517 -2.00887 
3.03331 -0.649415 -1.93933 3.10692 -0.644076 -1.86976 3.1727 -0.632343 -1.80011 
3.2256 -0.609466 -1.73773 3.28291 -0.589008 -1.69018 3.33522 -0.563269 -1.65736 
3.39145 -0.540734 -1.62457 3.43404 -0.508233 -1.57688 3.46831 -0.470123 -1.51432 
3.50067 -0.431647 -1.43696 3.53245 -0.393886 -1.34481 1.13043 1.29755 -1.93485 
1.06621 1.29134 -1.93734 1.03876 1.34201 -1.896 2.59539 0.8965 -1.64935 
2.58403 0.968214 -1.54202 2.57394 1.04236 -1.50874 2.558 1.10997 -1.52795 
2.52428 1.15605 -1.56376 2.4764 1.18472 -1.59354 2.41643 1.19872 -1.62451 
2.35803 1.21581 -1.6701 2.2838 1.21994 -1.73177 2.68149 0.828815 -1.71684 
2.74823 0.822464 -1.62586 2.8046 0.803624 -1.55074 2.86236 0.78665 -1.49031 
2.90375 0.749942 -1.45375 2.92943 0.694144 -1.42616 2.96396 0.649324 -1.41253 
3.00359 0.610735 -1.39839 3.0378 0.565446 -1.37738 3.062 0.507748 -1.34251 
3.09572 0.461673 -1.30672 3.1351 0.422692 -1.28518 3.16956 0.377788 -1.27156 
3.19476 0.321669 -1.26627 3.2298 0.277642 -1.26742 3.27214 0.2429 -1.29753 
3.31639 0.210741 -1.34969 2.16741 1.31263 -1.70109 2.14406 1.38462 -1.62384 
2.10795 1.42887 -1.57076 2.06488 1.46259 -1.51847 2.02088 1.49514 -1.47369 
1.97725 1.52831 -1.44371 1.9337 1.56203 -1.45082 1.8841 1.58843 -1.46593 
1.82509 1.60344 -1.4894 1.77376 1.62756 -1.48985 1.72236 1.6516 -1.49031 
1.66059 1.66281 -1.47201 1.60028 1.67689 -1.46093 1.52379 1.67749 -1.45606 
1.25027 1.47889 -1.82468 1.28445 1.54596 -1.74822 1.32608 1.58239 -1.66323 
1.38109 1.6131 -1.5682 0.954301 1.41051 -1.73688 0.891956 1.4204 -1.67166 
1.11401 1.39992 -1.85327 6.77116 -0.392972 -1.4506 6.78658 -0.328345 -1.62053 
6.81978 -0.280413 -1.6826 6.85254 -0.237123 -1.66965 6.877 -0.188604 -1.63656 
6.888 -0.129665 -1.59595 6.90148 -0.0727632 -1.55536 6.90118 -0.0059181 -1.49986 
6.89134 0.0650461 -1.42964 6.87173 0.126764 -1.33795 6.83266 0.165733 -1.21845 
6.77843 0.189219 -1.07059 4.54465 -0.923019 -1.66381 4.53523 -0.896404 -1.53209 
4.52263 -0.841088 -1.52958 4.51678 -0.822935 -1.65944 4.42027 -0.705631 -1.65647 
4.37184 -0.595129 -1.50528 4.33194 -0.545361 -1.43867 4.2899 -0.509423 -1.42185 
4.2474 -0.474516 -1.42143 4.20476 -0.439779 -1.42103 4.16123 -0.406209 -1.42814 
4.11183 -0.382604 -1.4434 4.05329 -0.385849 -1.46781 3.99851 -0.408586 -1.47829 
3.93143 -0.422601 -1.47388 3.86219 -0.423754 -1.44659 3.80208 -0.410957 -1.41084 
3.73929 -0.401448 -1.3605 3.68607 -0.38024 -1.30921 3.63202 -0.359967 -1.26543 
0.812167 1.49518 -1.56647 0.803453 1.5675 -1.49118 0.801623 1.63323 -1.39374 
0.809715 1.69275 -1.25671 0.744614 1.41337 -1.63248 0.668099 1.40325 -1.61334 
0.60006 1.38441 -1.57211 0.552731 1.34802 -1.52368 0.514794 1.30456 -1.48274 
0.477605 1.26227 -1.46398 0.431853 1.22818 -1.45991 6.62991 -0.525431 -0.9296 
6.68049 -0.565977 -1.40347 6.61981 -0.616069 -1.58949 6.58519 -0.653214 -1.74001 
6.55235 -0.688819 -1.85223 6.51067 -0.720275 -1.9221 6.45736 -0.745197 -1.95491 
6.42133 -0.7859 -1.96572 6.39642 -0.833954 -1.96911 6.34656 -0.848722 -1.97158 
6.28917 -0.838373 -1.96554 6.21853 -0.838522 -1.93825 6.14015 -0.848216 -1.87462 
6.05921 -0.861484 -1.76919 5.97685 -0.8759 -1.62678 5.89286 -0.886481 -1.45205 
4.65535 -0.998094 -1.63437 4.72493 -1.00604 -1.43353 4.76233 -0.978937 -1.27645 
4.80531 -0.955161 -1.10896 4.88239 -0.955673 -0.89115 1.37195 1.7266 -1.40663 
1.31529 1.75802 -1.34007 1.25136 1.76808 -1.27243 1.19031 1.77971 -1.21202 
1.1189 1.77869 -1.16254 1.04275 1.77216 -1.13082 0.970708 1.77174 -1.10606 
0.90063 1.78008 -1.09313 0.374694 1.1331 -1.46689 0.313428 1.23067 -1.35987 
0.258009 1.24823 -1.22721 0.228099 1.2965 -1.05495 0.211294 1.36051 -0.859143 
6.71756 -1.10848 -0.978285 6.66779 -1.08473 -0.800573 6.61298 -1.06983 -0.653191 
6.55127 -1.08182 -0.537158 6.50414 -1.11813 -0.459037 6.46478 -1.16029 -0.418078 
6.41919 -1.19392 -0.421404 6.35515 -1.21006 -0.454113 6.28937 -1.22538 -0.479413 
6.23239 -1.25148 -0.46046 6.83224 -1.11034 -1.23428 6.86901 -1.06472 -1.29 
6.8766 -0.99643 -1.33064 6.88019 -0.927258 -1.34169 6.89294 -0.867957 -1.32326 
6.89287 -0.800565 -1.27516 6.88478 -0.727112 -1.22169 6.87353 -0.651399 -1.182 
[...]
POINT_DATA 888
SCALARS DY_raw double
LOOKUP_TABLE default
1109.57 690.668 1039.38 806.209 772.838 1004.15 1093.22 698.091 666.327 
850.486 832.679 867.321 890.961 718.249 767.475 1015.16 897.208 1212.59 
1056.49 1071.83 1410.78 1598 1333.89 1235.88 890.176 699.77 1135.28 
983.823 1158.82 863.651 862.03 866.076 991.441 1090.46 762.94 972.168 
938.997 978.896 795.956 828.666 770.045 798.176 577.464 666.022 591.725 
1037.98 977.563 897.759 664.735 828.608 833.32 681.843 594.005 760.5 
495.082 1076.25 805.538 895.072 806.259 723.566 647.147 1086.39 753.715 
579.673 394.779 950.707 652.758 961.985 781.646 730.414 614.858 637.943 
650.802 613.501 591.62 726.298 910.79 833.794 818.296 818.296 804.078 
804.078 818.642 681.225 727.273 822.837 902.974 902.974 910.664 947.905 
812.19 826.505 749.46 749.46 636.634 602.25 671.836 665.703 614.399 
658.471 771.287 762.965 845.413 941.134 868.717 807.103 844.162 837.824 
837.824 832.107 822.94 641.749 641.772 654.739 724.866 749.78 760.382 
750.555 814.999 896.017 858.939 875.207 921.104 906.509 1212.97 1177.61 
982.793 973.998 794.216 826.793 704.099 704.099 693.465 655.134 634.649 
637.115 681.805 681.805 677.296 653.569 710.387 658.59 701.946 713.39 
708.928 749.059 707.009 645.245 630.383 635.864 408.889 444.987 550.238 
600.374 718.275 718.275 797.24 774.087 772.667 733.791 648.766 681.442 
759.376 722.012 712.302 717.297 766.419 760.131 760.131 806.132 894.123 
803.974 925.542 800.664 800.664 807.366 777.033 805.794 807.402 822.204 
835.8 766.961 766.961 734.401 948.037 923.92 800.239 937.886 1082.6 
1007.95 1063.14 1257.56 1155.5 1069.8 1110.86 865.09 845.539 845.539 
769.575 886.537 864.028 659.703 697.683 622.3 588.494 643.435 675.834 
606.05 703.289 666.538 691.154 755.748 736.888 890.858 1047.94 830.869 
853.03 739.978 694.565 709.436 755.351 724.646 719.099 757.025 723.478 
680.012 649.412 773.96 701.345 739.453 793.972 913.789 897.935 843.023 
762.468 762.468 694.969 686.337 709.375 717.294 638.436 724.775 815.49 
718.814 793.625 775.086 709.691 709.691 758.028 718.027 723.472 661.79 
645.911 645.911 636.074 571.957 676.059 734.09 747.789 747.082 869.629 
792.991 805.331 790.408 790.408 729.148 729.148 822.819 811.917 793.41 
834.737 781.265 712.519 719.72 837.104 801.975 837.925 1022.84 789.706 
725.49 766.395 816.199 791.998 733.823 706.011 640.282 732.059 806.694 
817.36 1017.34 1011.15 1011.15 1096.26 1026.91 934.253 930.929 866.984 
866.446 850.68 850.68 892.33 956.895 934.505 1052.42 845.055 688.25 
714.452 632.774 668.035 922.43 920.662 853.431 837.453 781.4 723.61 
783.72 835.952 812.712 845.179 845.179 949.439 786.938 774.109 821.39 
821.079 751.961 747.281 747.281 714.573 754.641 805.628 814.971 853.228 
1007.9 926.911 777.728 904.517 936.367 823.647 881.192 911.337 816.293 
954.445 1038.19 1129.5 1092.1 1101.09 1047.15 1026.18 655.612 859.909 
953.256 1005.73 874.41 845.945 950.689 1009.35 1059.51 1048.85 1025.68 
1025.68 932.982 932.982 908.523 833.559 957.902 977.89 997.977 947.531 
947.944 891.968 850.649 894.166 814.121 720.167 865.346 773.487 838.326 
937.805 803.162 844.468 898.845 977.111 971.673 1020.36 983.599 893.357 
916.518 843.591 876.16 831.05 720.518 727.687 718.192 718.566 750.509 
755.622 798.327 748.994 648.498 637.582 654.694 766.554 760.311 683.74 
548.832 578.639 639.537 670.66 613.93 620.013 626.978 633.854 689.318 
755.412 738.381 753.856 761.084 762.163 696.39 684.852 690.648 722.842 
755.654 786.369 978.786 963.088 999.637 1028.74 1033.07 1100.37 843.395 
816.666 1225.03 1202.59 1047.68 962.889 1054.03 1118.04 1026.09 1026.25 
1095.89 1085.43 1039.16 1039.16 908.567 871.899 871.899 841.38 995.87 
1161.08 999.343 1062.13 1028.37 1025.53 1097.56 1011.24 1065.74 1172.36 
1192.4 1192.4 1085.89 970.492 858.977 904.456 846.209 908.136 994.246 
1040.26 1009.9 673.883 746.209 768.458 789.658 814.373 814.373 870.605 
759.056 900.432 777.113 760.523 836.705 798.266 798.266 850.244 889.312 
889.312 941.66 936.747 1013.95 908.047 920 920 899.07 917.432 
788.602 890.43 717.482 737.555 736.292 706.476 721.452 854.16 854.16 
928.467 744.329 742.059 773.917 737.094 711.882 685.525 826.021 879.915 
848.758 890.961 893.637 682.555 688.46 667.35 685.6 905.716 869.902 
905.596 875.081 827.055 918.128 928.181 886.838 1247 1456.88 1593.87 
1541.7 1382.4 1424.15 1387.02 1232.58 1234.69 1275.13 770.045 751.97 
689.958 692.955 690.934 777.623 812.336 854.413 856.458 933.891 833.527 
931.128 921.428 861.005 955.279 986.438 1013.2 876.958 823.157 1070.77 
1062.21 1154.18 1114.38 1164.4 1181.5 1094.09 916.02 1008.52 1339.31 
1361.6 932.288 1031.82 1023.97 1005 892.619 919.074 979.628 987.144 
903.151 1015.43 914.485 858.298 878.47 804.112 889.454 1001.07 938.85 
1041.96 947.202 794.187 825.981 772.798 797.08 758.508 784.861 844.316 
811.344 842.491 914.767 1006.79 830.558 807.5 762.532 709.595 665.186 
626.609 723.488 790.296 925.831 929.977 990.18 971.114 960.808 1028.06 
1048.26 1111.79 1028.77 990.031 990.031 961.25 1009.03 690.539 711.481 
799.843 802.26 802.26 730.911 711.058 755.547 764.846 815.447 811.41 
779.859 933.54 979.7 790.987 951.499 1067.39 1235.26 1128.23 1210 
1152.46 1172.01 1360.3 1142.13 1261.96 1085.38 1138.27 1136.98 1038.74 
1105.07 1087.71 987.61 1130.78 1048.08 1020.23 988.89 988.89 1039.91 
956.931 826.908 779.389 847.7 817.77 824.139 937.151 877.747 827.395 
925.493 861.104 960.786 784.789 869.494 1056 857.433 827.406 888.671 
922.402 810.638 857.34 1023.25 1007.84 938.931 878.116 898.752 987.294 
876.713 930.704 1025.24 996.417 1007.19 804.457 753.159 645.213 645.213 
701.359 698.979 772.609 771.326 764.861 764.861 730.264 718.358 758.116 
704.008 752.555 702.706 749.892 763.475 910.113 980.59 1040.2 883.439 
961.372 1171.45 975.768 832.53 746.013 860.733 1322.91 1388.54 1261.35 
1104.66 1157.72 1126.48 1214.37 1184.37 1184.37 1052.34 1003.8 1059.85 
955.484 962.031 861.222 922.57 922.57 909.912 902.741 902.741 936.557 
1038.62 1038.62 1033.61 1029.87 927.653 1013.04 1043.75 1043.75 1150.51 
1105.72 955.652 853.704 787.585 848.732 744.736 1073.93 985.697 989.77 
884.094 849.943 812.805 936.35 849.938 893.071 1013.08 969.096 871.361 
919.946 1064.85 1092.71 960.829 1198.6 1166.07 1086.55 1329.77 1222.52 
1222.52 1424.03 1287.3 1287.3 777.888 869.212 983.733 935.958 893.586 
825.785 901.381 861.365 1048.9 1123.6 1186.29 1150.34 1150.34 978.35 
898.71 833.959 824.184 906.742 953.436 1001.23 1002.06 1087.26 935.323 
939.475 988.64 690.047 603.949 553.559 617.348 580.746 680.019 624.423 
726.205 840.682 900.085 1021.5 713.313 747.497 796.906 838.283 887.96 
846.595 732.75 758.974 802.933 768.649 823.716 801.069 797.732 907.945 
932.294 1030.35 1070.08 1070.08 1130.03 987.648 1025.98 1460.15 1307.96 
1283.63 1222.58 1129.59 1008.53 1008.53 807.515 863.922 848.014 869.618 
854.174 943.264 933.038 984.37 908.718 871.011 936.618 888.459 962.105 
959.242 928.477 907.231 836.494 857.262 885.02 910.399 823.561 997.414 
1108.53 1164.11 1241.08 1355.16 1457.72 1523.43 1483.46 1351.16 1393.09 
1106.76 1106.76 1177.62 1327.93 1389.29 1231.5 1236.78 1185.87 1158.69 
1107.9 1100.09 1051.1 1012.44 1149.93 1050.81 
FIELD FieldData 7
DY_minmax 1 888 double
0.594068 0.245915 0.535735 0.341941 0.314207 0.506449 0.580475 0.252084 0.225685 
0.378741 0.363941 0.392732 0.41238 0.268838 0.30975 0.515603 0.417572 0.679686 
0.549948 0.562703 0.844406 1 0.780504 0.699043 0.411727 0.25348 0.615434 
0.489558 0.634994 0.389682 0.388335 0.391697 0.495889 0.578181 0.305981 0.479871 
0.452302 0.485462 0.33342 0.360606 0.311885 0.335265 0.151831 0.225431 0.163683 
0.534565 0.484355 0.418029 0.224362 0.360558 0.364474 0.238581 0.165578 0.303952 
0.0833627 0.566373 0.341384 0.415796 0.341983 0.273257 0.209745 0.574798 0.298313 
0.153666 0 0.462035 0.214408 0.471407 0.321527 0.278948 0.182909 0.202095 
0.212782 0.181781 0.163595 0.275527 0.428859 0.364868 0.351987 0.351987 0.34017 
0.34017 0.352274 0.238067 0.276338 0.355761 0.422363 0.422363 0.428754 0.459706 
0.346912 0.35881 0.294777 0.294777 0.201007 0.17243 0.230263 0.225166 0.182527 
0.219156 0.312918 0.306001 0.374524 0.454079 0.393893 0.342685 0.373484 0.368217 
0.368217 0.363465 0.355847 0.205258 0.205277 0.216054 0.274337 0.295043 0.303854 
0.295687 0.349247 0.416582 0.385766 0.399286 0.437432 0.425301 0.68 0.650613 
0.488702 0.481392 0.331974 0.359049 0.257077 0.257077 0.248239 0.216382 0.199358 
0.201407 0.238549 0.238549 0.234802 0.215082 0.262303 0.219255 0.255288 0.2648 
0.261091 0.294444 0.259496 0.208163 0.195812 0.200367 0.0117266 0.0417281 0.129203 
0.170871 0.268859 0.268859 0.334487 0.315245 0.314065 0.281755 0.21109 0.238247 
0.303018 0.271965 0.263895 0.268046 0.308872 0.303646 0.303646 0.341878 0.415007 
0.340084 0.44112 0.337333 0.337333 0.342903 0.317693 0.341597 0.342933 0.355235 
0.366535 0.309322 0.309322 0.282261 0.459815 0.439772 0.33698 0.451379 0.571653 
0.509612 0.55548 0.717066 0.632241 0.561011 0.595135 0.390878 0.374629 0.374629 
0.311495 0.408703 0.389995 0.22018 0.251745 0.189094 0.160997 0.206659 0.233586 
0.175588 0.256404 0.225861 0.246318 0.300003 0.284329 0.412294 0.542846 0.362436 
0.380855 0.286897 0.249154 0.261513 0.299673 0.274154 0.269544 0.301065 0.273183 
0.237058 0.211627 0.31514 0.254789 0.28646 0.331771 0.431352 0.418175 0.372538 
0.305588 0.305588 0.24949 0.242315 0.261462 0.268044 0.202505 0.274261 0.349655 
0.269307 0.331483 0.316075 0.261725 0.261725 0.301898 0.268653 0.273179 0.221914 
0.208717 0.208717 0.200541 0.147254 0.233773 0.282003 0.293388 0.292801 0.394651 
0.330956 0.341212 0.328809 0.328809 0.277896 0.277896 0.355746 0.346686 0.331304 
0.365652 0.321211 0.264076 0.27006 0.367618 0.338422 0.368301 0.521985 0.328226 
0.274856 0.308852 0.350244 0.330131 0.281781 0.258666 0.204039 0.280315 0.342345 
0.351209 0.51741 0.512265 0.512265 0.583006 0.525368 0.44836 0.445597 0.392452 
0.392005 0.378902 0.378902 0.413517 0.467178 0.448569 0.546572 0.374226 0.243905 
0.265682 0.197799 0.227105 0.438533 0.437064 0.381188 0.367909 0.321322 0.273293 
0.323251 0.366661 0.347346 0.37433 0.37433 0.46098 0.325925 0.315263 0.354558 
0.3543 0.296855 0.292967 0.292967 0.265782 0.299083 0.341459 0.349224 0.381019 
0.509567 0.442258 0.318271 0.423645 0.450116 0.356434 0.40426 0.429314 0.350323 
0.465141 0.53474 0.610626 0.579543 0.587021 0.542189 0.524763 0.216779 0.386572 
0.464153 0.507764 0.398624 0.374967 0.46202 0.510769 0.552459 0.543599 0.524344 
0.524344 0.447303 0.447303 0.426975 0.364672 0.468014 0.484627 0.501321 0.459395 
0.459738 0.413216 0.378876 0.415043 0.348518 0.270432 0.39109 0.314746 0.368634 
0.451312 0.33941 0.373739 0.418932 0.483979 0.47946 0.519925 0.489371 0.414371 
0.43362 0.37301 0.400078 0.362587 0.270723 0.276682 0.26879 0.269101 0.295649 
0.299899 0.335391 0.29439 0.210868 0.201795 0.216017 0.308984 0.303796 0.240157 
0.128034 0.152807 0.203419 0.229286 0.182138 0.187193 0.192982 0.198697 0.244793 
0.299724 0.28557 0.298431 0.304438 0.305335 0.25067 0.241081 0.245898 0.272655 
0.299925 0.325452 0.485371 0.472325 0.502701 0.526887 0.530487 0.586418 0.372847 
0.350632 0.690023 0.671378 0.54263 0.472159 0.547908 0.601109 0.524689 0.524822 
0.582699 0.574004 0.535551 0.535551 0.427012 0.396537 0.396537 0.371172 0.49957 
0.63688 0.502456 0.554639 0.526581 0.524219 0.584086 0.51234 0.557641 0.646252 
0.662908 0.662908 0.574385 0.478478 0.385797 0.423595 0.375186 0.426654 0.49822 
0.536459 0.511227 0.231965 0.292075 0.310566 0.328186 0.348727 0.348727 0.395461 
0.302752 0.420251 0.317759 0.303972 0.367287 0.33534 0.33534 0.378539 0.411009 
0.411009 0.454515 0.450433 0.5146 0.426579 0.436514 0.436514 0.419119 0.434379 
0.327309 0.411938 0.2682 0.284883 0.283833 0.259053 0.2715 0.381794 0.381794 
0.443551 0.290513 0.288627 0.315103 0.2845 0.263546 0.24164 0.358408 0.403199 
0.377304 0.412379 0.414603 0.239172 0.24408 0.226535 0.241703 0.424643 0.394877 
0.424543 0.399181 0.359267 0.434958 0.443313 0.408953 0.708283 0.882716 0.996567 
0.95321 0.820814 0.855515 0.824653 0.696303 0.698051 0.731666 0.311885 0.296863 
0.245325 0.247816 0.246136 0.318183 0.347034 0.382004 0.383704 0.448059 0.364646 
0.445762 0.437701 0.387483 0.465834 0.491731 0.513972 0.400742 0.356027 0.561819 
0.554702 0.631146 0.598066 0.639633 0.653846 0.581203 0.433206 0.510081 0.785003 
0.803534 0.446726 0.52945 0.522921 0.507157 0.413757 0.435744 0.486071 0.492318 
0.422511 0.515827 0.431931 0.385233 0.401998 0.340199 0.411127 0.503892 0.45218 
0.537872 0.459122 0.33195 0.358374 0.314174 0.334354 0.302297 0.324199 0.373612 
0.34621 0.372096 0.432164 0.508642 0.362178 0.343015 0.305641 0.261645 0.224736 
0.192675 0.273192 0.328716 0.44136 0.444805 0.494841 0.478995 0.47043 0.526327 
0.543109 0.595912 0.526913 0.494717 0.494717 0.470797 0.510511 0.245808 0.263212 
0.33665 0.338659 0.338659 0.279361 0.262861 0.299836 0.307565 0.34962 0.346264 
0.320042 0.447767 0.486131 0.32929 0.462693 0.559011 0.698525 0.609573 0.677536 
0.629715 0.645957 0.802445 0.621131 0.720717 0.573964 0.617921 0.616843 0.535196 
0.59033 0.575896 0.492705 0.611691 0.542961 0.519816 0.493769 0.493769 0.536171 
0.467207 0.359144 0.319652 0.376425 0.35155 0.356843 0.450768 0.401397 0.359549 
0.441079 0.387565 0.470411 0.324139 0.394538 0.549542 0.384514 0.359559 0.410476 
0.43851 0.345622 0.384437 0.522329 0.50952 0.452248 0.401704 0.418854 0.492442 
0.400537 0.44541 0.523982 0.500024 0.508975 0.340485 0.297852 0.208137 0.208137 
0.254801 0.252822 0.314016 0.31295 0.307577 0.307577 0.278823 0.268929 0.301972 
0.257002 0.297349 0.25592 0.295136 0.306425 0.428297 0.48687 0.536413 0.406128 
0.470899 0.645495 0.482863 0.363817 0.291913 0.387257 0.771378 0.825919 0.72021 
0.589985 0.634084 0.608122 0.681169 0.656234 0.656234 0.5465 0.506162 0.552741 
0.466005 0.471446 0.387663 0.43865 0.43865 0.428129 0.42217 0.42217 0.450274 
0.535098 0.535098 0.530935 0.527826 0.442874 0.513838 0.539366 0.539366 0.628093 
0.590868 0.466145 0.381415 0.326463 0.377283 0.290851 0.564447 0.491115 0.4945 
0.406672 0.378289 0.347423 0.450102 0.378285 0.414133 0.51387 0.477318 0.396089 
0.436469 0.556895 0.58005 0.470447 0.668057 0.641026 0.574932 0.777076 0.687936 
0.687936 0.855419 0.741782 0.741782 0.318404 0.394303 0.489483 0.449777 0.414561 
0.358211 0.421039 0.387782 0.543641 0.605728 0.657832 0.627952 0.627952 0.485009 
0.41882 0.365004 0.35688 0.425495 0.464303 0.504025 0.504711 0.575521 0.449249 
0.4527 0.493561 0.245399 0.173842 0.131963 0.184978 0.154558 0.237065 0.190858 
0.27545 0.370592 0.419962 0.520875 0.264735 0.293146 0.33421 0.368598 0.409885 
0.375506 0.28089 0.302684 0.339219 0.310725 0.356492 0.337669 0.334896 0.426495 
0.446732 0.52823 0.561243 0.561243 0.611073 0.492736 0.524597 0.885439 0.758951 
0.738729 0.687994 0.610706 0.510094 0.510094 0.343027 0.389907 0.376686 0.394641 
0.381806 0.455849 0.44735 0.490012 0.427137 0.395799 0.450325 0.4103 0.471508 
0.469128 0.443559 0.425901 0.367112 0.384372 0.407441 0.428535 0.356363 0.500853 
0.593201 0.639391 0.703368 0.798177 0.883413 0.938025 0.904808 0.79485 0.829702 
0.591728 0.591728 0.650625 0.775545 0.826544 0.695402 0.69979 0.657484 0.634887 
0.592675 0.58619 0.545471 0.51334 0.627606 0.545231 
WidthEq 1 888 double
1.73564 2.60946 2.18838 2.76196 2.21197 1.84259 1.81622 2.91538 3.09005 
2.33691 3.03323 2.67302 4.09884 3.39523 3.62327 2.56953 3.03846 2.08811 
2.03568 2.20229 1.91381 2.38373 2.46825 1.95807 3.42571 5.05891 3.38336 
2.36464 3.90091 4.22 3.19995 2.25751 4.03163 4.31236 4.89378 4.50976 
5.11239 3.53409 2.27562 4.10015 3.74714 3.78044 2.78425 5.29609 1.06183 
4.37771 3.38088 3.10143 4.64493 4.62529 5.58208 4.13217 3.81241 4.26613 
2.52809 4.04141 4.21401 3.84994 4.49238 3.60383 3.44043 3.18014 3.68489 
3.84999 2.10435 3.19685 4.15505 2.81455 2.82509 3.31013 3.41374 3.47923 
3.60469 3.8375 4.61322 4.7577 4.41905 3.61467 3.97938 3.97938 4.30538 
4.30538 4.06134 3.8421 3.65237 3.37432 3.2853 3.2853 3.32295 3.40199 
3.60057 3.78845 4.08931 4.08931 4.40268 4.32052 4.23802 4.14746 4.07569 
4.00786 3.60187 3.83468 3.97506 3.7708 4.3433 4.77633 4.72381 4.72784 
4.72784 4.9273 5.33197 4.75746 4.98818 5.23419 5.36653 5.47336 5.53512 
5.49558 4.7724 3.63613 3.81231 3.73871 3.47397 3.21612 2.66876 2.76026 
2.99381 3.20912 3.92797 3.85532 4.54013 4.54013 4.67609 4.8104 4.82391 
4.86468 4.79258 4.79258 4.90197 5.05861 4.97265 5.06687 5.04011 5.01792 
4.81354 4.73067 4.83858 4.9491 5.05055 5.20187 2.18906 2.80971 3.84178 
3.9882 3.75436 3.75436 3.48412 3.58339 3.59437 3.80754 3.60147 3.62281 
3.68838 3.67997 3.63856 3.49924 3.38675 3.40022 3.40022 3.40612 3.16862 
3.26643 3.0345 3.37823 3.37823 3.63512 3.8868 3.91307 3.35532 4.20216 
4.38646 4.73996 4.73996 4.72797 3.98872 4.00292 4.21713 3.97968 3.66989 
3.8188 3.68771 3.20801 3.2389 3.25805 3.09115 3.33207 3.41013 3.41013 
3.72814 3.67464 3.93296 4.25217 4.42492 4.67466 4.67882 4.57761 4.33763 
4.33308 4.1447 3.94873 3.91905 3.79312 3.86699 3.47729 3.16559 4.02689 
4.03758 4.59086 4.83288 4.37132 4.22839 3.8332 3.61354 3.70246 3.72032 
4.1176 4.42639 4.45227 4.51521 4.62878 3.65272 3.3812 3.41718 3.10248 
3.08299 3.08299 3.09076 3.38919 3.57056 3.63136 3.63944 3.47921 3.34453 
3.24655 3.13981 3.01897 3.02767 3.02767 2.88722 2.78427 2.64778 2.87223 
2.96402 2.96402 2.89803 2.6857 3.8811 3.64478 3.54964 3.18051 2.69845 
2.87749 2.90307 2.9521 2.9521 3.36859 3.36859 3.21248 3.5462 3.9101 
3.64195 3.63234 3.92303 4.06532 4.33718 4.43256 4.45527 3.23976 3.25716 
3.23313 3.2247 3.27368 3.3216 3.52111 3.75731 3.93313 3.64404 3.54598 
3.50066 4.28894 3.86766 3.86766 3.60538 2.98081 2.84146 2.86756 2.94642 
2.48933 2.77825 2.77825 2.56134 2.60157 2.3856 2.2277 2.47813 3.12932 
3.31047 4.38643 4.36736 4.03261 3.83536 3.89427 3.83976 4.38813 3.87002 
3.62426 3.61875 3.65591 3.75864 3.75864 5.06252 5.02077 4.56522 3.63681 
3.28363 3.08779 3.68449 3.68449 4.04876 4.0524 3.74168 3.44286 3.10831 
2.83713 3.42868 4.3712 4.51784 4.10187 4.13669 4.17176 4.49626 4.1364 
3.65569 3.27965 2.91538 3.04178 2.82799 3.07823 3.23465 3.7708 3.81578 
3.89157 3.74733 3.71229 5.31037 4.48774 3.98036 3.27953 2.92522 3.00868 
3.00868 3.48545 3.48545 3.77673 5.35822 4.40649 4.55269 3.99845 4.09243 
4.25829 4.53925 4.82841 4.79587 4.80172 4.62526 4.63421 4.91824 5.14252 
4.84596 4.28076 4.13401 3.94878 3.45495 3.33345 3.15026 3.00528 3.10899 
3.05168 3.39413 3.25407 3.21226 3.59477 3.67154 3.6259 3.38761 3.30406 
3.02499 2.68442 2.87282 2.64841 2.74579 2.84814 4.42829 3.60258 3.36604 
3.61197 3.81563 3.56407 3.66744 4.56771 4.30904 4.62979 4.36913 4.32863 
4.26299 4.38958 4.50998 4.50123 4.4884 4.60988 4.58307 4.50172 4.45709 
4.42745 4.07773 4.6664 4.67179 4.59248 4.6886 2.66198 2.60958 3.30578 
3.49066 4.06424 3.8722 4.22669 4.02494 3.79027 3.87125 3.2377 2.89518 
2.49887 2.48688 2.63718 2.63718 3.24674 3.50133 3.50133 3.94323 4.72654 
3.81103 3.86726 3.8043 3.70723 3.77754 3.90015 3.99757 3.57265 2.61521 
2.23672 2.23672 2.15559 2.23957 2.51973 2.5017 2.62283 2.2524 2.11794 
2.06051 2.19587 1 1.96871 1.99894 2.22337 2.43062 2.43062 2.29828 
2.28403 2.08022 2.1636 2.27127 2.17255 2.53561 2.53561 2.48801 2.3116 
2.3116 2.1925 1.96387 1.90039 1.85898 1.74382 1.74382 1.94011 1.85149 
2.3001 2.28506 2.78398 2.89393 3.54696 3.59646 3.74753 3.49811 3.49811 
3.17913 5.03141 4.95225 4.54495 4.58776 4.36672 4.53421 4.12416 4.113 
3.65419 3.66473 3.52647 3.47882 3.37034 4.92261 3.21519 4.20973 3.90708 
4.38442 4.09187 4.139 3.92207 4.21008 3.64856 2.73608 2.32593 2.11939 
2.24694 2.5825 2.51976 2.67547 3.32104 3.48147 3.53691 3.74714 4.1345 
5.00143 5.0333 5.34465 4.95829 4.70401 3.07567 3.01686 2.87759 3.56736 
3.87243 3.98523 2.94298 3.43834 3.62888 3.91332 4.42622 4.6868 4.24795 
4.09339 3.74495 3.80519 3.81462 3.82725 4.10408 4.63485 4.49386 3.79007 
3.11241 3.86262 3.63615 3.54738 3.52362 3.97788 2.40956 2.29167 2.30445 
3.24856 2.40128 2.98616 2.4694 2.37579 2.90548 2.68555 2.52182 2.64328 
2.41629 2.5086 2.90555 2.80374 2.9215 2.79042 2.76434 2.70939 2.59022 
2.5684 2.54094 2.42856 2.24593 3.65699 4.09826 4.33969 4.20437 4.25751 