# vtk DataFile Version 3.0
vtk output
ASCII
DATASET POLYDATA
POINTS 845 float
0.255685 -2.37178 2.97525 0.989826 -2.22635 2.9186 1.02788 -1.90319 2.61311 
1.47349 -1.83242 0.467125 1.58675 -1.98304 0.32007 2.39134 -1.51701 0.610999 
1.28929 -2.00708 -0.0306854 1.35825 -2.22875 -0.257951 2.2541 -2.53966 -0.498848 
0.976587 -2.35276 -0.431738 0.328953 -1.84817 -0.261125 0.882376 -2.19626 -0.568601 
2.38482 -2.45926 -0.972835 -0.305975 -0.870298 0.1202 0.365749 -1.84888 -0.842327 
0.940016 -2.17393 -1.12306 0.227614 -0.17563 0.525928 3.43671 -1.03995 0.0635479 
3.25693 -1.17249 -0.0968731 -0.130359 -0.969555 -0.709441 0.169486 -1.61074 -1.19626 
-0.126639 -1.09408 -1.07127 0.145717 0.274427 0.214434 3.94323 -0.955835 -0.667883 
-0.365789 -0.38536 -1.12609 4.28748 -1.18901 -1.36388 -0.128953 -0.236086 -0.941609 
-0.00535565 -0.508024 -1.43528 1.94913 -2.04313 -2.62603 2.49901 0.567207 -0.188307 
4.29945 -1.07477 -2.09394 0.512181 -1.15471 -2.23368 4.45931 -0.252383 -1.49343 
2.1846 -1.59005 -2.99651 -0.177102 0.360235 -1.19178 2.43273 0.990404 -0.526533 
1.9385 1.1292 -0.668107 2.56004 0.973909 -0.724722 6.6665 0.053467 -1.147 
6.36742 0.717854 -1.10932 5.41708 -0.0837466 -1.62592 5.75129 0.291215 -1.58114 
0.907786 0.68652 -1.60236 4.21055 -0.227459 -2.44353 6.16219 0.694398 -1.59535 
5.59041 0.691206 -1.6622 0.836605 1.06293 -1.79588 4.1862 0.660092 -1.94845 
1.22529 -0.154076 -3.23733 1.45737 -0.402277 -3.27978 0.972958 1.30882 -1.81243 
1.03079 0.45286 -3.00539 2.3044 1.34911 -2.20647 2.06207 1.14743 -2.4471 
1.61221 1.07628 -2.8647 1.59885 0.969311 -2.83883 1.57613 0.886373 -2.83182 
1.52957 0.835788 -2.83648 1.4735 0.80892 -2.82788 1.41439 0.771512 -2.80914 
1.35282 0.711631 -2.80365 1.29052 0.643702 -2.80679 1.23101 0.585017 -2.82147 
1.18196 0.530559 -2.84133 1.14898 0.49027 -2.87686 1.09841 0.465402 -2.93047 
2.10691 1.18058 -2.40699 2.1384 1.21513 -2.36689 2.18324 1.24827 -2.32678 
2.22807 1.28142 -2.28668 2.25956 1.31597 -2.24657 1.07886 0.392093 -3.06446 
1.10598 0.339619 -3.10623 1.14369 0.2806 -3.13212 1.18728 0.205561 -3.14187 
1.22205 0.126054 -3.14648 1.24023 0.0518656 -3.15454 1.26138 -0.0126637 -3.17367 
1.25733 -0.0781638 -3.20024 0.951836 0.476656 -2.94564 0.886311 0.467748 -2.88658 
0.827612 0.448357 -2.80539 0.769026 0.417662 -2.71454 0.710683 0.388607 -2.64356 
0.654551 0.380673 -2.5716 0.60025 0.390217 -2.50257 0.544823 0.389013 -2.4234 
0.487558 0.370263 -2.34137 0.427389 0.323781 -2.2566 0.366886 0.274109 -2.1644 
0.304034 0.202004 -2.07461 0.239769 0.116406 -1.98844 0.173477 0.0106932 -1.89946 
0.104902 -0.130744 -1.79717 0.041787 -0.305103 -1.63986 1.29613 -0.25527 -3.24291 
1.35254 -0.333386 -3.25448 1.40411 -0.382042 -3.27146 4.11931 0.674284 -2.04547 
4.06183 0.697774 -2.12438 4.0103 0.740237 -2.17891 3.95986 0.78706 -2.21788 
3.90938 0.833056 -2.23968 3.85828 0.873254 -2.23522 3.80486 0.891156 -2.233 
3.74945 0.890086 -2.24029 3.69282 0.877459 -2.25995 3.63727 0.875075 -2.26864 
3.583 0.884864 -2.27512 3.52998 0.906633 -2.29041 3.47865 0.944591 -2.32082 
3.42845 0.993296 -2.36137 3.37881 1.04738 -2.40699 3.32917 1.10138 -2.4527 
3.27883 1.14877 -2.49466 3.22666 1.17862 -2.53376 3.17171 1.18204 -2.56871 
3.11672 1.18494 -2.58256 3.06174 1.18805 -2.58537 3.00617 1.18551 -2.59422 
2.9494 1.17143 -2.61545 2.89285 1.15954 -2.63433 2.83509 1.13602 -2.66566 
2.77661 1.10563 -2.70436 2.718 1.07408 -2.7443 2.65952 1.04369 -2.783 
2.60175 1.0201 -2.81441 2.54505 1.00682 -2.83477 2.48729 0.983306 -2.86611 
2.42894 0.95423 -2.9034 2.37118 0.930713 -2.93473 2.3146 0.917429 -2.95509 
2.25875 0.893636 -2.9865 2.21213 0.862004 -3.0252 2.18044 0.827555 -3.06523 
2.13378 0.794599 -3.10533 2.079 0.762493 -3.14544 2.03245 0.729524 -3.18554 
2.00278 0.694788 -3.22565 1.96991 0.660388 -3.26575 1.95392 0.62422 -3.30586 
1.94616 0.587189 -3.34596 1.9297 0.545639 -3.381 1.89728 0.494899 -3.4059 
1.88005 0.426275 -3.41559 1.88212 0.350197 -3.42021 1.90175 0.277714 -3.4299 
1.91004 0.222709 -3.4548 1.92137 0.178249 -3.48984 1.95836 0.136531 -3.52994 
2.00711 0.0935823 -3.57005 2.05779 0.0504325 -3.61015 2.10857 0.00734587 -3.65018 
2.15951 -0.0343521 -3.68872 2.21142 -0.066699 -3.71723 2.26598 -0.0738161 -3.71872 
2.32246 -0.0625097 -3.70047 2.37801 -0.060119 -3.69177 2.433 -0.0631461 -3.68888 
2.4887 -0.059299 -3.67862 2.54633 -0.0370963 -3.64869 2.60535 -0.00155893 -3.6153 
2.66537 0.0435595 -3.5933 2.72567 0.0912628 -3.601 2.78436 0.123649 -3.63594 
2.84452 0.169963 -3.64512 2.90356 0.205724 -3.63315 2.95995 0.216113 -3.6267 
3.01578 0.221206 -3.61511 3.07272 0.236791 -3.58145 3.12866 0.24287 -3.53632 
3.18196 0.223776 -3.48569 3.23564 0.208368 -3.42029 3.28976 0.197093 -3.36129 
3.34391 0.186069 -3.33449 3.39918 0.18579 -3.31782 3.45668 0.206747 -3.28923 
3.5143 0.228875 -3.25939 3.57084 0.24076 -3.24051 3.62776 0.256238 -3.21779 
3.68431 0.268123 -3.19892 3.74136 0.284877 -3.164 3.7966 0.284271 -3.11522 
3.84723 0.239707 -3.05941 3.8949 0.166842 -2.99062 3.94316 0.0995362 -2.91587 
3.9938 0.0535263 -2.83798 4.0461 -0.00351571 -2.75485 4.11213 -0.094672 -2.62076 
0.945801 1.20321 -1.78663 0.895901 1.12172 -1.78112 1.14455 -0.272232 -3.13699 
1.07649 -0.349671 -3.06424 1.01689 -0.384199 -3.02446 0.960374 -0.395445 -2.99213 
0.903671 -0.408827 -2.93684 0.84377 -0.452756 -2.87098 0.781047 -0.523622 -2.77984 
0.716553 -0.611791 -2.65673 0.647428 -0.750312 -2.52255 0.576861 -0.940437 -2.38548 
4.25258 0.516315 -1.89499 4.30573 0.407041 -1.84253 4.35105 0.298732 -1.80332 
4.39265 0.167232 -1.74272 4.42914 -0.0123956 -1.62749 4.12623 0.606241 -1.78125 
4.09034 0.556446 -1.64316 4.05576 0.531864 -1.53955 4.02967 0.532661 -1.46222 
3.9886 0.553006 -1.40192 3.93735 0.573165 -1.34294 3.88245 0.575973 -1.28112 
3.8258 0.563101 -1.22526 3.77079 0.565839 -1.16353 3.71805 0.590259 -1.11103 
3.66584 0.619784 -1.07471 3.61299 0.643202 -1.05576 3.5605 0.670063 -1.03312 
3.50751 0.692167 -1.01557 3.45502 0.718953 -0.99301 3.4026 0.746431 -0.980536 
3.35123 0.783958 -0.96811 3.29992 0.822101 -0.965852 3.24784 0.852873 -0.949849 
3.19331 0.860177 -0.937333 3.13634 0.844306 -0.928005 3.07944 0.829058 -0.928837 
3.02527 0.839792 -0.912646 2.97199 0.859082 -0.908945 2.92009 0.891603 -0.91271 
2.87155 0.956172 -0.914609 2.82358 1.02612 -0.921586 2.77256 1.0677 -0.933693 
2.71624 1.071 -0.911193 2.64844 1.04032 -0.832167 0.779125 1.04212 -1.82431 
0.723437 1.03842 -1.83442 0.66802 1.03731 -1.83091 0.611486 1.02554 -1.8172 
0.55256 0.990924 -1.79548 0.49199 0.940613 -1.77973 0.432501 0.900626 -1.75295 
0.374288 0.872813 -1.72394 0.315078 0.83549 -1.68347 0.254751 0.787495 -1.63278 
0.1933 0.728766 -1.57195 0.132409 0.675396 -1.51619 0.0720826 0.627408 -1.4655 
0.0117559 0.57942 -1.41481 -0.0496962 0.520684 -1.35399 -0.112836 0.445833 -1.27795 
0.872195 0.874725 -1.69912 5.50779 0.679906 -1.68334 5.44064 0.655528 -1.71663 
5.3809 0.626205 -1.75434 5.32251 0.597295 -1.78063 5.26413 0.567907 -1.78578 
5.20299 0.512162 -1.7867 5.14014 0.440109 -1.78344 5.07731 0.368243 -1.76915 
5.01557 0.306687 -1.74382 4.95344 0.241514 -1.73318 4.89258 0.188403 -1.73128 
4.8352 0.168584 -1.72618 4.77923 0.162177 -1.71753 4.7219 0.143865 -1.69537 
4.65821 0.0833121 -1.63981 4.57545 -0.0458182 -1.56007 5.64691 0.571029 -1.64978 
5.69779 0.440038 -1.62059 5.62728 0.764802 -1.62341 5.68064 0.835997 -1.60698 
5.74002 0.906579 -1.60137 5.7901 0.971808 -1.59162 5.82348 1.02245 -1.56672 
5.87069 1.06078 -1.53169 5.92548 1.09288 -1.49158 5.97157 1.12047 -1.44641 
6.00157 1.1388 -1.39118 6.04481 1.13813 -1.32215 6.09601 1.11748 -1.25175 
6.14583 1.06623 -1.19228 6.19307 0.989309 -1.13866 6.2382 0.892564 -1.09005 
6.2849 0.816919 -1.04596 6.33036 0.767327 -1.04477 6.17268 0.660538 -1.48935 
6.20106 0.651961 -1.40869 6.22747 0.673542 -1.35584 6.26321 0.703614 -1.30917 
6.29995 0.717276 -1.23108 6.21825 0.721288 -1.70136 6.26168 0.722489 -1.78186 
6.28639 0.690147 -1.82421 6.32421 0.637748 -1.82143 6.37328 0.596809 -1.78359 
6.4237 0.551222 -1.75053 6.47652 0.527553 -1.69399 6.52735 0.484492 -1.60769 
6.57274 0.383326 -1.49698 6.61652 0.229008 -1.34176 6.09119 0.544513 -1.52394 
6.023 0.421482 -1.47787 5.95888 0.337907 -1.46893 5.8975 0.29294 -1.49452 
5.83147 0.279236 -1.53803 6.45445 0.896183 -1.26247 6.52919 1.03738 -1.34809 
6.59227 1.10515 -1.36669 6.64631 1.09268 -1.35767 6.69415 1.0215 -1.33038 
6.73999 0.931122 -1.26952 6.78433 0.828641 -1.20001 6.82315 0.709381 -1.14891 
6.84056 0.59508 -1.11656 6.81823 0.489054 -1.09069 6.81015 0.392311 -1.07503 
6.8256 0.298543 -1.06445 6.82645 0.213514 -1.06065 6.80542 0.141202 -1.06746 
6.74958 0.0897428 -1.09572 4.20819 -0.509185 -2.35571 4.2244 -0.7818 -2.23025 
4.22772 -0.266678 -2.2165 4.22906 -0.307902 -2.06127 4.21687 -0.321508 -1.96584 
4.19382 -0.301828 -1.90621 4.19865 -0.275348 -1.85597 4.23965 -0.260318 -1.79838 
4.2946 -0.262689 -1.7221 4.36332 -0.266516 -1.62267 5.68473 0.17547 -1.57769 
5.64282 0.0867772 -1.57891 5.59286 0.0297713 -1.59796 5.53495 -0.0133203 -1.6248 
5.47574 -0.0517167 -1.6396 1.9708 1.14198 -0.819843 1.94838 1.16331 -0.91664 
1.89967 1.18318 -0.952933 1.84572 1.19378 -0.96068 1.79145 1.20357 -0.967158 
1.73715 1.21316 -0.984657 1.68291 1.22331 -1.0124 1.62887 1.23529 -1.01653 
1.57211 1.22135 -1.0376 1.51433 1.19773 -1.05822 1.46063 1.21296 -1.0697 
1.4094 1.25184 -1.06665 1.35778 1.28702 -1.07839 1.30364 1.29805 -1.08354 
1.24683 1.28367 -1.08342 1.18654 1.23601 -1.08651 1.12625 1.18841 -1.08952 
1.06901 1.16991 -1.08301 1.01388 1.17154 -1.06574 0.959278 1.17819 -1.03229 
0.901202 1.15169 -1.00188 0.840209 1.09734 -0.979649 0.77961 1.04675 -0.942565 
0.719283 0.99876 -0.891878 0.659235 0.953429 -0.827501 0.599721 0.913198 -0.74686 
0.539818 0.869262 -0.680989 0.479924 0.825401 -0.615051 0.420102 0.781174 -0.527852 
0.359038 0.707621 -0.417727 0.306308 0.617722 -0.269887 0.267549 0.515691 -0.100885 
0.212438 0.403059 0.0658968 6.39895 0.500204 -0.984685 6.41215 0.333354 -0.905672 
6.43257 0.222768 -0.879878 6.44976 0.136964 -0.876899 6.48542 0.0645792 -0.888305 
[...]
POINT_DATA 845
SCALARS DY_raw double
LOOKUP_TABLE default
246.486 230.235 262.284 548.439 383.014 328.615 276.135 315.184 299.163 
363.432 396.238 349.686 284.017 346.18 350.192 317.905 315.366 333.448 
201.505 382.31 349.149 293.673 274.683 296.262 283.021 321.868 351.6 
304.35 299.396 294.008 341.426 280.843 368.971 268.814 252.17 334.35 
299.893 354.659 359.157 395.35 293.586 289.572 390.505 342.661 327.082 
346.219 287.154 388.08 266.207 334.967 279.405 298.629 371.713 283.169 
284.648 284.677 284.078 285.995 293.01 317.179 339.081 379.257 396.286 
417.81 402.63 376.849 305.444 301.804 307.334 321.018 328.303 321.666 
351.424 397.621 357.445 412.662 341.875 312.472 304.675 325.075 354.572 
341.615 325.08 375.677 337.835 351.922 376.891 370.773 314.753 286.333 
300.568 252.236 282.875 295.237 310.896 280.098 299.323 330.768 359.461 
336.505 333.631 325.562 326.277 310.064 310.064 316.588 316.588 313.08 
324.03 324.03 325.885 356.653 343.782 303.16 290.888 290.888 271.03 
267.149 249.967 257.035 257.035 265.042 319.334 325.198 324.722 294.192 
281.108 307.385 315.639 315.639 342.173 337.368 344.396 339.292 337.363 
327.95 319.168 310.098 294.668 300.461 300.461 283.75 292.336 318.116 
332.486 363.167 403.192 468.903 468.903 507.029 454.536 480.914 397.71 
342.772 309.178 309.178 318.068 318.068 318.999 290.902 315.046 308.324 
306.676 318.465 287.968 307.002 289.572 250.443 250.443 274.919 277.831 
307.16 319.983 366.406 380.962 402.177 400.662 400.662 378.905 356.538 
380.726 324.387 347.106 383.386 384.299 413.02 333.243 333.717 346.307 
307.968 336.667 299.672 311.263 313.849 274.845 261.179 307.516 280.58 
274.603 311.758 315.322 412.874 399.398 355.892 365.285 323.182 407.461 
404.58 424.733 398.973 395.582 342.619 354.378 348.345 403.339 294.243 
359.885 348.402 302.625 357.294 357.663 366.835 366.835 364.004 335.381 
335.381 285.309 285.65 311.475 304.931 304.931 284.657 276.025 254.814 
270.877 274.738 287.154 274.799 240.736 240.736 264.664 264.603 283.932 
313.59 295.77 290.148 341.002 321.489 293.531 276.236 296.172 288.851 
311.944 324.913 317.828 322.892 302.907 294.076 280.942 298.226 288.87 
285.358 326.223 295.113 321.541 325.862 332.426 340.253 374.042 334.467 
265.303 342.971 369.924 368.854 331.558 315.779 327.731 310.231 304.294 
303.029 304.156 298.689 310.192 308.755 350.546 360.355 384.616 323.904 
320.173 327.802 330.388 353.657 333.054 327.908 317.352 296.534 312.106 
327.316 358.633 316.296 325.328 345.904 332.902 368.906 399.644 409.734 
342.21 394.025 347.588 368.537 373.761 401.041 344.847 378.386 340.215 
339.114 345.251 375.984 362.531 368.239 386.159 371.618 335.803 341.553 
316.068 283.804 286.22 287.829 307.154 338.328 343.823 320.845 273.872 
311.015 317.49 300.443 296.903 277.461 252.363 242.52 232.809 258.83 
257.04 257.04 288.134 274.867 286.319 288.067 265.694 260.738 252.284 
252.284 273.18 231.304 239.98 239.98 237.117 242.569 244.894 284.678 
254.663 244.345 294.77 310.568 269.132 294.387 284.999 262.661 269.133 
284.405 356.998 397.011 431.03 411.173 440.757 408.938 368.978 356.829 
335.983 337.559 327.52 318.144 299.637 297.552 297.552 281.289 263.089 
260.909 261.468 264.233 242.724 228.607 258.097 244.218 257.389 249.845 
251.101 234.916 260.099 248.961 233.12 233.12 234.147 204.816 204.816 
201.214 200.742 217.182 224.002 242.658 251.404 267.308 267.308 271.086 
252.799 241.923 236.326 240.888 198.22 209.815 195.311 208.037 223.11 
257.952 320.492 318.979 309.06 309.402 301.581 287.516 290.336 290.336 
316.644 308.058 347.506 286.05 279.427 346.6 306.186 320.787 404.11 
340.05 416.536 392.543 354.036 385.042 380.683 357.625 399.723 436.163 
403.99 425.672 475.324 448.674 379.179 331.801 367.725 314.638 345.182 
350.537 331.497 302.796 313.765 304.351 295.133 361.045 355.56 333.86 
317.312 312.481 301.108 288.955 280.235 273.279 262.148 270.648 298.869 
318.134 354.701 333.459 373.691 362.334 366.174 350.64 365.243 372.266 
399.339 440.33 398.841 345.981 386.94 402.879 419.966 425.252 397.084 
394.244 349.586 273.911 272.835 282.493 293.833 272.609 285.572 312.104 
293.182 285.864 314.89 266.843 257.826 247.447 257.016 237.088 228.203 
228.203 226.809 255.875 292.782 323.241 359.901 248.443 289.93 317.824 
368.458 398.826 422.368 403.468 438.819 432.069 425.982 425.982 435.448 
402.495 401.229 337.368 315.584 299.293 323.338 323.338 309.132 301.236 
301.236 281.769 275.039 292.676 287.208 279.59 273.78 289.665 309.864 
346.307 359.355 337.354 320.014 348.912 324.898 311.971 307.034 313.399 
323.419 319.876 295.754 275.26 266.932 275.924 372.421 364.237 357.554 
367.184 350.492 282.207 322.031 343.075 331.855 321.364 314.988 310.57 
322.027 338.686 342.168 254.479 268.688 299.637 339.801 415.535 417.493 
348.274 374.046 362.043 305.622 388.946 356.475 323.433 331.898 346.396 
352.354 330.341 342.223 365.29 354.894 354.894 323.028 324.727 324.727 
337.468 341.506 341.506 333.971 318.352 344.125 343.335 353.111 348.547 
333.042 322.926 334.062 346.278 346.278 328.816 335.121 327.515 302.214 
309.74 334.595 325.481 322.021 301.69 320.263 346.594 376.161 388.086 
386.852 379.645 307.207 373.446 370.317 439.307 450.483 270.13 310.21 
316.899 290.676 283.885 279.602 281.594 291.142 306.507 328.979 361.633 
375.663 371.742 398.347 362.814 359.873 319.538 311.73 317.651 335.341 
318.981 339.52 285.957 281.478 281.478 294.133 292.419 310.752 314.41 
285.83 295.02 279.644 259.379 317.804 349.003 336.306 344.314 282.214 
336.36 338.897 348.094 340.877 327.692 328.283 318.57 330.379 317.828 
294.084 326.586 358.509 355.109 370.543 346.067 336.107 349.499 345.037 
364.633 321.679 320.967 400.728 425.749 472.903 447.423 458.085 463.903 
439.336 435.591 399.76 201.505 232.131 286.676 291.361 294.821 330.353 
353.627 375.214 405.562 386.822 411.711 399.758 390.317 379.482 372.652 
353.303 356.028 364.637 397.18 391.95 379.269 386.88 326.953 336.06 
351.332 360.756 385.868 408.072 406.041 372.93 372.93 333.295 327.491 
337.465 318.502 324.412 316.811 316.811 308.546 308.546 318.471 321.149 
328.677 298.694 272.653 282.339 302.149 336.546 336.546 345.229 315.626 
315.626 292.109 272.294 258.327 265.774 297.999 351.345 364.57 405.435 
419.311 429.694 394.979 318.623 286.048 287.617 359.866 393.41 401.79 
386.94 380.975 341.885 359.386 359.386 366.569 375.483 376.053 390.172 
372.147 353.842 353.842 321.151 293.009 291.522 303 328.789 353.531 
385.975 407.415 454.28 454.28 468.184 450.577 470.197 387.801 356.199 
352.655 337.353 359.844 335.597 338.504 323.452 325.291 322.273 323.383 
314.358 285.675 312.476 347.844 376.645 368.529 328.615 303.294 304.509 
289.03 306.149 331.318 351.542 353.697 344.392 361.867 323.823 355.144 
353.992 365.289 417.257 447.85 219.824 204.083 202.203 213.743 207.878 
223.238 255.377 238.508 242.108 249.226 264.59 256.993 228.754 
FIELD FieldData 7
DY_minmax 1 845 double
0.144918 0.0988974 0.189654 1 0.531542 0.377493 0.22888 0.33946 0.294092 
0.476091 0.568991 0.437164 0.251201 0.427235 0.438597 0.347165 0.339976 0.391179 
0.0175393 0.529549 0.435643 0.278544 0.224769 0.285877 0.24838 0.358386 0.442584 
0.308781 0.294751 0.279493 0.413774 0.242212 0.491775 0.208148 0.161015 0.393736 
0.296157 0.451246 0.463984 0.566476 0.278299 0.266932 0.552756 0.41727 0.373153 
0.427345 0.260084 0.545888 0.200765 0.39548 0.238138 0.292578 0.499541 0.248799 
0.252987 0.253068 0.251372 0.256802 0.276667 0.345109 0.407132 0.520904 0.569128 
0.630081 0.587091 0.514086 0.311876 0.301569 0.317228 0.355982 0.376611 0.357815 
0.442084 0.572908 0.459135 0.615502 0.415044 0.33178 0.3097 0.36747 0.451 
0.414308 0.367483 0.510767 0.403604 0.443496 0.514205 0.496879 0.33824 0.25776 
0.298069 0.161201 0.247966 0.282972 0.327316 0.240101 0.294544 0.38359 0.464846 
0.399836 0.3917 0.368847 0.370874 0.32496 0.32496 0.343436 0.343436 0.333503 
0.36451 0.36451 0.369762 0.456892 0.420446 0.305411 0.270656 0.270656 0.214422 
0.203432 0.154775 0.174792 0.174792 0.197467 0.351212 0.367816 0.36647 0.280013 
0.242962 0.317375 0.340748 0.340748 0.415888 0.402282 0.422184 0.407729 0.402266 
0.375611 0.350742 0.325057 0.281363 0.297766 0.297766 0.250443 0.274757 0.347764 
0.388457 0.47534 0.588683 0.774768 0.774768 0.882735 0.734081 0.808781 0.57316 
0.417585 0.322451 0.322451 0.347626 0.347626 0.350263 0.270698 0.339069 0.320032 
0.315367 0.34875 0.262387 0.316289 0.266929 0.156124 0.156124 0.225436 0.233681 
0.316737 0.353051 0.484513 0.525732 0.585809 0.581519 0.581519 0.519906 0.456567 
0.525064 0.365522 0.429858 0.532598 0.535181 0.616516 0.3906 0.391942 0.427596 
0.319026 0.400296 0.295532 0.328357 0.335678 0.225226 0.186526 0.317744 0.241467 
0.22454 0.329757 0.33985 0.616101 0.577941 0.454739 0.481338 0.362108 0.600773 
0.592614 0.649683 0.576737 0.567133 0.41715 0.450451 0.433366 0.589099 0.280158 
0.466046 0.433527 0.303896 0.458708 0.459753 0.485726 0.485726 0.47771 0.396654 
0.396654 0.25486 0.255823 0.328956 0.310425 0.310425 0.253012 0.228567 0.168502 
0.213988 0.224924 0.260084 0.225096 0.128634 0.128634 0.196396 0.196223 0.25096 
0.334947 0.284483 0.268561 0.412571 0.357314 0.278141 0.229164 0.28562 0.264889 
0.330285 0.367011 0.346948 0.361287 0.304694 0.279685 0.242492 0.291438 0.264942 
0.254996 0.370721 0.282623 0.357462 0.369697 0.388286 0.410451 0.506137 0.394065 
0.198205 0.418149 0.494474 0.491443 0.385829 0.341146 0.374991 0.325434 0.30862 
0.305038 0.30823 0.292749 0.325323 0.321254 0.439599 0.467378 0.536079 0.364153 
0.353587 0.375191 0.382516 0.448408 0.390063 0.375493 0.345598 0.286646 0.330742 
0.373816 0.462499 0.342608 0.368187 0.426455 0.389633 0.491593 0.578636 0.607208 
0.415992 0.562724 0.431223 0.490546 0.50534 0.582592 0.423462 0.518437 0.410344 
0.407226 0.424603 0.511635 0.473537 0.489702 0.540448 0.499271 0.397849 0.414132 
0.341963 0.250596 0.257438 0.261995 0.316721 0.404999 0.420562 0.35549 0.222471 
0.327653 0.34599 0.297716 0.287689 0.232635 0.161561 0.133687 0.106186 0.179875 
0.174805 0.174805 0.262859 0.225289 0.25772 0.262668 0.199313 0.185277 0.161337 
0.161337 0.22051 0.101925 0.126494 0.126494 0.118387 0.133827 0.14041 0.253071 
0.168075 0.138856 0.28165 0.326388 0.209047 0.280565 0.253981 0.190723 0.20905 
0.252298 0.45787 0.571181 0.667517 0.611284 0.695061 0.604957 0.491796 0.45739 
0.39836 0.402821 0.374393 0.347843 0.295434 0.289528 0.289528 0.243475 0.191934 
0.185762 0.187345 0.195174 0.134266 0.0942875 0.177799 0.138495 0.175795 0.154429 
0.157987 0.112155 0.183468 0.151928 0.107069 0.107069 0.109978 0.0269157 0.0269157 
0.0167155 0.0153781 0.0619336 0.0812461 0.134079 0.158844 0.203882 0.203882 0.214582 
0.162795 0.131998 0.116148 0.129066 0.00823664 0.0410729 0 0.0360359 0.0787213 
0.177388 0.354491 0.350206 0.322117 0.323085 0.300939 0.26111 0.269094 0.269094 
0.343594 0.319279 0.43099 0.256956 0.238202 0.428426 0.31398 0.355326 0.591283 
0.409877 0.626471 0.558528 0.449481 0.537285 0.524941 0.459646 0.57886 0.682053 
0.590945 0.652343 0.792949 0.717482 0.520682 0.386516 0.488247 0.337913 0.424409 
0.439573 0.385656 0.304378 0.335441 0.308783 0.282679 0.469331 0.453797 0.392348 
0.345486 0.331804 0.299598 0.265183 0.24049 0.220791 0.189271 0.213341 0.293257 
0.347815 0.451366 0.39121 0.505143 0.47298 0.483854 0.439866 0.481218 0.501107 
0.577773 0.693851 0.576362 0.426673 0.542662 0.587799 0.636184 0.651155 0.571386 
0.563345 0.436882 0.22258 0.219533 0.246884 0.278998 0.218894 0.255603 0.330737 
0.277154 0.256431 0.338626 0.202566 0.177031 0.14764 0.174736 0.118305 0.0931432 
0.0931432 0.0891959 0.171507 0.276021 0.362275 0.466092 0.15046 0.267945 0.346936 
0.490323 0.576321 0.642986 0.589465 0.689573 0.670458 0.653222 0.653222 0.680027 
0.58671 0.583125 0.402281 0.340592 0.294458 0.36255 0.36255 0.322322 0.299961 
0.299961 0.244834 0.225776 0.27572 0.260235 0.238663 0.222211 0.267194 0.324396 
0.427596 0.464545 0.402243 0.353137 0.434971 0.366968 0.33036 0.316379 0.334405 
0.362781 0.352745 0.284436 0.226401 0.202818 0.228281 0.501545 0.478371 0.459443 
0.486714 0.439447 0.246075 0.358849 0.418441 0.386668 0.356959 0.338905 0.326394 
0.358838 0.406014 0.415875 0.167553 0.207791 0.295433 0.409171 0.623636 0.629181 
0.433164 0.506148 0.472155 0.312382 0.548343 0.45639 0.36282 0.38679 0.427847 
0.44472 0.382383 0.416031 0.481351 0.451911 0.451911 0.361672 0.366484 0.366484 
0.402563 0.413999 0.413999 0.392662 0.348431 0.421416 0.419178 0.446864 0.433939 
0.390031 0.361382 0.39292 0.427512 0.427512 0.378063 0.395917 0.37438 0.302729 
0.324044 0.394427 0.368619 0.358821 0.301246 0.353842 0.428409 0.512136 0.545905 
0.542411 0.522004 0.316871 0.504449 0.495587 0.690956 0.722603 0.211874 0.325374 
0.344316 0.270058 0.250825 0.238697 0.244339 0.271378 0.314888 0.378526 0.470996 
0.510728 0.499622 0.574964 0.47434 0.466012 0.351789 0.329678 0.346447 0.39654 
0.350212 0.408376 0.256694 0.24401 0.24401 0.279848 0.274994 0.32691 0.337269 
0.256334 0.282357 0.238815 0.18143 0.34688 0.435229 0.399273 0.42195 0.246093 
0.399425 0.406612 0.432655 0.412219 0.374881 0.376553 0.349049 0.38249 0.346948 
0.279708 0.371749 0.46215 0.452522 0.496227 0.426916 0.398711 0.436633 0.423998 
0.479492 0.357853 0.355835 0.581705 0.652561 0.786093 0.713939 0.744132 0.760607 
0.691039 0.680433 0.578966 0.0175393 0.104267 0.258729 0.271997 0.281795 0.382417 
0.448325 0.509456 0.595395 0.542326 0.612808 0.578959 0.552224 0.521542 0.502201 
0.447405 0.455124 0.479501 0.571659 0.556849 0.520939 0.542491 0.372789 0.398576 
0.441825 0.468512 0.539624 0.602503 0.596751 0.502987 0.502987 0.390748 0.374312 
0.402556 0.348854 0.365592 0.344066 0.344066 0.320663 0.320663 0.348767 0.356352 
0.37767 0.292761 0.219017 0.246447 0.302546 0.399954 0.399954 0.424543 0.340712 
0.340712 0.274115 0.218001 0.178449 0.199538 0.290794 0.44186 0.479312 0.595035 
0.634331 0.663732 0.565426 0.349199 0.256951 0.261395 0.46599 0.560983 0.584714 
0.542661 0.525768 0.415072 0.464634 0.464634 0.484975 0.510218 0.511829 0.551813 
0.50077 0.448934 0.448934 0.356357 0.276662 0.272452 0.304957 0.377986 0.448052 
0.539927 0.600641 0.733357 0.733357 0.77273 0.722869 0.77843 0.545099 0.455608 
0.44557 0.402237 0.46593 0.397264 0.405498 0.362873 0.36808 0.359534 0.362679 
0.33712 0.255896 0.33179 0.431948 0.513507 0.490525 0.377493 0.305789 0.309229 
0.265395 0.313875 0.385149 0.44242 0.448522 0.422172 0.471659 0.363923 0.45262 
0.449357 0.481349 0.628513 0.715148 0.0694168 0.0248386 0.0195159 0.0521954 0.0355864 
0.0790836 0.170095 0.122327 0.132521 0.152679 0.196186 0.174672 0.094703 
WidthEq 1 845 double
1.0249 1.24453 1.36094 1.65716 2.40256 2.843 2.69641 2.39772 3.05874 
2.804 2.81587 2.89578 2.59207 4.17229 3.58013 3.44481 4.25614 3.15322 
4.29827 4.11633 3.8215 3.84388 5.09194 3.92261 5.41059 4.61355 3.94307 
5.06306 2.98843 4.57839 4.27185 5.25854 3.57737 4.50729 4.50245 3.48668 
3.65862 3.43221 3.19115 3.10372 2.08836 2.38083 1.50885 3.64049 3.42279 
2.69556 2.71472 2.08185 3.39774 2.65699 2.22864 2.40048 1.97061 2.05638 
2.31979 2.63549 2.74912 2.85904 2.81309 2.77043 2.64324 2.30198 2.1426 
2.00719 2.11634 2.2378 2.3849 2.43315 2.37326 2.3767 2.3398 2.40331 
2.36641 2.28495 2.70748 2.46231 2.86064 3.07558 3.27668 2.26641 2.18337 
2.16912 2.24739 2.18787 2.34879 2.42304 2.38995 2.52473 2.86692 3.09857 
3.11585 3.87749 3.81576 4.20958 4.64391 3.3005 3.14294 2.89591 2.40975 
2.53498 2.5531 2.57378 2.52354 2.52117 2.52117 2.51242 2.51242 2.47349 
2.23335 2.23335 2.12576 1.88961 1.9817 2.01878 2.0682 2.0682 2.02927 
1.96839 2.0388 1.99631 1.99631 1.93649 1.77232 1.65937 1.82954 1.91696 
1.82269 1.90622 1.98345 1.98345 1.9781 1.93113 1.96623 2.11409 2.21839 
2.32518 2.2351 2.40702 2.4639 2.38338 2.38338 2.40653 2.32593 2.26695 
2.14852 2.10163 2.00444 1.85711 1.85711 1.71237 1.81458 1.6242 1.88125 
2.08437 2.24707 2.24707 2.34215 2.34215 2.34478 2.27311 2.21594 2.17435 
2.15844 2.18898 2.23894 2.18189 2.21349 2.22116 2.22116 2.21437 2.23461 
2.20059 2.10878 1.93747 1.87017 1.92284 2.045 2.045 2.18074 2.19201 
2.1934 2.34939 2.31351 2.41932 2.72065 2.74382 3.19716 3.40394 3.51151 
2.58385 2.62833 3.48779 3.23839 3.13566 3.2501 3.29297 3.22424 3.58049 
4.01279 3.84107 4.04461 2.18637 2.24576 2.42136 2.4769 3.19502 2.01799 
1.8283 1.67753 1.73629 1.82001 2.02237 2.09156 2.22444 2.12777 2.44245 
2.29927 2.31217 2.30824 2.21743 2.15774 2.04338 2.04338 2.00933 2.13958 
2.13958 2.38647 2.41703 2.3035 2.49782 2.49782 2.58937 2.86838 3.00813 
3.17611 3.34992 2.71472 2.56326 2.28065 2.28065 2.19268 2.26691 2.42862 
2.37336 2.80705 2.94744 2.79035 3.04068 3.51869 3.7913 3.75597 3.95309 
2.32209 2.73939 2.6842 2.6199 2.65825 2.60417 2.62756 2.53433 2.50297 
2.4973 2.37939 2.48177 2.36702 2.26481 2.31683 2.41883 2.64842 2.61937 
2.54683 2.49949 2.25563 2.23507 2.30865 2.35976 2.46718 2.59011 2.80092 
3.01372 3.10417 3.14056 3.04748 3.11588 2.93335 3.10697 3.08176 3.55193 
3.50087 3.38962 3.3895 3.28865 3.45735 3.35107 3.18521 2.88386 2.68907 
2.65872 2.6334 2.51765 2.50788 2.99688 3.096 2.51178 2.19223 1.9535 
2.15991 2.74938 2.6335 2.15179 2.00182 2.00719 2.50668 2.60682 3.13255 
3.13615 3.14401 2.99295 3.17138 3.19473 3.0914 3.24665 4.49919 4.78984 
3.7125 4.11415 4.3249 4.57147 4.3672 4.02383 3.8729 3.93949 2.49753 
2.34684 2.36308 2.37933 2.25065 4.02043 3.9515 3.88439 3.70778 3.2982 
3.12279 3.12279 2.79295 2.7481 2.72822 2.75392 2.77169 2.81886 2.93294 
2.93294 2.88826 2.95591 2.9768 2.9768 3.0162 3.18153 3.28805 3.12688 
3.27752 3.32351 3.12306 3.36343 3.96242 3.91622 4.28823 4.4671 4.74173 
4.74807 3.18341 2.98086 2.84582 3.03185 3.14362 3.33567 3.36828 3.48277 
3.72624 3.54843 3.57063 3.6216 3.83538 3.81249 3.81249 4.24525 3.81892 
3.56957 3.3753 3.03438 3.10188 2.94669 2.82066 2.85881 2.62424 2.67283 
2.64512 2.44186 2.43939 2.45401 2.51116 2.51116 2.64604 2.64473 2.64473 
2.65485 2.61342 2.74223 2.67718 2.642 2.61207 2.49571 2.49571 2.51456 
2.58744 2.60646 2.47866 2.40548 2.80902 2.60898 3.058 3.37389 3.43567 
3.83894 3.76444 4.17577 4.67869 3.86512 3.55932 3.32838 2.80583 2.80583 
2.66929 2.69597 2.70229 3.12538 3.47 3.44198 3.81488 3.62394 3.2758 
3.39318 3.14535 3.08418 3.14692 3.08451 3.03929 3.03752 2.92133 2.69579 
2.78153 2.85469 2.70179 3.28791 3.92235 4.71398 3.34713 3.61639 3.31574 
3.3665 3.48894 3.75584 3.7119 3.69978 3.85308 3.50007 3.64435 3.85988 
3.91083 3.86953 3.83409 3.88771 3.7869 3.98173 4.21362 4.05816 3.82691 
3.34602 3.03876 3.00443 2.95223 3.24748 3.56744 3.75223 3.70894 3.97638 
3.94277 3.37938 3.69331 4.50941 3.63385 3.57614 3.50041 3.37508 3.7366 
3.94558 4.46812 4.54412 4.48082 4.16174 4.07766 4.00377 3.72968 3.59228 
3.56087 3.58104 3.41308 3.59332 3.53747 3.55418 3.46544 3.69864 3.96175 
3.96175 4.38948 4.98655 4.3843 4.23168 3.79099 3.99384 3.57818 3.80809 
3.03894 2.64156 2.2435 2.02151 1.97159 2.1265 2.25395 2.25395 2.32752 
2.53519 2.56737 2.81966 2.92471 2.87322 2.47569 2.47569 2.13091 2.034 
2.034 2.20472 2.34346 2.37236 2.53434 2.81299 2.92553 2.92964 2.89434 
2.60553 2.59093 2.73458 3.03575 2.88945 3.03456 3.31731 3.42791 3.48876 
3.58696 3.94433 4.74362 4.3584 4.51221 5.05398 3.60638 3.72373 3.91813 
3.89781 3.90563 4.056 4.6319 3.94702 3.75024 3.56373 3.72225 3.98842 
5.21054 4.77401 4.41816 5.26076 4.8987 4.23013 3.70768 3.29097 3.29609 
3.77038 3.65138 3.75661 4.08446 3.47334 3.61459 3.76116 3.73369 3.51985 
3.47972 3.45274 3.29373 3.22378 3.21153 3.21153 3.41476 3.26848 3.26848 
3.18905 3.11887 3.11887 3.01012 2.83235 2.54652 2.52248 2.47093 2.78873 
2.80176 2.99541 3.10844 3.01458 3.01458 2.94366 2.68212 2.63036 2.71511 
2.42904 2.33875 2.37867 2.47479 2.72778 2.85092 2.80727 2.68575 2.69508 
2.78068 2.85594 4.28506 4.08822 4.23919 3.63799 3.55235 4.90987 4.29533 
4.04976 4.16722 3.9086 3.66025 3.35718 3.15304 3.0249 2.85849 2.77182 
2.65382 2.70393 2.63178 2.68665 2.68518 2.7686 2.95131 2.84964 2.80835 
2.86498 2.76241 3.06631 3.14864 3.14864 3.07151 2.96873 2.87909 2.63917 
2.65998 2.57625 2.6044 5.15925 4.74441 4.57647 4.71542 4.79793 5.13566 
4.79966 4.70633 4.62261 4.35248 4.29978 4.33792 4.37656 4.33754 4.39465 