# vtk DataFile Version 3.0
vtk output
ASCII
DATASET POLYDATA
POINTS 580 float
6.23552 0.00201733 0.842629 6.38362 0.17864 -0.0653326 6.35494 0.752207 0.317609 
6.81305 0.144198 0.237766 6.13542 0.510336 0.456988 5.23638 -0.41502 0.741352 
6.32755 -0.366156 0.0972033 6.4847 -0.405756 -0.0794628 6.67694 -0.201754 -0.350296 
6.3053 -0.162458 -0.230807 6.50444 -0.635596 -0.296912 5.95269 -0.77101 -0.120406 
6.30069 0.436926 -0.436625 6.07172 1.10654 -0.570096 5.99541 1.18178 -0.545254 
6.30293 0.803103 -0.645715 3.86242 0.642627 0.13702 3.72661 0.452916 -0.0303089 
3.92112 -0.0946555 0.114784 4.34766 -0.741661 -0.0251219 6.33615 0.534812 -0.86767 
5.33296 1.47356 -0.5413 4.35827 -0.660538 -0.23821 2.53375 0.911843 0.354745 
6.421 0.190452 -1.10655 1.37399 1.67412 0.450487 1.52791 1.54217 0.470491 
1.36417 1.45553 0.422817 1.75521 0.110241 0.390937 1.9101 -0.117966 0.340161 
5.9692 0.878456 -1.1684 6.16144 0.224105 -1.27513 2.47409 1.3048 -0.0444077 
2.49729 1.16189 -0.210055 2.63812 0.765635 -0.0995453 0.867736 1.75621 0.473354 
0.586815 1.67183 0.353095 5.38894 0.517462 -1.61395 5.39351 0.36198 -1.61613 
2.86985 0.509959 -0.805278 5.47358 0.601092 -1.85079 3.42521 0.145572 -1.40535 
2.63308 0.353178 -1.22012 0.730532 2.39768 -1.16009 -1.0372 0.398253 -1.0219 
-1.06475 0.516993 -1.22257 -0.0499259 -1.23845 -1.55643 1.77475 0.149204 -2.34588 
1.81747 -0.0438941 -2.36048 1.67143 0.0299598 -2.38328 -1.05805 -0.530376 -1.43959 
1.23899 1.61549 -2.58725 0.909425 1.75992 -2.51579 -0.861375 0.849883 -2.3366 
-0.68902 0.469578 -2.60374 -0.293786 -0.373033 -2.73449 -0.399921 -0.101319 -2.90923 
-0.57699 -0.379679 -2.85366 -0.577781 -0.303409 -2.85306 -0.570381 -0.235216 -2.85512 
-0.544118 -0.185619 -2.86332 -0.508248 -0.145496 -2.87466 -0.462839 -0.114776 -2.88909 
-0.473531 -0.377593 -2.78573 -0.379132 -0.375378 -2.74601 -0.603757 -0.393579 -2.72066 
-0.621149 -0.423325 -2.61408 -0.648597 -0.454154 -2.54317 -0.689805 -0.475815 -2.48336 
-0.723968 -0.506621 -2.43363 -0.751412 -0.537457 -2.36273 -0.782644 -0.557953 -2.26721 
-0.802441 -0.580776 -2.14426 -0.830634 -0.590622 -2.01078 -0.861583 -0.586239 -1.88413 
-0.892898 -0.56935 -1.78842 -0.93977 -0.562005 -1.7111 -0.988906 -0.554628 -1.64084 
-1.0225 -0.537558 -1.55218 -0.391029 -0.0345964 -2.91178 -0.363427 0.0136801 -2.92042 
-0.320703 0.0470466 -2.93398 -0.266124 0.0687246 -2.9514 -0.221984 0.100696 -2.96542 
-0.184775 0.1395 -2.97719 -0.148752 0.179473 -2.98857 -0.111543 0.218277 -3.00034 
-0.067327 0.250173 -3.01438 -0.0113326 0.270456 -3.03227 0.0410758 0.294275 -3.04898 
0.0970702 0.314557 -3.06686 0.141286 0.346453 -3.08091 0.178495 0.385257 -3.09268 
0.216707 0.425273 -3.09698 0.259369 0.4653 -3.08715 0.308899 0.505154 -3.0562 
0.36196 0.543731 -3.01859 0.419683 0.575508 -2.9903 0.481131 0.597013 -2.98659 
0.527611 0.628877 -2.99358 0.566159 0.666361 -3.00578 0.610451 0.698181 -3.01986 
0.668711 0.718431 -3.03068 0.727987 0.742078 -3.02627 0.79898 0.760771 -3.0023 
0.868732 0.782892 -2.97012 0.950183 0.793475 -2.94176 1.03511 0.798428 -2.92233 
1.11656 0.809011 -2.89397 1.18858 0.8311 -2.85475 1.26636 0.849695 -2.80962 
1.34157 0.873039 -2.75586 1.42615 0.891538 -2.68956 1.5162 0.913287 -2.5939 
1.62357 0.921917 -2.48051 1.7325 0.914984 -2.35991 1.81944 0.888491 -2.25568 
1.8984 0.860612 -2.17224 1.98371 0.842402 -2.09858 2.06134 0.813027 -2.01472 
2.13019 0.776397 -1.93585 2.19105 0.738536 -1.87776 2.24498 0.700612 -1.8408 
2.29992 0.661247 -1.79637 2.35168 0.613195 -1.73541 2.39536 0.546614 -1.64342 
2.44633 0.478586 -1.53042 2.52865 0.420455 -1.38597 -0.369944 -0.150648 -2.9113 
-0.349565 -0.218407 -2.88703 -0.325576 -0.294951 -2.82507 -0.246593 -0.400538 -2.74977 
-0.190648 -0.418254 -2.76781 -0.143383 -0.445679 -2.78311 -0.0948596 -0.471696 -2.79881 
-0.0299469 -0.479381 -2.81968 0.0414876 -0.47977 -2.84262 0.10759 -0.485963 -2.86387 
0.162614 -0.501892 -2.8816 0.222859 -0.49996 -2.89315 0.283631 -0.480438 -2.88924 
0.362898 -0.470053 -2.86796 0.451358 -0.466377 -2.84188 0.537474 -0.462594 -2.82283 
0.61094 -0.450737 -2.81524 0.666897 -0.421618 -2.80195 0.726042 -0.391243 -2.77412 
0.796688 -0.370005 -2.74224 0.855757 -0.339554 -2.71439 0.908034 -0.309007 -2.70769 
0.967358 -0.287606 -2.71107 1.01964 -0.257059 -2.70438 1.07877 -0.226678 -2.67655 
1.15296 -0.20673 -2.63803 1.22574 -0.183203 -2.59127 1.30212 -0.163212 -2.54567 
1.36445 -0.131575 -2.5033 1.4175 -0.0929985 -2.4657 1.4664 -0.0532001 -2.43713 
1.51744 -0.014624 -2.40925 1.58045 0.0160616 -2.39043 -0.725771 0.508763 -2.59176 
-0.754886 0.556491 -2.58219 -0.76761 0.622552 -2.57781 -0.77807 0.68858 -2.56636 
-0.800393 0.736211 -2.53564 -0.823632 0.775121 -2.48133 -0.8436 0.812559 -2.4125 
-0.861317 0.927516 -2.32848 -0.855394 1.00376 -2.3067 -0.834478 1.07183 -2.26642 
-0.793786 1.1226 -2.22479 -0.754093 1.17215 -2.19063 -0.731631 1.2321 -2.17423 
-0.710033 1.28849 -2.17312 -0.694287 1.34846 -2.1779 -0.666762 1.39681 -2.18651 
-0.632231 1.43825 -2.1974 -0.596437 1.47845 -2.20871 -0.560566 1.51858 -2.22004 
-0.522354 1.55859 -2.22434 -0.478353 1.5973 -2.21495 -0.42063 1.62908 -2.18666 
-0.350123 1.65045 -2.15473 -0.292324 1.68215 -2.12647 -0.246908 1.71947 -2.11754 
-0.201346 1.75003 -2.13202 -0.14522 1.76359 -2.17332 -0.0935479 1.77713 -2.22875 
-0.0557046 1.80651 -2.27188 -0.0109898 1.83572 -2.29387 0.0578701 1.84772 -2.30037 
0.13367 1.85287 -2.30911 0.203875 1.86354 -2.31605 0.263644 1.88451 -2.31957 
0.336119 1.89499 -2.31945 0.412072 1.89734 -2.32827 0.480439 1.89112 -2.34247 
0.533278 1.87249 -2.3673 0.58489 1.85763 -2.40727 0.627342 1.83764 -2.45989 
0.675431 1.8214 -2.50653 0.721627 1.79413 -2.52537 0.776761 1.76916 -2.51985 
0.846947 1.76568 -2.51516 -0.902211 0.845452 -2.2146 -0.93938 0.833008 -2.10937 
-0.96003 0.802075 -2.0173 -0.972407 0.762989 -1.92792 -0.981187 0.722552 -1.83194 
-0.992148 0.682071 -1.74302 -1.00538 0.641623 -1.66117 -1.01868 0.60125 -1.57929 
-1.0288 0.562132 -1.48286 -1.04032 0.531001 -1.36261 0.951713 1.71202 -2.51792 
1.01253 1.68862 -2.52588 1.07849 1.6782 -2.53932 1.13452 1.65922 -2.55351 
1.19173 1.64292 -2.57195 1.72583 0.0978627 -2.36412 1.74011 -0.0235448 -2.36926 
0.0521181 -1.23497 -1.48803 0.138249 -1.2246 -1.44562 0.204809 -1.20373 -1.42799 
0.279621 -1.1932 -1.42084 0.365889 -1.18957 -1.40184 0.457874 -1.18717 -1.36912 
0.550861 -1.18356 -1.32894 0.635649 -1.17187 -1.28608 0.700739 -1.14295 -1.2446 
0.761223 -1.1139 -1.21721 0.831085 -1.10069 -1.21624 0.897613 -1.08859 -1.22976 
0.953702 -1.0662 -1.23988 1.0179 -1.04741 -1.23707 1.08405 -1.02394 -1.21152 
1.15723 -1.0052 -1.18046 1.2233 -0.981651 -1.15489 1.28609 -0.961466 -1.15162 
1.33491 -0.92971 -1.15158 1.38025 -0.892323 -1.14262 1.43812 -0.860697 -1.11438 
1.50997 -0.840641 -1.08289 1.57596 -0.817017 -1.05729 1.63875 -0.796832 -1.05402 
1.68523 -0.764968 -1.06101 1.72252 -0.72624 -1.0728 1.76207 -0.687543 -1.07754 
1.81293 -0.655601 -1.07038 1.87989 -0.632934 -1.0451 1.93288 -0.594289 -1.00747 
1.97183 -0.543998 -0.973064 2.01906 -0.506282 -0.956936 2.05214 -0.454606 -0.936197 
2.09452 -0.4077 -0.902912 2.14363 -0.365232 -0.864017 2.18467 -0.316999 -0.830293 
2.2072 -0.257132 -0.813916 2.2288 -0.200735 -0.812808 2.24462 -0.140845 -0.817612 
2.27349 -0.0938139 -0.826661 2.31629 -0.0605226 -0.840249 2.3686 -0.0388122 -0.864725 
2.40829 -0.00685115 -0.892874 2.44005 0.0307299 -0.926234 2.482 0.0626585 -0.947337 
2.53665 0.0842611 -0.964783 2.58072 0.116308 -0.978781 2.6068 0.156644 -1.02068 
2.61828 0.206547 -1.08119 2.61774 0.275453 -1.15072 -1.02984 0.563943 -1.02351 
-0.97494 0.621282 -0.846365 -0.906226 0.670219 -0.712611 -0.856548 0.72078 -0.64274 
-0.841086 0.787624 -0.624059 -0.838139 0.855807 -0.640257 -0.824748 0.913696 -0.659844 
-0.812682 0.975088 -0.671217 -0.793426 1.03159 -0.677139 -0.777756 1.09163 -0.681894 
-0.749228 1.1412 -0.683042 -0.714842 1.18938 -0.670522 -0.673702 1.23971 -0.629041 
-0.604679 1.26915 -0.573259 -0.532377 1.30195 -0.495188 -0.464387 1.339 -0.415703 
-0.389469 1.36923 -0.338484 -0.302982 1.38365 -0.280595 -0.225617 1.40486 -0.22754 
-0.174862 1.4523 -0.165822 -0.111322 1.48935 -0.100463 -0.020165 1.50356 -0.02853 
0.0733879 1.51541 0.0426326 0.15757 1.5387 0.124629 0.236215 1.56525 0.200645 
0.300776 1.60569 0.281237 0.380745 1.62433 0.333454 0.466525 1.63065 0.360402 
0.537574 1.64269 0.360986 -1.04406 0.449705 -1.12838 0.795517 2.39008 -1.18099 
0.851814 2.37276 -1.19914 0.918064 2.36657 -1.22044 0.990758 2.36758 -1.24377 
1.06345 2.3686 -1.2671 1.12963 2.36233 -1.28838 1.187 2.34365 -1.2991 
1.25219 2.32858 -1.29676 1.31955 2.30824 -1.2718 1.39248 2.29156 -1.24082 
1.45206 2.26253 -1.21341 1.49834 2.2263 -1.20509 1.54016 2.19022 -1.2109 
1.58735 2.16272 -1.22618 1.6532 2.15351 -1.23958 1.72357 2.14424 -1.23888 
1.78435 2.11654 -1.21184 1.83975 2.08027 -1.17533 1.89275 2.04386 -1.14583 
1.94421 2.01344 -1.13916 1.99677 1.98681 -1.14059 2.03184 1.93804 -1.12873 
2.07706 1.89294 -1.09678 2.12981 1.85369 -1.05943 2.18021 1.81439 -1.02912 
2.21965 1.76795 -1.01087 2.24913 1.71037 -0.989482 2.29183 1.66245 -0.956735 
2.3368 1.6145 -0.916924 2.37081 1.55686 -0.881433 2.40791 1.51037 -0.870219 
2.44581 1.4699 -0.87479 2.47612 1.42351 -0.884733 2.49661 1.36614 -0.891578 
2.52692 1.31974 -0.901519 2.56459 1.27935 -0.906017 2.59753 1.23416 -0.893462 
2.60806 1.18545 -0.832884 2.58787 1.16506 -0.702017 2.55513 1.16073 -0.48731 
2.7439 0.377583 -1.11295 2.8146 0.435887 -0.972006 3.46116 0.185621 -1.41671 
3.49837 0.224424 -1.42848 3.54251 0.256395 -1.4425 3.59723 0.27793 -1.45997 
3.6428 0.308499 -1.47445 3.68962 0.337823 -1.48935 3.75269 0.35113 -1.50954 
3.81695 0.363267 -1.53011 3.87071 0.385752 -1.54726 3.92685 0.405891 -1.56519 
3.9724 0.436467 -1.57968 4.01796 0.467037 -1.59416 4.07403 0.487251 -1.61207 
4.12651 0.510995 -1.62881 4.18392 0.529882 -1.64715 4.23775 0.55215 -1.66433 
4.30217 0.561477 -1.68497 4.36701 0.556528 -1.70581 4.42197 0.537874 -1.72354 
4.48137 0.521461 -1.7349 4.53197 0.492636 -1.73572 4.58177 0.457786 -1.72075 
4.63816 0.430304 -1.70786 4.7144 0.422465 -1.69347 4.79608 0.423274 -1.68856 
4.87783 0.424163 -1.68368 4.94861 0.417909 -1.69088 5.00717 0.400555 -1.70198 
5.07215 0.392951 -1.72287 5.1394 0.385315 -1.73672 5.20476 0.367871 -1.72666 
5.29138 0.361383 -1.68448 5.52096 0.667263 -1.73343 5.58479 0.715021 -1.62923 
5.65921 0.747933 -1.54405 5.74549 0.769157 -1.46274 5.82133 0.800674 -1.37801 
5.89476 0.838959 -1.27694 2.97417 0.510444 -0.729851 3.06632 0.50245 -0.666113 
3.13982 0.476156 -0.604253 3.21332 0.449863 -0.542384 3.31007 0.441814 -0.464564 
3.42465 0.442528 -0.361312 3.56293 0.446047 -0.211186 2.88024 0.545454 -0.637299 
2.874 0.575151 -0.502896 2.84727 0.599903 -0.416409 2.81902 0.638331 -0.376041 
2.76648 0.654727 -0.343535 2.71088 0.66513 -0.3023 2.67734 0.692521 -0.244733 
2.65597 0.72839 -0.175468 5.39123 0.439721 -1.61504 5.4443 0.335931 -1.62477 
5.51482 0.326821 -1.62411 5.59551 0.318837 -1.5956 5.67092 0.299809 -1.54987 
5.74977 0.284632 -1.50524 5.81809 0.265712 -1.48213 5.90198 0.257815 -1.45309 
6.01425 0.249006 -1.38647 2.55372 1.07933 -0.246058 2.57876 0.999833 -0.248621 
2.59547 0.921668 -0.215443 2.61546 0.843667 -0.161933 0.924051 1.72865 0.486269 
0.992583 1.71219 0.503094 1.05837 1.69328 0.518186 1.13404 1.68632 0.514615 
1.23252 1.68327 0.490767 1.43086 1.46639 0.446841 1.485 1.50231 0.464632 
1.32049 1.50338 0.407234 1.32487 1.58175 0.417855 2.60173 0.764177 0.0366102 
2.56631 0.771513 0.149145 2.54076 0.800142 0.2275 2.52842 0.846114 0.293912 
2.4687 1.11112 -0.0241183 2.47325 1.05777 0.135605 2.50195 0.988585 0.258334 
2.48807 1.24775 -0.125008 6.18178 0.192547 -0.938716 6.2681 0.180659 -0.539375 
6.29836 0.199357 -1.19628 6.23166 0.331164 -1.13692 6.28607 0.428267 -0.999897 
6.09391 0.868409 -0.998426 6.20224 0.840027 -0.823277 6.00627 0.954045 -1.03992 
6.0379 1.02098 -0.901948 6.0564 1.0681 -0.74429 1.86298 -0.0903804 0.355415 
1.80843 -0.071104 0.373015 1.77161 -0.0319989 0.385017 1.75896 0.0341496 0.389381 
1.60053 1.54311 0.447181 1.66545 1.53544 0.426305 1.71264 1.50792 0.41103 
1.75086 1.47039 0.398586 1.78131 1.42415 0.388598 1.80188 1.36686 0.381733 
1.83578 1.32193 0.378425 1.88724 1.2915 0.385102 1.95657 1.27336 0.409437 
2.01835 1.24422 0.443937 2.07134 1.20781 0.473431 2.11636 1.17018 0.482143 
2.15671 1.13245 0.4768 2.1936 1.09342 0.464776 2.22172 1.04714 0.447755 
2.23775 0.989916 0.426789 2.26267 0.94519 0.395247 2.30641 0.916381 0.373292 
2.37352 0.908592 0.359493 2.453 0.909513 0.357318 1.47853 1.61317 0.452956 
4.35409 -0.701116 -0.128143 3.71245 0.316258 -0.018609 3.72349 0.227126 0.00077483 
3.76506 0.17596 0.0338678 3.81761 0.136384 0.0712838 3.86794 0.0970037 0.101618 
3.90378 0.0491057 0.113229 3.91744 -0.018483 0.116318 3.794 0.571058 0.0497408 
5.28436 1.4995 -0.52558 5.21711 1.50713 -0.511738 5.13997 1.5061 -0.502532 
5.0583 1.50249 -0.50745 4.98356 1.49188 -0.514626 4.91834 1.46969 -0.532693 
4.8518 1.45101 -0.542536 4.78884 1.42879 -0.553547 4.71871 1.41805 -0.546638 
4.64284 1.41297 -0.537867 4.57044 1.40225 -0.538013 4.50303 1.38003 -0.563148 
4.43338 1.36001 -0.587565 4.3823 1.32829 -0.594649 4.3482 1.29081 -0.56832 
4.31169 1.26011 -0.525622 4.25549 1.24664 -0.484296 4.19576 1.23444 -0.44962 
4.14646 1.21195 -0.418333 4.09585 1.19297 -0.378834 4.04789 1.16916 -0.347993 
3.9965 1.14874 -0.316025 3.96041 1.11542 -0.281256 3.9428 1.0683 -0.236914 
3.93695 1.00957 -0.196417 3.91615 0.961198 -0.166612 3.88614 0.91969 -0.141616 
3.85495 0.879351 -0.116225 3.82956 0.837702 -0.0771427 3.81695 0.787835 -0.0266522 
3.83219 0.719318 0.0459344 6.33183 0.472649 -0.656513 6.29889 0.601127 -0.824284 
6.28004 0.65843 -0.771293 6.28625 0.727146 -0.710735 6.41875 0.548897 -0.886338 
6.47803 0.580944 -0.874102 6.52791 0.62752 -0.812108 6.56149 0.686296 -0.705921 
6.57426 0.73943 -0.593082 6.56191 0.78779 -0.534427 6.49805 0.804347 -0.537197 
6.40398 0.805068 -0.584789 3.89108 0.501239 0.111614 3.95702 0.565437 0.199655 
3.94017 0.621507 0.19754 6.03357 1.14416 -0.557675 6.14197 1.06606 -0.413898 
6.18317 1.01782 -0.263967 6.22946 0.959031 -0.126103 6.28396 0.908496 0.00917246 
6.31982 0.847541 0.160761 6.33685 0.0246589 -0.204292 6.30388 -0.0710066 -0.257164 
6.29322 0.510919 -0.324976 6.28686 0.562631 -0.216365 6.29367 0.611759 -0.0886577 
6.32418 0.678214 0.0885609 6.35056 0.318186 -0.25324 6.01847 -0.740582 -0.0713637 
6.08997 -0.71798 -0.0319718 6.14168 -0.678084 0.00606559 6.17363 -0.620892 0.0427474 
6.21496 -0.571484 0.0810535 6.25449 -0.520287 0.11061 6.28399 -0.449577 0.120139 
6.5278 -0.58609 -0.304185 6.52829 -0.528046 -0.296293 6.50972 -0.48177 -0.258996 
6.49335 -0.443032 -0.183551 6.30223 -0.24457 -0.0606005 6.37083 -0.209975 -0.24428 
6.41835 -0.260862 -0.22865 6.45151 -0.329137 -0.169597 6.71182 -0.126053 -0.228883 
6.73799 -0.0575274 -0.1125 6.75201 -2.91867e-005 -3.00869e-005 6.77817 0.0684967 0.116353 
6.41737 -0.3955 0.0106682 6.30384 -0.336614 0.316559 6.29426 -0.30368 0.480046 
6.27088 -0.276924 0.577928 6.21705 -0.267993 0.629478 6.1544 -0.260341 0.657407 
6.0981 -0.24302 0.67556 6.03193 -0.236906 0.696832 5.96058 -0.239401 0.719726 
5.89631 -0.251376 0.740302 5.85068 -0.281876 0.754811 5.80979 -0.319253 0.759983 
5.75871 -0.350976 0.752899 5.68913 -0.370915 0.72847 5.62071 -0.391697 0.695872 
5.54922 -0.393541 0.672139 5.48747 -0.377598 0.668697 5.42038 -0.372765 0.682476 
5.35589 -0.382017 0.703139 5.30079 -0.403033 0.72073 6.16407 0.586185 0.549284 
6.18966 0.654043 0.60362 6.21881 0.702306 0.59966 6.24953 0.734507 0.540677 
6.2951 0.747212 0.440529 6.3245 0.196931 0.1739 6.2927 0.193665 0.362255 
6.27335 0.171929 0.495953 6.24689 0.151281 0.606273 6.22899 0.117633 0.697439 
6.22403 0.0690317 0.776603 
LINES 58 698
7 57 58 59 60 61 62 56 
4 57 63 64 55 
16 57 65 66 67 68 69 70 71 72 73 74 75 76 77 78 50 
51 56 79 80 81 82 83 84 85 86 87 88 89 90 91 92 93 94 95 96 97 98 99 100 101 102 103 104 105 106 107 108 109 110 111 112 113 114 115 116 117 118 119 120 121 122 123 124 125 126 127 42 
5 56 128 129 130 55 
32 55 131 132 133 134 135 136 137 138 139 140 141 142 143 144 145 146 147 148 149 150 151 152 153 154 155 156 157 158 159 160 49 
9 54 161 162 163 164 165 166 167 53 
12 53 205 206 207 208 209 210 211 212 213 214 45 
3 49 220 47 
3 49 221 48 
52 46 222 223 224 225 226 227 228 229 230 231 232 233 234 235 236 237 238 239 240 241 242 243 244 245 246 247 248 249 250 251 252 253 254 255 256 257 258 259 260 261 262 263 264 265 266 267 268 269 270 271 42 
31 45 272 273 274 275 276 277 278 279 280 281 282 283 284 285 286 287 288 289 290 291 292 293 294 295 296 297 298 299 300 36 
3 45 301 44 
42 43 302 303 304 305 306 307 308 309 310 311 312 313 314 315 316 317 318 319 320 321 322 323 324 325 326 327 328 329 330 331 332 333 334 335 336 337 338 339 340 341 33 
4 42 342 343 39 
34 41 344 345 346 347 348 349 350 351 352 353 354 355 356 357 358 359 360 361 362 363 364 365 366 367 368 369 370 371 372 373 374 375 38 
8 40 376 377 378 379 380 381 30 
9 39 382 383 384 385 386 387 388 17 
10 39 389 390 391 392 393 394 395 396 34 
3 38 397 37 
10 38 398 399 400 401 402 403 404 405 31 
6 33 406 407 408 409 34 
7 35 410 411 412 413 414 25 
6 34 419 420 421 422 23 
5 33 423 424 425 23 
3 33 426 32 
4 31 427 428 1 
3 31 429 24 
4 31 430 431 20 
4 30 432 433 15 
5 30 434 435 436 13 
6 29 437 438 439 440 28 
22 26 441 442 443 444 445 446 447 448 449 450 451 452 453 454 455 456 457 458 459 460 23 
3 26 461 25 
3 22 462 19 
9 17 463 464 465 466 467 468 469 18 
3 17 470 16 
33 21 471 472 473 474 475 476 477 478 479 480 481 482 483 484 485 486 487 488 489 490 491 492 493 494 495 496 497 498 499 500 501 16 
3 20 502 12 
5 20 503 504 505 15 
10 20 506 507 508 509 510 511 512 513 15 
5 17 514 515 516 16 
3 14 517 13 
7 13 518 519 520 521 522 2 
4 1 523 524 9 
6 12 525 526 527 528 2 
3 12 529 1 
9 11 530 531 532 533 534 535 536 6 
6 10 537 538 539 540 7 
3 9 541 6 
5 9 542 543 544 7 
6 8 545 546 547 548 3 
3 7 549 6 
21 6 550 551 552 553 554 555 556 557 558 559 560 561 562 563 564 565 566 567 568 5 
7 4 569 570 571 572 573 2 
8 1 574 575 576 577 578 579 0 
45 53 168 169 170 171 172 173 174 175 176 177 178 179 180 181 182 183 184 185 186 187 188 189 190 191 192 193 194 195 196 197 198 199 200 201 202 203 204 52 215 216 217 218 219 51 
7 26 416 415 27 417 418 25 

POINT_DATA 580
SCALARS DY_raw double
LOOKUP_TABLE default
468.53 517.098 400.723 613.792 273.493 322.461 395.134 521.393 461.372 
448.815 463.669 352.675 460.129 479.081 388.069 471.71 349.417 361.633 
352.234 376.981 393.33 287.211 384.959 454.688 439.505 230.162 214.844 
190.316 364.747 299.639 379.557 349.639 335.2 343.101 363.061 331.4 
338.255 463.958 555.808 326.341 361.691 366.379 294.615 208.423 292.685 
272.866 64.4887 365.256 345.538 267.092 183.17 356.649 247.661 233.769 
318.363 316.56 257.222 184.601 211.234 209.114 222.55 235.246 244.773 
241.768 271.56 193.73 259.066 247.453 238.422 195.011 223.487 211.611 
212.026 185.088 165.885 179.5 177.544 160.121 169.18 253.022 275.624 
283.817 283.817 309.738 312.18 329.578 332.999 323.831 323.831 356.188 
356.188 327.066 265.6 265.6 225.719 223.327 250.78 245.946 235.15 
250.983 218.178 196.665 196.665 164.195 180.88 176.312 175.881 182.513 
197.387 230.619 239.287 246.52 269.913 296.961 263.577 201.104 192.96 
162.289 172.853 173.673 183.318 191.391 208.146 235.712 259.825 245.525 
266.309 267.326 257.222 275.024 287.868 322.145 283.456 294.58 247.34 
229.362 229.362 207.757 204.442 199.009 189.239 190.677 207.636 200.357 
194.809 205.678 204.696 224.791 209.52 228.062 223.421 224.186 247.753 
244.905 207.133 217.485 198.289 194.577 208.296 209.059 222.291 297.531 
273.107 256.512 297.425 226.115 208.123 248.688 220.791 211.801 238.315 
296.218 278.36 339.313 304.304 302.087 302.515 302.515 270.479 243.949 
273.523 213.476 228.463 256.161 244.671 236.966 236.966 209.47 184.974 
178.602 194.219 208.353 210.513 196.368 222.958 232.062 249.347 320.523 
313.314 304.242 222.813 213.927 218.079 220.17 239.629 221.28 256.518 
281.675 296.79 271.942 330.874 308.491 237.777 232.538 299.563 250.404 
254.929 264.237 323.108 329.148 294.407 279.803 124.992 154.544 152.618 
172.584 187.536 205.094 210.046 194.554 204.909 205.033 170.034 170.034 
150.194 170.501 194.427 216.388 221.271 235.587 221.704 223.596 198.674 
187.528 200.994 180.051 171.886 171.886 165.192 165.192 167.595 158.501 
178.519 176.843 208.73 228.48 236.4 244.917 258.236 237.531 252.309 
252.309 245.185 245.185 222.145 229.852 229.852 234.07 245.514 250.123 
271.835 303.104 322.222 334.32 288.109 304.998 254.069 254.071 216.185 
220.651 192.899 197.068 197.068 189.323 194.913 200.615 221.268 257.952 
256.713 244.118 268.057 288.599 270.948 294.616 324.784 327.168 366.406 
357.439 365.702 395.432 354.2 262.342 220.7 213.635 221.48 210.513 
209.201 197.089 193.833 208.079 218.174 225.814 222.737 243.885 243.885 
238.372 227.263 227.173 246.53 234.286 254.524 254.524 262.963 265.301 
278.878 266.404 283.298 272.2 268.265 294.651 275.822 282.891 307.631 
300.777 302.077 302.077 289.882 272.05 281.034 338.968 358.797 362.3 
365.942 380.827 375.908 374.671 374.671 350.658 347.429 347.429 384.089 
384.089 417.293 419.881 419.881 404.266 346.836 364.739 313.475 320.663 
321.878 349.369 403.237 403.237 443.911 474.837 499.857 462.584 491.818 
448.74 397.825 384.149 368.013 381.58 402.325 453.257 405.338 377.388 
305.548 316.597 315.555 324.384 337.331 349.984 299.356 314.604 294.161 
287.346 350.064 336.863 412.948 445.524 479.974 498.06 422.842 420.704 
456.788 513.497 555.808 641.874 674.218 616.592 460.304 364.225 326.248 
330.46 391.327 384.897 377.849 360.474 288.14 276.788 267.483 265.861 
258.376 206.492 225.309 177.739 188.713 421.055 411.752 369.942 399.057 
390.083 462.685 468.514 356.575 423.875 449.68 382.55 343.376 340.538 
458.293 460.162 392.379 444.513 478.689 301.203 301.203 317.489 353.346 
242.113 250.813 250.813 279.188 278.234 278.234 259.955 273.606 273.606 
286.121 301.779 332.938 288.902 288.902 302.376 302.318 302.318 301.392 
326.117 363.074 218.341 371.89 342.042 344.374 380.402 413.692 403.832 
403.832 373.477 357.4 287.211 284.473 235.27 257.392 253.976 265.545 
253.66 240.299 257.309 321.454 327.535 309.518 291.55 254.873 217.953 
201.24 222.325 241.571 237.226 269.22 275.628 275.628 290.584 267.31 
301.59 270.472 279.765 289.638 273.628 297.275 335.269 448.346 399.076 
446.581 479.056 415.835 439.027 534.64 557.582 567.831 588.235 546.682 
521.313 454.714 433.139 422.128 479.081 524.102 496.41 494.219 432.044 
394.296 492.666 425.428 466.155 519.782 452.831 399.692 520.111 363.082 
366.154 397.457 418.657 425.272 408.921 425.302 445.794 416.343 399.789 
432.937 391.83 460.095 450.996 454.44 531.233 537.526 565.916 575.578 
453 436.304 498.047 458.307 418.632 418.632 391.981 395.344 331.717 
314.756 314.37 380.181 380.181 368.588 379.723 363.209 341.757 327.267 
307.78 294.766 280.902 332.772 346.19 364.802 357.121 446.698 450.571 
443.581 447.849 395.146 436.581 
FIELD FieldData 7
DY_minmax 1 580 double
0.662656 0.742311 0.551449 0.900897 0.342783 0.423093 0.542283 0.749355 0.650918 
0.630322 0.654684 0.472647 0.648878 0.679961 0.530695 0.667872 0.467303 0.487337 
0.471923 0.512509 0.539324 0.365281 0.525594 0.639954 0.615053 0.271716 0.246593 
0.206367 0.492446 0.385663 0.516734 0.467667 0.443986 0.456944 0.48968 0.437753 
0.448996 0.655158 0.805799 0.429457 0.487432 0.495122 0.377424 0.236063 0.374258 
0.341753 0 0.493281 0.46094 0.332285 0.194646 0.479163 0.300415 0.277633 
0.416373 0.413415 0.316097 0.196992 0.240673 0.237196 0.259232 0.280053 0.29568 
0.29075 0.339612 0.211966 0.319121 0.300074 0.285262 0.214065 0.260769 0.24129 
0.241972 0.197791 0.166297 0.188627 0.185419 0.156844 0.171702 0.309208 0.346278 
0.359713 0.359713 0.402226 0.406232 0.434765 0.440376 0.42534 0.42534 0.478408 
0.478408 0.430645 0.329837 0.329837 0.264429 0.260507 0.30553 0.297603 0.279897 
0.305864 0.252062 0.216778 0.216778 0.163526 0.19089 0.183398 0.182691 0.193569 
0.217963 0.272465 0.286682 0.298545 0.33691 0.381271 0.326519 0.224059 0.210703 
0.160399 0.177725 0.17907 0.194888 0.208128 0.235608 0.280819 0.320365 0.296912 
0.331 0.332667 0.316097 0.345293 0.366358 0.422575 0.359122 0.377367 0.299889 
0.270404 0.270404 0.23497 0.229534 0.220623 0.204599 0.206957 0.234771 0.222833 
0.213735 0.231561 0.229949 0.262907 0.237862 0.268272 0.26066 0.261916 0.300567 
0.295896 0.233947 0.250925 0.219442 0.213355 0.235855 0.237105 0.258807 0.382206 
0.34215 0.314932 0.382032 0.265079 0.23557 0.3021 0.256347 0.241603 0.285088 
0.380053 0.350765 0.450731 0.393314 0.389678 0.39038 0.39038 0.337839 0.294327 
0.34283 0.24435 0.268929 0.314356 0.295512 0.282876 0.282876 0.23778 0.197604 
0.187153 0.212768 0.235948 0.239491 0.216291 0.259901 0.274832 0.303181 0.419914 
0.408091 0.393213 0.259663 0.245089 0.251899 0.255329 0.287242 0.257149 0.314942 
0.356202 0.380991 0.340238 0.43689 0.400182 0.284206 0.275614 0.385538 0.304914 
0.312335 0.327601 0.424154 0.43406 0.377083 0.35313 0.0992294 0.147697 0.144538 
0.177283 0.201807 0.230602 0.238725 0.213316 0.2303 0.230503 0.173102 0.173102 
0.140563 0.173867 0.213108 0.249125 0.257133 0.280613 0.257845 0.260948 0.220074 
0.201794 0.223878 0.189531 0.17614 0.17614 0.16516 0.16516 0.169102 0.154187 
0.187017 0.18427 0.236565 0.268957 0.281947 0.295915 0.31776 0.283802 0.308038 
0.308038 0.296355 0.296355 0.258568 0.271207 0.271207 0.278126 0.296894 0.304454 
0.340062 0.391345 0.422702 0.442542 0.366754 0.394453 0.310926 0.310929 0.248792 
0.256118 0.210602 0.21744 0.21744 0.204737 0.213905 0.223256 0.257129 0.317293 
0.315261 0.294605 0.333867 0.367557 0.338607 0.377425 0.426903 0.430813 0.495165 
0.48046 0.494011 0.54277 0.475147 0.324493 0.256198 0.244611 0.257478 0.23949 
0.237339 0.217474 0.212134 0.235498 0.252055 0.264585 0.259539 0.294222 0.294222 
0.285181 0.266961 0.266814 0.29856 0.27848 0.311671 0.311671 0.325513 0.329346 
0.351613 0.331155 0.358862 0.340662 0.334208 0.377483 0.346601 0.358196 0.398772 
0.38753 0.389662 0.389662 0.36966 0.340415 0.35515 0.450166 0.482687 0.488432 
0.494405 0.518817 0.510749 0.508721 0.508721 0.469339 0.464042 0.464042 0.524167 
0.524167 0.578624 0.582869 0.582869 0.55726 0.463069 0.492432 0.408355 0.420145 
0.422136 0.467224 0.555572 0.555572 0.622279 0.673001 0.714035 0.652905 0.700851 
0.6302 0.546695 0.524266 0.497802 0.520052 0.554075 0.637608 0.559017 0.513177 
0.395355 0.413476 0.411767 0.426247 0.447481 0.468232 0.385198 0.410208 0.37668 
0.365502 0.468365 0.446712 0.571497 0.624926 0.681426 0.711088 0.587725 0.584218 
0.643398 0.736405 0.805799 0.946953 1 0.905489 0.649165 0.491589 0.429303 
0.436212 0.536039 0.525493 0.513934 0.485438 0.366804 0.348186 0.332925 0.330266 
0.317989 0.232896 0.263757 0.185738 0.203737 0.584794 0.569537 0.500966 0.548716 
0.533998 0.65307 0.662631 0.479043 0.589419 0.631742 0.521644 0.457394 0.45274 
0.645867 0.648933 0.537764 0.623267 0.679318 0.388228 0.388228 0.414938 0.473747 
0.291316 0.305586 0.305586 0.352122 0.350557 0.350557 0.320579 0.342968 0.342968 
0.363493 0.389172 0.440277 0.368053 0.368053 0.390152 0.390057 0.390057 0.388539 
0.429089 0.489701 0.252329 0.504161 0.455207 0.459033 0.51812 0.572718 0.556547 
0.556547 0.506762 0.480395 0.365281 0.360789 0.280093 0.316375 0.310772 0.329746 
0.310255 0.288341 0.316239 0.421442 0.431415 0.401865 0.372397 0.312244 0.251692 
0.224282 0.258862 0.290428 0.283302 0.335774 0.346284 0.346284 0.370812 0.332641 
0.388863 0.337827 0.353068 0.369261 0.343004 0.381786 0.444098 0.629553 0.548747 
0.626659 0.67992 0.576233 0.61427 0.771082 0.808708 0.825517 0.858981 0.790832 
0.749225 0.639997 0.604612 0.586554 0.679961 0.753799 0.708382 0.704788 0.602817 
0.540908 0.702242 0.591966 0.658762 0.746714 0.636908 0.549758 0.747253 0.489714 
0.494753 0.546092 0.580861 0.59171 0.564893 0.59176 0.625368 0.577066 0.549916 
0.604281 0.536864 0.648823 0.633899 0.639548 0.765494 0.775815 0.822376 0.838223 
0.637186 0.609804 0.711067 0.64589 0.580821 0.580821 0.53711 0.542627 0.438273 
0.410455 0.409824 0.517758 0.517758 0.498744 0.517007 0.489922 0.454739 0.430975 
0.399016 0.377671 0.354933 0.440003 0.46201 0.492535 0.479937 0.62685 0.633203 
0.621739 0.628738 0.542301 0.610257 
WidthEq 1 580 double
1.47775 3.0138 3.12622 1.71634 2.1176 1.60887 2.69528 2.20806 1.06866 
2.89175 1.26778 1.57935 3.87074 3.01959 2.95754 3.41116 1.79087 2.04611 
1.22557 1.2902 3.79597 1.57595 1 2.04932 2.86174 1.93003 1.97571 
1.67463 2.19752 2.39488 3.41245 3.1747 2.40408 2.97379 2.25775 1.27163 
1.04034 1.79191 2.1626 2.11202 1.36675 1.14223 2.67867 1.91331 3.46974 
3.46438 1.38968 2.24182 1.67504 3.29275 3.48233 2.06264 2.85071 2.31403 
2.28377 2.0941 2.68032 2.5073 2.67163 2.67796 2.72145 2.79439 2.78878 
2.54757 2.12185 2.48133 2.3167 2.5518 2.71212 3.16982 3.13691 3.46802 
3.75949 4.11707 4.38773 4.25035 4.22723 4.09958 3.81959 2.79572 2.64352 
2.63737 2.63737 2.566 2.55609 2.39606 2.30508 2.07877 2.07877 1.60586 
1.60586 1.53373 1.64898 1.64898 1.86652 2.20017 2.06942 2.52608 2.86025 
2.67372 3.35913 3.64493 3.64493 4.41108 4.22561 4.39925 4.73041 4.5915 
4.35073 3.92934 3.89173 3.43679 3.15305 2.99995 3.2345 4.00061 4.67899 
5.23727 5.12268 4.93715 4.53093 4.43924 4.08362 3.40067 3.27586 2.71544 
2.59935 2.7162 2.68032 2.5457 2.32988 2.03321 2.13849 2.21131 2.46438 
2.73549 2.73549 3.01208 3.17683 3.25317 3.3121 3.14946 3.16496 3.13974 
3.04913 3.14957 3.15834 2.98926 3.04834 2.82589 2.84924 2.78709 2.62874 
2.7747 3.18659 3.24463 3.8812 4.14128 4.09685 4.08846 3.89282 2.43316 
2.40912 2.3296 2.17783 2.19379 2.31647 2.11815 2.28759 2.51089 2.35205 
1.89674 2.03617 1.7584 1.89669 1.92712 2.06532 2.06532 2.2588 2.48933 
2.36821 2.58455 2.5401 2.44245 2.39059 2.46393 2.46393 2.66443 2.78336 
2.88513 2.86531 2.72364 2.89625 3.01913 2.81712 2.65114 2.27927 1.73448 
1.68316 1.52253 1.72045 1.94052 2.05778 2.35849 2.66228 2.51776 2.5257 
2.42417 2.32619 2.56889 2.38559 2.58616 3.08524 3.26879 3.0466 2.9926 
3.0157 2.91189 2.55772 2.43565 2.84099 2.97448 1.6705 1.74345 1.94158 