# vtk DataFile Version 3.0
vtk output
ASCII
DATASET POLYDATA
POINTS 434 float
1.94815 -1.40054 0.969266 0.550998 0.305273 0.966772 0.641536 0.0105124 0.925316 
0.823588 0.0258112 0.980999 2.30804 0.121578 0.856432 2.43544 -0.947993 0.858894 
0.230392 -0.0424417 0.695792 0.149629 -0.307271 0.651151 2.54948 -0.0280345 0.773775 
0.352439 0.543659 0.589418 0.14899 -0.64116 0.396902 0.985646 0.833075 0.595525 
-0.155542 -0.3815 0.220587 0.836507 0.874731 0.460114 2.82679 0.524205 0.294093 
2.72237 -2.18274 -0.534477 3.80034 -1.08651 -0.720943 4.0007 -0.947183 -0.690257 
1.59031 1.28251 -0.792992 1.09537 1.26255 -0.953715 1.18762 -1.96047 -1.38043 
3.55243 0.299195 -1.21778 3.00724 -1.94717 -1.29539 2.43084 1.0448 -1.06154 
4.27108 -0.0205922 -1.14237 3.78572 -1.26755 -1.43238 4.83882 0.0661637 -1.10306 
1.97442 1.13923 -1.27033 2.70489 0.872119 -1.27833 3.8298 -0.283299 -1.40571 
0.474131 0.80587 -1.59289 1.88325 1.1001 -1.48312 2.46827 0.910708 -1.48573 
3.90992 -0.352359 -1.61532 1.10365 1.05922 -1.72758 2.23203 -1.82275 -2.12183 
1.86217 -1.55443 -2.50237 3.26485 -1.50315 -2.43047 1.73125 0.310913 -2.62502 
2.25158 0.464068 -2.57761 2.56461 -1.02296 -2.99589 2.63365 -1.01756 -2.89436 
2.69933 -1.01631 -2.82365 2.75869 -1.02416 -2.79214 2.82149 -1.02412 -2.78177 
2.88219 -1.02745 -2.77951 2.95087 -1.01602 -2.77461 3.02429 -0.995816 -2.76814 
3.09857 -0.974033 -2.76138 3.17248 -0.953233 -2.74729 3.24401 -0.933785 -2.71851 
3.30413 -0.912163 -2.66742 3.34175 -0.879838 -2.60817 3.37971 -0.846379 -2.55625 
3.44073 -0.821312 -2.52708 3.5108 -0.799774 -2.50555 3.57182 -0.774707 -2.47638 
3.60935 -0.742328 -2.41714 3.64427 -0.712481 -2.33589 3.69178 -0.691983 -2.24053 
3.73531 -0.666738 -2.1596 3.78407 -0.641665 -2.09348 3.81852 -0.606331 -2.04143 
3.84374 -0.567372 -1.98173 3.86701 -0.528687 -1.91466 3.88977 -0.49103 -1.84027 
3.91081 -0.452464 -1.76581 3.92144 -0.408329 -1.69098 2.17735 0.442137 -2.58438 
2.10472 0.419349 -2.59122 2.04089 0.391855 -2.59838 1.99043 0.357221 -2.60604 
1.92666 0.329823 -2.61319 1.85498 0.308807 -2.61971 1.78726 0.298918 -2.62432 
3.31643 -1.5298 -2.33469 3.37955 -1.52923 -2.2642 3.44108 -1.50803 -2.22811 
3.49064 -1.47566 -2.20583 3.55005 -1.44974 -2.1766 3.59923 -1.42358 -2.11779 
3.62027 -1.38763 -2.02874 3.65627 -1.3649 -1.91104 3.68549 -1.34118 -1.77848 
3.70969 -1.31477 -1.64574 3.74385 -1.29106 -1.52797 1.81369 -1.52853 -2.50057 
1.7652 -1.50262 -2.49878 1.71672 -1.47672 -2.49698 1.66823 -1.45081 -2.49519 
1.62008 -1.42377 -2.50071 1.57232 -1.39551 -2.51352 1.52574 -1.36454 -2.53336 
1.48353 -1.32601 -2.54434 1.44849 -1.27423 -2.55293 1.40757 -1.23279 -2.5709 
1.36817 -1.18752 -2.60321 1.33973 -1.12198 -2.63189 1.31063 -1.05872 -2.64594 
1.2699 -1.01796 -2.649 1.22831 -0.978786 -2.65234 1.19332 -0.926918 -2.66092 
1.15235 -0.885577 -2.6789 1.11076 -0.846412 -2.68224 1.07563 -0.796338 -2.6686 
1.03735 -0.753113 -2.64115 1.00183 -0.704264 -2.62021 0.958668 -0.669038 -2.60923 
0.910809 -0.642492 -2.5998 0.862284 -0.618206 -2.57575 0.817406 -0.588721 -2.52822 
0.779357 -0.547128 -2.471 0.735334 -0.516061 -2.42319 0.691457 -0.483183 -2.3976 
0.649525 -0.446196 -2.37878 0.59378 -0.435255 -2.35712 0.543296 -0.416135 -2.31145 
0.498456 -0.387609 -2.24906 0.440705 -0.383464 -2.18352 0.390131 -0.366053 -2.1156 
0.350508 -0.328396 -2.04407 0.304578 -0.3024 -1.97461 0.253948 -0.285093 -1.90671 
0.201658 -0.270851 -1.83937 0.145478 -0.263804 -1.77331 0.0865385 -0.26237 -1.70075 
0.0415056 -0.235744 -1.61615 -0.0066186 -0.215861 -1.51773 -0.0585311 -0.202982 -1.42056 
-0.110444 -0.190101 -1.32341 -0.15785 -0.167863 -1.23959 -0.201641 -0.138427 -1.16201 
-0.254922 -0.126533 -1.08757 -0.298089 -0.0964577 -1.00234 -0.339503 -0.0644018 -0.901741 
-0.370669 -0.0182021 -0.790968 -0.386735 0.0252773 -0.657431 -0.373835 0.0393492 -0.512108 
-0.339899 0.00935746 -0.35763 -0.29907 -0.0364699 -0.212792 -0.257931 -0.0854976 -0.0759395 
-0.221678 -0.142758 0.0444045 -0.197153 -0.220154 0.138603 -0.176561 -0.30225 0.194367 
2.26486 -1.87348 -2.18821 2.30855 -1.90568 -2.22871 2.35703 -1.93158 -2.23051 
2.41064 -1.95007 -2.20091 2.47583 -1.94766 -2.16004 2.54227 -1.94244 -2.12619 
2.60216 -1.94983 -2.08709 2.6675 -1.94971 -2.00906 2.73469 -1.94928 -1.88588 
2.79669 -1.96048 -1.73472 2.85187 -1.98356 -1.59321 2.91346 -1.98917 -1.47122 
2.97067 -1.97601 -1.37654 1.12607 1.09575 -1.64589 1.14589 1.13022 -1.54461 
1.15292 1.16438 -1.39895 1.13202 1.20827 -1.19803 3.86457 -0.327342 -1.51598 
3.97982 -0.345131 -1.51347 4.04936 -0.332469 -1.44082 4.10971 -0.30967 -1.39702 
4.14654 -0.272984 -1.35966 4.17218 -0.232945 -1.30728 4.19579 -0.193051 -1.24751 
4.21968 -0.150549 -1.19483 4.2448 -0.095953 -1.16273 2.40708 0.92187 -1.61435 
2.35612 0.950927 -1.72473 2.30383 0.975459 -1.80585 2.23931 0.97531 -1.86134 
2.1735 0.970733 -1.88755 2.11884 0.985728 -1.89523 2.06906 1.00873 -1.88644 
2.01924 1.03011 -1.85539 1.96838 1.04648 -1.78015 1.92074 1.0652 -1.65188 
2.45185 0.957513 -1.34419 2.44726 0.997996 -1.20308 2.52298 0.8958 -1.47804 
2.58386 0.890757 -1.44603 2.64146 0.877072 -1.378 1.81547 1.09035 -1.48772 
1.75487 1.09386 -1.48994 1.69271 1.09447 -1.49268 1.63862 1.11002 -1.49275 
1.58995 1.13484 -1.48362 1.54844 1.16729 -1.45048 1.52816 1.2106 -1.36718 
1.53554 1.24273 -1.22432 1.55711 1.26382 -1.02499 1.91878 1.12569 -1.38 
0.406025 0.794988 -1.59018 0.344758 0.796234 -1.57778 0.281207 0.792229 -1.55128 
0.22454 0.800203 -1.51512 0.167283 0.801206 -1.45004 0.105354 0.770017 -1.35265 
0.0501912 0.716403 -1.21339 -0.0133031 0.677973 -1.05717 -0.0652917 0.678257 -0.901926 
-0.0897133 0.708801 -0.748263 -0.0841846 0.737542 -0.585997 -0.0674345 0.761264 -0.416499 
-0.0459756 0.787828 -0.27635 -0.0122868 0.82095 -0.209666 0.0385231 0.859328 -0.223931 
0.0796886 0.91071 -0.281628 0.122222 0.960053 -0.332082 0.185672 0.992985 -0.354108 
0.258443 1.01701 -0.354579 0.330978 1.03985 -0.347738 0.394804 1.06734 -0.340575 
0.445274 1.10197 -0.332918 0.50909 1.12947 -0.325755 0.582004 1.15329 -0.326251 
0.656615 1.17798 -0.349043 0.727436 1.19799 -0.410239 0.787729 1.2006 -0.504629 
0.847686 1.20313 -0.609044 0.916203 1.21878 -0.711051 0.992455 1.23303 -0.825411 
3.68725 0.221348 -1.17933 3.78114 0.202664 -1.13974 3.85096 0.203318 -1.1078 
3.90593 0.187063 -1.0819 3.96065 0.172163 -1.0742 4.02224 0.171004 -1.07908 
4.07733 0.158847 -1.10095 4.12738 0.136725 -1.11709 4.17617 0.109042 -1.12665 
4.22411 0.0627292 -1.13163 2.67654 0.926486 -1.14365 2.64789 0.981345 -1.02393 
2.6144 1.02982 -0.942934 2.56492 1.05234 -0.919203 2.5001 1.05114 -0.967357 
2.77355 0.876297 -1.16951 2.83732 0.872476 -1.07715 2.88903 0.847389 -1.00364 
2.93547 0.813077 -0.939305 2.98128 0.778124 -0.882596 3.02686 0.743755 -0.840809 
3.06936 0.706268 -0.837172 3.10554 0.659682 -0.87274 3.14582 0.623241 -0.944059 
3.18367 0.582311 -1.01619 3.2285 0.552739 -1.06374 3.27636 0.526192 -1.07317 
3.32357 0.496583 -1.06399 3.37053 0.457757 -1.07399 3.43411 0.391439 -1.12705 
1.94089 1.18609 -1.16707 1.89947 1.21733 -1.05158 1.85876 1.24988 -0.935859 
1.80611 1.2619 -0.843862 1.74187 1.25827 -0.799837 1.67467 1.26797 -0.786391 
2.04474 1.14906 -1.19807 2.10956 1.14872 -1.12765 2.16252 1.12645 -1.06115 
2.21456 1.1025 -0.994945 2.27349 1.09229 -0.941316 2.32691 1.07448 -0.926633 
2.3783 1.05704 -0.972001 4.78938 0.090297 -1.10159 4.73524 0.105751 -1.10166 
4.67308 0.106365 -1.10441 4.61252 0.109725 -1.10665 4.54554 0.0973886 -1.11161 
4.48258 0.0715598 -1.11848 4.43124 0.0367466 -1.1262 4.36118 0.00742386 -1.13393 
3.78778 -1.22145 -1.34263 3.79438 -1.1804 -1.23844 3.8013 -1.14607 -1.09776 
3.79538 -1.11142 -0.920098 3.55654 0.34974 -0.865311 3.52342 0.34251 -0.567134 
3.47893 0.300212 -0.336971 3.42609 0.279801 -0.151552 3.36483 0.267232 0.00127936 
3.29077 0.235854 0.135607 3.21139 0.19539 0.260781 3.13144 0.154379 0.378348 
3.0522 0.115483 0.481264 2.9759 0.0802547 0.554868 2.90979 0.0449399 0.598911 
2.85924 0.00858997 0.613491 2.8004 -0.0107144 0.622833 2.74037 -0.0117431 0.642443 
2.67502 -0.0203462 0.683146 2.6115 -0.0258254 0.731932 1.14265 -1.9327 -1.31066 
1.10427 -1.89223 -1.24612 1.05939 -1.86275 -1.1986 1.01081 -1.83856 -1.17456 
0.962049 -1.81369 -1.16544 0.913565 -1.78779 -1.16364 0.865081 -1.76188 -1.16185 
0.816597 -1.73598 -1.16005 0.768113 -1.71007 -1.15826 0.71963 -1.68417 -1.15646 
0.671146 -1.65826 -1.15466 0.622328 -1.63349 -1.14555 0.573178 -1.60984 -1.12914 
0.523412 -1.58837 -1.09807 0.474501 -1.56531 -1.06673 0.429951 -1.5347 -1.02651 
0.392861 -1.48979 -0.991239 0.348697 -1.45796 -0.958318 0.301078 -1.432 -0.933967 
0.257826 -1.39848 -0.900743 0.225666 -1.34548 -0.849 0.193224 -1.29352 -0.789914 
0.149878 -1.26172 -0.734453 0.107015 -1.22874 -0.686294 0.0768994 -1.17705 -0.619647 
0.0604784 -1.12206 -0.536854 0.0576532 -1.07478 -0.439645 0.0419631 -1.01921 -0.349222 
0.0193963 -0.958643 -0.265859 0.00412827 -0.90198 -0.182765 0.00339774 -0.854396 -0.0928967 
-0.00236299 -0.80674 0.0117445 -0.000261003 -0.763287 0.116105 0.00628466 -0.722206 0.22029 
0.0438546 -0.693777 0.301437 0.0883938 -0.665142 0.360416 1.16789 1.2428 -0.793391 
1.2372 1.23646 -0.656159 1.30204 1.23302 -0.561194 1.36093 1.22325 -0.517506 
1.42619 1.22883 -0.541178 1.49775 1.24309 -0.640748 3.92826 -0.970075 -0.697101 
3.86624 -0.998529 -0.704331 3.82808 -1.03974 -0.712444 3.71913 -1.13876 -0.537649 
3.64773 -1.19231 -0.376618 3.5933 -1.24708 -0.260014 3.53665 -1.2915 -0.194441 
3.48674 -1.33167 -0.172916 3.42609 -1.36217 -0.172894 3.37415 -1.39732 -0.173194 
3.3463 -1.44928 -0.152486 3.28999 -1.49257 -0.0942282 3.21474 -1.53097 -0.00605617 
3.13625 -1.56765 0.0822353 3.05868 -1.60089 0.148583 2.98371 -1.6316 0.192935 
2.91755 -1.66701 0.236961 2.86476 -1.70956 0.280502 2.79893 -1.74384 0.317212 
2.7253 -1.77002 0.332312 2.65073 -1.79308 0.33285 2.57649 -1.81501 0.326073 
2.50396 -1.83785 0.319232 2.44218 -1.86513 0.304691 2.40321 -1.90198 0.274707 
2.36568 -1.93436 0.215469 2.3087 -1.95242 0.13504 2.25248 -1.96827 0.0399972 
2.21818 -1.99713 -0.0485741 2.19567 -2.03361 -0.130269 2.18541 -2.07651 -0.212398 
2.20037 -2.12941 -0.30244 2.23182 -2.17635 -0.398292 2.27794 -2.20125 -0.475076 
2.33436 -2.20888 -0.526203 2.40308 -2.19583 -0.543558 2.47674 -2.17469 -0.544435 
2.55006 -2.15468 -0.537996 2.61783 -2.14493 -0.533397 2.67288 -2.15871 -0.533017 
2.77701 0.547207 0.302886 2.72187 0.559268 0.324743 2.6578 0.553046 0.365873 
2.59662 0.547578 0.414766 2.53782 0.521706 0.460603 2.49686 0.476302 0.496727 
2.45608 0.426145 0.547135 2.40289 0.37947 0.614027 2.36255 0.319928 0.699013 
2.33268 0.238908 0.781165 0.909821 0.868001 0.527446 0.39863 0.511457 0.616557 
0.439177 0.467278 0.664094 0.471269 0.405414 0.738522 0.509143 0.352178 0.844561 
2.51129 0.01553 0.802777 2.47154 0.0618039 0.821633 2.41404 0.105045 0.8392 
2.19108 0.0857119 0.856055 2.10013 0.0534835 0.88594 2.02223 0.0196415 0.946183 
1.95434 -0.0212323 1.02529 1.90055 -0.0671776 1.09077 1.8341 -0.103623 1.14213 
1.76038 -0.13152 1.17947 1.68975 -0.149873 1.21843 1.62652 -0.1538 1.25245 
1.55808 -0.165805 1.26248 1.4915 -0.172834 1.25085 1.43693 -0.156123 1.22094 
1.38317 -0.137918 1.19129 1.32272 -0.131561 1.152 1.26527 -0.120169 1.12113 
1.21004 -0.104674 1.091 1.16834 -0.0652116 1.08019 1.1187 -0.040407 1.06676 
1.05375 -0.0434012 1.04082 0.98864 -0.0455542 1.00001 0.934546 -0.0260293 0.970546 
0.882424 0.00414836 0.965331 0.130557 -0.228938 0.624877 0.120993 -0.159614 0.620162 
0.136001 -0.107346 0.636435 0.171261 -0.0685162 0.666555 2.40959 -0.995778 0.850325 
2.38364 -1.04351 0.84176 2.35609 -1.09039 0.833254 2.31973 -1.13255 0.825074 
2.26992 -1.16754 0.817392 2.23186 -1.2088 0.809275 2.1937 -1.25001 0.801162 
2.14176 -1.28516 0.800862 2.09175 -1.32527 0.82239 2.02502 -1.363 0.881034 
0.759566 0.00655459 0.982607 0.695426 -0.00593492 0.962748 
LINES 31 489
29 40 41 42 43 44 45 46 47 48 49 50 51 52 53 54 55 56 57 58 59 60 61 62 63 64 65 66 67 33 
9 39 68 69 70 71 72 73 74 38 
60 36 86 87 88 89 90 91 92 93 94 95 96 97 98 99 100 101 102 103 104 105 106 107 108 109 110 111 112 113 114 115 116 117 118 119 120 121 122 123 124 125 126 127 128 129 130 131 132 133 134 135 136 137 138 139 140 141 142 143 12 
15 35 144 145 146 147 148 149 150 151 152 153 154 155 156 22 
6 34 157 158 159 160 19 
3 33 161 29 
10 33 162 163 164 165 166 167 168 169 24 
12 32 170 171 172 173 174 175 176 177 178 179 31 
4 32 180 181 23 
5 32 182 183 184 28 
11 31 185 186 187 188 189 190 191 192 193 18 
3 31 194 27 
32 30 195 196 197 198 199 200 201 202 203 204 205 206 207 208 209 210 211 212 213 214 215 216 217 218 219 220 221 222 223 224 19 
12 21 225 226 227 228 229 230 231 232 233 234 24 
7 28 235 236 237 238 239 23 
17 28 240 241 242 243 244 245 246 247 248 249 250 251 252 253 254 21 
8 27 255 256 257 258 259 260 18 
9 27 261 262 263 264 265 266 267 23 
10 26 268 269 270 271 272 273 274 275 24 
38 20 296 297 298 299 300 301 302 303 304 305 306 307 308 309 310 311 312 313 314 315 316 317 318 319 320 321 322 323 324 325 326 327 328 329 330 331 10 
8 19 332 333 334 335 336 337 18 
5 17 338 339 340 16 
39 16 341 342 343 344 345 346 347 348 349 350 351 352 353 354 355 356 357 358 359 360 361 362 363 364 365 366 367 368 369 370 371 372 373 374 375 376 377 15 
12 14 378 379 380 381 382 383 384 385 386 387 4 
3 11 388 13 
6 9 389 390 391 392 1 
6 7 418 419 420 421 6 
12 5 422 423 424 425 426 427 428 429 430 431 0 
18 37 75 76 77 78 79 80 81 82 83 84 85 25 276 277 278 279 16 
22 21 280 281 282 283 284 285 286 287 288 289 290 291 292 293 294 295 8 393 394 395 4 
27 4 396 397 398 399 400 401 402 403 404 405 406 407 408 409 410 411 412 413 414 415 416 417 3 432 433 2 

POINT_DATA 434
SCALARS DY_raw double
LOOKUP_TABLE default
1105.24 651.813 672.931 727.321 611.817 645.372 653.716 611.54 710.172 
666.716 490.797 674.67 587.159 703.594 907.078 902.596 684.619 744.516 
593.229 734.898 409.894 545.177 691.678 681.065 730.731 460.976 955.105 
597.739 573.436 723.041 459.507 564.077 485.508 539.558 510.321 673.883 
573.459 614.838 644.725 559.286 568.143 614.484 719.524 738.817 716.641 
758.517 727.615 755.954 676.632 676.632 651.587 605.568 623.665 531.943 
475.922 518.673 528.672 563.613 507.193 531.958 499.128 568.994 641.513 
689.882 591.126 682.527 628.048 516.611 539.841 535.165 508.879 524.551 
549.897 609.357 613.563 721.987 734.822 755.534 721.524 721.524 733.613 
766.591 796.314 631.475 574.91 499.66 573.459 532.192 532.192 510.248 
513.936 565.317 536.894 564.743 564.743 631.68 649.65 646.591 604.402 
604.402 545.052 514.392 529.673 511.676 474.947 511.83 438.543 450.437 
450.437 474.941 501.601 533.202 495.508 522.847 485.467 443.206 481.438 
477.687 447.594 477.927 467.435 507.542 536.126 497.908 518.742 506.551 
510.794 572.251 602.895 589.159 637.669 568.943 538.637 529.274 527.364 
547.302 545.48 576.002 527.887 471.39 447.109 532.85 558.487 548.645 
599.526 498.714 468.123 468.123 457.521 484.152 423.198 502.702 586.542 
657.226 702.452 689.379 658.147 562.215 650.532 703.016 728.076 627.698 
572.032 621.941 625.301 710.137 789.716 859.01 892.816 799.698 560.937 
545.699 530.243 539.783 539.783 538.54 532.479 535.866 537.602 563.067 
603.505 670.634 514.332 502.17 504.36 598.038 584.568 584.568 564.95 
564.95 556.979 565.959 562.928 552.84 575.529 520.944 511.45 576.614 
522.017 576.655 546.186 542.901 441.803 468.171 531.167 580.436 626.354 
715.054 729.35 807.299 812.574 792.093 882.981 939.637 872.445 851.243 
747.961 749.765 776.08 839.872 859.567 803.881 815.839 741.795 732.286 
619.076 690.753 747.542 751.922 869.667 830.731 830.731 757.065 702.055 
705.706 603.143 666.68 685.422 720.848 712.468 551.014 569.852 635.033 
595.066 593.624 617.191 575.699 561.23 521.35 478.045 464.079 457.925 
463.501 487.787 491.636 630.96 735.715 739.841 707.336 680.305 597.277 
589.929 631.935 669.364 711.781 753.666 753.666 728.862 944.091 955.548 
955.548 932.677 873.928 804.921 730.805 728.171 503.245 526.545 634.235 
671.38 696.16 820.696 904.336 778.97 752.811 692.759 695.599 717.257 
693.216 827.674 854.103 816.491 762.748 723.158 720.543 698.695 442.296 
495.721 539.78 563.544 613.34 613.34 626.407 633.718 633.718 622.982 
604.661 604.661 559.46 600.874 600.874 580.347 551.691 597.711 556.897 
594.662 597.409 558.459 592.065 603.418 616.698 580.572 555.384 512.717 
535.913 526.834 442.379 435.73 409.543 431.341 514.987 517.067 785.483 
736.97 710.483 674.025 614.691 584.616 728.832 698.868 698.868 653.655 
691.123 613.333 657.244 693.263 620.291 574.018 587.669 569.053 707.408 
793.619 724.571 764.431 682.08 710.826 814.705 795.089 742.876 811.962 
812.114 882.917 824.975 725.893 707.627 638.014 580.515 567.364 557.831 
544.669 518.222 519.92 495.38 599.392 599.392 708.601 866.012 866.012 
824.592 824.592 856.171 809.011 780.836 735.961 719.227 681.336 667.159 
626.295 691.05 606.165 613.881 630.578 643.234 679.865 635.005 611.695 
681.51 715.225 834.638 892.844 874.829 887.685 842.719 790.256 787.173 
865.957 813.741 928.492 837.515 806.328 751.085 727.768 727.768 685.79 
630.152 680.418 695.245 705.144 570.338 582.046 582.046 603.173 599.543 
635.57 635.57 571.798 571.798 649.289 677.079 728.27 781.785 867.33 
731.344 707.153 
FIELD FieldData 7
DY_minmax 1 434 double
1 0.348241 0.378595 0.456777 0.29075 0.338983 0.350976 0.290352 0.432126 
0.369662 0.116795 0.381095 0.255306 0.422671 0.71516 0.708719 0.395396 0.481492 
0.264032 0.467668 0.000504499 0.194961 0.405543 0.390288 0.461678 0.0739299 0.784195 
0.270514 0.235582 0.450624 0.0718191 0.222129 0.109192 0.186884 0.144859 0.379964 
0.235613 0.295092 0.338052 0.215242 0.227972 0.294583 0.44557 0.473302 0.441426 
0.501618 0.4572 0.497935 0.383917 0.383917 0.347916 0.281768 0.30778 0.175938 
0.0954137 0.156865 0.171237 0.221461 0.140363 0.17596 0.12877 0.229196 0.333435 
0.402962 0.261009 0.392389 0.314081 0.153901 0.187291 0.18057 0.142786 0.165314 
0.201746 0.287214 0.29326 0.449109 0.467558 0.49733 0.448444 0.448444 0.46582 
0.513224 0.555948 0.319006 0.2377 0.129534 0.235613 0.176297 0.176297 0.144754 
0.150055 0.22391 0.183055 0.223085 0.223085 0.319302 0.345131 0.340734 0.280092 
0.280092 0.194782 0.150711 0.172676 0.146807 0.0940123 0.147029 0.0416852 0.0587809 
0.0587809 0.0940035 0.132324 0.177749 0.123567 0.162865 0.109133 0.0483872 0.103343 
0.0979507 0.054694 0.098296 0.0832146 0.140865 0.181951 0.127017 0.156963 0.13944 
0.145539 0.233878 0.277926 0.258182 0.32791 0.229123 0.185561 0.172102 0.169356 
0.198016 0.195397 0.23927 0.170109 0.0888995 0.053997 0.177242 0.214094 0.199946 
0.273083 0.128175 0.0842034 0.0842034 0.0689643 0.107243 0.0196283 0.133907 0.254419 
0.356022 0.42103 0.402238 0.357345 0.219453 0.3464 0.421841 0.457862 0.313577 
0.233563 0.305303 0.310133 0.432076 0.546464 0.646068 0.69466 0.560813 0.217615 
0.195712 0.173494 0.187207 0.187207 0.185421 0.176709 0.181578 0.184073 0.220677 
0.278802 0.375294 0.150625 0.133143 0.136291 0.270945 0.251582 0.251582 0.223383 
0.223383 0.211926 0.224834 0.220477 0.205976 0.23859 0.160129 0.146482 0.240149 
0.161671 0.240208 0.196412 0.19169 0.0463703 0.0842719 0.174823 0.245644 0.311646 
0.439144 0.459693 0.571737 0.57932 0.54988 0.680523 0.761961 0.665379 0.634904 
0.486445 0.489038 0.526864 0.618558 0.646868 0.566825 0.584014 0.477582 0.463914 
0.301185 0.404214 0.485842 0.492139 0.661386 0.60542 0.60542 0.499531 0.420459 
0.425707 0.278282 0.369611 0.396551 0.447472 0.435427 0.203352 0.23043 0.324121 
0.266672 0.2646 0.298474 0.238834 0.218036 0.160712 0.0984648 0.0783897 0.0695444 
0.0775603 0.112469 0.118 0.318267 0.468842 0.474773 0.428051 0.389195 0.269851 
0.259289 0.319668 0.373469 0.434439 0.494645 0.494645 0.458992 0.768364 0.784831 
0.784831 0.751957 0.667511 0.56832 0.461784 0.457998 0.134687 0.168179 0.322974 
0.376367 0.411985 0.590994 0.71122 0.531018 0.493416 0.407097 0.41118 0.44231 
0.407754 0.601025 0.639014 0.58495 0.507699 0.450793 0.447034 0.41563 0.0470798 
0.123873 0.187204 0.221362 0.292939 0.292939 0.311723 0.32223 0.32223 0.306799 
0.280464 0.280464 0.215491 0.275021 0.275021 0.245515 0.204325 0.270473 0.211808 
0.266091 0.27004 0.214053 0.262359 0.278677 0.297766 0.245839 0.209632 0.148303 
0.181645 0.168595 0.0471993 0.0376409 0 0.0313324 0.151566 0.154556 0.540379 
0.470647 0.432573 0.380168 0.294882 0.251651 0.458949 0.415878 0.415878 0.350888 
0.404746 0.29293 0.356047 0.407821 0.30293 0.236417 0.256039 0.229281 0.428153 
0.552074 0.452824 0.510118 0.391746 0.433067 0.582383 0.554187 0.479135 0.57844 
0.578659 0.680431 0.597145 0.454724 0.428469 0.328406 0.245756 0.226853 0.21315 
0.194231 0.156216 0.158657 0.123383 0.27289 0.27289 0.429868 0.656133 0.656133 
0.596595 0.596595 0.641986 0.574199 0.533699 0.469195 0.445143 0.390677 0.3703 
0.311561 0.404641 0.282626 0.293717 0.317717 0.33591 0.388562 0.324081 0.290575 
0.390928 0.439389 0.611035 0.694701 0.668806 0.687285 0.622651 0.54724 0.542808 
0.656053 0.580997 0.745942 0.61517 0.570342 0.490935 0.45742 0.45742 0.39708 
0.317105 0.389358 0.410671 0.424899 0.231129 0.247958 0.247958 0.278325 0.273107 
0.324893 0.324893 0.233227 0.233227 0.344613 0.384559 0.458141 0.535063 0.658026 
0.462559 0.427788 
WidthEq 1 434 double
1.12723 2.09883 1.91288 2.20569 2.90442 1.7468 2.43646 1.79391 2.18635 
2.17479 2.33283 2.98231 1.90982 2.8151 2.40662 2.20187 3.6188 2.22273 
4.76948 4.10041 4.1141 3.55766 4.31953 5.09505 1.85336 4.49057 1 
6.11952 5.66904 2.53769 5.19634 6.32 5.85714 2.91875 5.28713 3.61834 
3.82294 3.0588 4.33196 3.14248 2.73418 3.72888 3.59512 4.13331 4.22353 
4.00056 3.78316 3.60249 3.55047 3.55047 3.44421 3.76223 3.90996 4.22567 
4.37909 4.28236 3.83693 3.95593 3.95276 3.86411 3.91784 3.15484 2.7238 
2.74506 2.33699 2.43988 2.48361 2.78797 4.09246 4.65704 5.41684 5.58175 
5.45139 5.03994 4.94365 3.11278 3.241 3.19669 3.1822 3.1822 2.9422 
2.83716 2.78671 3.05775 3.18967 3.71004 3.82294 4.33389 4.33389 4.57877 
4.75632 4.61217 4.77022 4.59816 4.59816 4.19408 4.06694 3.90387 4.03473 
4.03473 3.97051 4.01416 3.76896 3.87635 4.06065 3.73246 4.2483 4.36646 
4.36646 4.40856 4.5394 4.42375 4.80536 4.59504 4.88879 5.28898 5.16101 
5.31772 5.6723 5.5545 5.71229 5.65755 5.53146 5.74078 5.70354 5.77927 
5.55859 5.25887 4.93634 4.82424 4.47724 4.62968 4.64867 4.78012 4.61654 
4.28695 4.09081 3.59848 3.5022 3.41359 3.20214 2.87731 2.49473 2.08555 
3.73651 4.11399 4.12922 4.12922 3.92112 3.96323 3.89048 3.79263 3.71661 
3.70887 4.1238 4.67932 4.87427 5.23951 4.76394 4.50734 4.26346 2.87531 
3.18287 2.83081 2.67048 2.17966 1.94302 1.74366 1.68703 1.79166 5.04986 
4.7735 4.69239 4.84496 4.84496 4.96202 5.02964 5.29062 5.56456 5.93697 
5.56273 4.94509 5.8857 6.18636 6.05136 5.99116 6.00893 6.00893 5.73705 
5.73705 5.63433 5.02728 4.79847 4.71655 6.05708 5.40554 5.26648 4.51653 
4.48823 3.98052 3.61405 3.88232 4.91358 5.06739 5.15387 4.81161 4.48129 
3.68402 3.57628 2.83913 2.66258 2.69368 2.12157 1.88102 2.08372 2.05633 
2.35776 2.45283 2.55756 2.48118 2.91771 3.19033 3.44939 3.95307 4.19808 
3.23421 2.76868 2.51649 2.23665 1.7414 1.61553 1.61553 1.71138 1.78084 
1.81018 5.63713 5.07547 4.42795 4.28636 4.58087 5.60589 5.15235 5.09373 
5.00498 5.08703 5.08507 5.16194 5.07788 5.24284 4.82155 4.58803 4.38798 
4.46479 4.24795 3.92092 5.76235 4.81887 4.65416 4.52387 4.45839 5.00812 
5.92868 5.33978 5.28194 4.63946 4.45912 4.45912 4.70238 1.26251 1.25465 
1.25465 1.26917 1.32402 1.40454 1.56717 1.73987 4.48799 4.5069 4.11885 
4.02066 3.67671 3.41692 3.07835 3.45879 3.49074 3.42224 3.09023 3.06392 
2.94185 2.76632 2.62681 2.51419 2.40101 2.30754 2.15476 2.21315 4.10565 
4.75158 4.75726 4.65035 4.53759 4.53759 4.42737 4.17098 4.17098 4.08624 
3.79329 3.79329 3.67938 3.41894 3.41894 3.37501 3.36238 3.2742 3.14147 
3.15362 3.12293 3.36659 3.3375 3.2676 3.15758 3.27822 3.38446 3.58575 
3.56154 3.47526 3.54181 3.73717 3.82933 3.57417 3.36714 2.85291 3.85846 
3.99608 3.76448 4.01351 4.50876 4.95448 2.5915 3.3777 3.3777 3.52375 
3.06803 2.96759 2.81681 2.67974 2.72749 2.67925 2.72646 2.67067 2.52453 
2.50325 2.66761 2.63853 2.74164 2.62258 2.32094 2.10676 2.05604 1.92473 
1.97669 1.90236 2.15777 2.88478 2.89445 3.30581 3.91471 3.91922 4.07542 
4.23743 4.07562 3.86531 3.89036 3.29189 3.29189 2.77164 2.45995 2.45995 
2.67702 2.67702 2.58307 2.7023 2.76346 2.82172 2.80727 2.80677 2.83555 
2.98617 2.9459 2.5219 2.53369 2.53364 2.28294 2.3204 2.53936 2.73758 
2.63963 2.32844 1.9693 1.83921 1.95845 1.92802 1.99011 2.20438 2.2107 
1.89992 1.9916 1.60252 1.64387 1.63645 1.64596 1.67697 1.67697 1.85906 
1.9416 2.1107 2.17627 2.20018 2.10081 2.44622 2.44622 2.57945 2.38686 
2.43507 2.43507 2.67037 2.67037 2.43191 2.38847 2.40517 2.00074 1.5764 
2.11082 2.0231 
rRFP 1 434 double
2905.41 3454.04 3349.04 3514.38 3908.93 3255.26 3644.69 3281.86 3503.46 
3496.93 3586.17 3952.91 3347.31 3858.49 3627.84 3512.22 4312.31 3524 
4962.06 4584.26 4591.99 4277.79 4707.99 5145.9 3315.43 4804.57 2833.57 
5724.38 5470.01 3701.85 5203.09 5837.58 5576.22 3917.02 5254.36 4312.05 
4427.58 3996.1 4715.01 4043.35 3812.8 4374.47 4298.94 4602.84 4653.78 
4527.88 4405.12 4303.1 4273.73 4273.73 4213.73 4393.3 4476.72 4654.99 
4741.62 4687 4435.48 4502.68 4500.89 4450.83 4481.17 4050.33 3806.94 
3818.94 3588.52 3646.62 3671.31 3843.17 4579.77 4898.57 5327.6 5420.72 
5347.11 5114.78 5060.41 4026.58 4098.98 4073.96 4065.78 4065.78 3930.26 
3870.95 3842.46 3995.51 4070 4363.83 4427.58 4716.1 4716.1 4854.37 
4954.63 4873.23 4962.48 4865.32 4865.32 4637.15 4565.36 4473.28 4547.17 
4547.17 4510.91 4535.56 4397.1 4457.74 4561.81 4376.49 4667.77 4734.49 
4734.49 4758.26 4832.14 4766.84 4982.32 4863.56 5029.43 5255.4 5183.14 
5271.63 5471.85 5405.33 5494.43 5463.52 5392.32 5510.52 5489.49 5532.25 
5407.64 5238.4 5056.28 4992.98 4797.04 4883.12 4893.84 4968.07 4875.7 
4689.59 4578.84 4300.84 4246.47 4196.44 4077.04 3893.62 3677.59 3446.54 
4378.78 4591.93 4600.53 4600.53 4483.02 4506.8 4465.72 4410.47 4367.54 
4363.17 4597.47 4911.15 5021.23 5227.47 4958.93 4814.04 4676.33 3892.49 
4066.16 3867.36 3776.83 3499.68 3366.06 3253.49 3221.51 3280.59 5120.38 
4964.33 4918.53 5004.68 5004.68 5070.78 5108.96 5256.33 5411.01 5621.3 
5409.98 5061.22 5592.35 5762.12 5685.89 5651.9 5661.93 5661.93 5508.41 
5508.41 5450.41 5107.63 4978.43 4932.17 5689.12 5321.22 5242.7 4819.23 
4803.25 4516.56 4309.63 4461.11 5043.43 5130.28 5179.11 4985.85 4799.33 
4349.14 4288.3 3872.06 3772.37 3789.93 3466.88 3331.05 3445.51 3430.04 
3600.25 3653.93 3713.07 3669.94 3916.43 4070.37 4216.65 4501.06 4639.41 
4095.15 3832.28 3689.88 3531.86 3252.21 3181.14 3181.14 3235.26 3274.48 
3291.05 5451.99 5134.84 4769.21 4689.26 4855.56 5434.35 5178.25 5145.15 
5095.04 5141.37 5140.26 5183.67 5136.2 5229.35 4991.46 4859.6 4746.64 
4790.01 4667.57 4482.91 5522.7 4989.95 4896.94 4823.37 4786.4 5096.81 
5616.62 5284.09 5251.43 4888.64 4786.81 4786.81 4924.17 2981.8 2977.36 
2977.36 2985.56 3016.53 3062 3153.83 3251.35 4803.11 4813.79 4594.67 
4539.23 4345.01 4198.32 4007.14 4221.96 4240 4201.32 4013.85 3998.99 
3930.06 3830.95 3752.17 3688.58 3624.67 3571.89 3485.62 3518.59 4587.22 
4951.95 4955.16 4894.79 4831.12 4831.12 4768.88 4624.11 4624.11 4576.26 
4410.84 4410.84 4346.52 4199.46 4199.46 4174.65 4167.52 4117.73 4042.78 
4049.64 4032.31 4169.9 4153.47 4114 4051.88 4120 4179.99 4293.65 
4279.98 4231.26 4268.84 4379.15 4431.19 4287.11 4170.21 3879.84 4447.64 
4525.35 4394.57 4535.19 4814.84 5066.52 3732.23 4176.17 4176.17 4258.64 
4001.31 3944.6 3859.46 3782.06 3809.02 3781.78 3808.44 3776.94 3694.42 
3682.4 3775.21 3758.79 3817.01 3749.78 3579.46 3458.52 3429.88 3355.73 
3385.07 3343.1 3487.32 3897.84 3903.3 4135.58 4479.4 4481.95 4570.15 
4661.63 4570.26 4451.51 4465.65 4127.72 4127.72 3833.95 3657.95 3657.95 
3780.52 3780.52 3727.47 3794.8 3829.33 3862.23 3854.07 3853.79 3870.04 
3955.09 3932.35 3692.93 3699.59 3699.56 3558 3579.15 3702.79 3814.72 
3759.41 3583.69 3380.9 3307.44 3374.77 3357.59 3392.65 3513.64 3517.21 
3341.72 3393.49 3173.79 3197.14 3192.95 3198.32 3215.83 3215.83 3318.65 
3365.26 3460.74 3497.77 3511.27 3455.16 3650.2 3650.2 3725.43 3616.68 
3643.9 3643.9 3776.77 3776.77 3642.12 3617.59 3627.02 3398.65 3159.04 
3460.81 3411.28 
rGFP 1 434 double
3698.98 3821.17 3740.36 4057.37 4230.1 3580.46 4045.88 3550.17 4005.81 
3903.09 3598.07 4465.2 3574.49 4433.81 4636.12 4440.52 4930.62 4107.98 
5282.52 5466.51 4139.47 4392.68 5440.85 5923.19 3807.43 4523.17 3408.23 
6111 5703.96 4287.98 4840.88 6018.09 5296.81 4027.96 5151.26 4891.46 
4645.42 4333.79 5246.05 4210.67 4006.53 4744.46 5039.9 5506.89 5479.88 
5487.62 5205.81 5176.44 4855.49 4855.49 4697.33 4731.41 4891.63 4700.94 
4537.23 4674.27 4481.6 4682.74 4457.94 4508.67 4408.63 4248.21 4200.48 
4346.89 3834.58 4118.41 4012.95 3893.42 4662.4 4945.41 5209.64 5381.04 
5450.83 5524.25 5486.37 4700.51 4834.68 4868.33 4749.16 4749.16 4611.56 
4628.07 4672.22 4384.02 4286.9 4306.88 4645.42 4759.59 4759.59 4789.43 
4897.57 5060.46 5014.23 5049.9 5049.9 5102.44 5095.21 4977.33 4891.72 
4891.72 4617.26 4517.98 4449.44 4436.56 4381.72 4363.51 4316.19 4419.94 
4419.94 4546.93 4730.09 4811.88 4834.22 4855.63 4826.47 4797.23 4937.83 
4993.33 4992.01 5107.77 5123.25 5324.57 5418.68 5311.51 5411.79 5380.62 
5292.42 5462.52 5429.22 5295.37 5308.12 5087.15 4957.07 4983.12 4887.72 
4799.38 4684.58 4525.86 4301.89 4062.26 3884.83 3986.3 3846.4 3597.35 
4693.26 4504.83 4386.11 4386.11 4247.12 4371.93 4099.57 4359.69 4633.07 
4890.69 5349.9 5678.95 5661.11 5398.86 5552.22 5621.86 5557.25 4257.95 
4273.83 4213.72 4122.98 4000.98 3987.56 3950.95 3959.33 3885.91 5285.78 
5058.02 4941.23 5068.35 5068.35 5125.37 5131.3 5288.19 5444.64 5796.04 
5810.26 5769.47 5480.33 5559.73 5505.19 6036.07 5965.75 5965.75 5694.27 
5694.27 5591.33 5298.36 5154.32 5060.62 5939.15 5269.11 5146.67 5057.42 
4796.06 4748.51 4427.07 4560.84 4623.96 4825.53 5190.69 5245.96 5260 
5087.4 5061.48 4745.15 4616.67 4586.77 4326.43 4220.6 4271.06 4203.56 
4216.64 4292.17 4438 4537 4961.09 5017.77 5267.27 5385.49 5527.32 
4455.35 4365.6 4334.31 4134.91 3967.56 3795.2 3795.2 3748.75 3703.37 