# vtk DataFile Version 3.0
vtk output
ASCII
DATASET POLYDATA
POINTS 600 float
2.51607 -0.875077 1.4575 2.32024 -1.75063 1.03102 0.402228 0.886118 1.51219 
1.32036 -1.89162 0.978082 4.18322 -0.568318 1.15137 2.81592 -0.423457 1.16262 
2.62824 -0.364621 1.12229 2.83402 -0.972901 1.02685 1.45033 0.966575 1.48232 
2.71393 -1.43613 0.909943 3.0223 -0.808317 0.727552 3.39452 -0.393144 0.644755 
1.46702 1.25495 1.14189 2.32414 -1.8383 0.39115 -0.0991752 0.787471 0.997878 
3.11779 -0.37084 0.425483 1.37138 -2.04748 0.0760219 -0.483676 0.497417 0.575648 
2.65255 1.09742 0.712087 3.19818 0.105594 0.476247 3.16335 -0.080382 0.429554 
-0.328143 0.747591 0.571723 3.3694 -0.0822013 -0.0480299 -0.48965 0.353165 -0.198631 
-0.610597 -0.157965 -0.138518 0.706608 -1.81475 -0.662543 -0.563737 0.25228 -0.173437 
0.202155 -1.42666 -0.644198 2.97514 0.840178 -0.238815 2.04193 1.58164 -0.415431 
3.16664 0.845307 -0.783625 2.92711 1.02824 -0.88001 3.21199 0.379702 -0.856159 
1.32852 -1.58838 -1.48826 3.27557 -0.368367 -1.49444 0.384353 0.125962 -1.63017 
1.65321 1.33901 -1.51291 1.72201 0.864855 -1.83519 2.53534 0.0112145 -2.23806 
2.47888 0.103082 -2.21632 1.78995 -0.231888 -2.31171 1.83819 -0.206385 -2.30452 
1.8915 -0.189141 -2.29929 1.95272 -0.18276 -2.30424 2.00642 -0.160166 -2.32057 
2.05531 -0.125758 -2.34933 2.10412 -0.093223 -2.37092 2.15843 -0.0775912 -2.36607 
2.22499 -0.0918508 -2.33024 2.29121 -0.111544 -2.27286 2.34547 -0.11177 -2.21088 
2.39913 -0.105042 -2.17008 2.45923 -0.0988304 -2.16746 2.50607 -0.0610983 -2.19544 
2.52701 0.0686251 -2.22399 2.4872 0.0456718 -2.23039 2.42904 0.134853 -2.20171 
2.41364 0.184771 -2.17437 2.40373 0.236152 -2.13892 2.40017 0.294602 -2.11687 
2.3823 0.348213 -2.11155 2.35446 0.399489 -2.12225 2.31635 0.443141 -2.12738 
2.26506 0.479192 -2.13465 2.22542 0.523666 -2.14724 2.1876 0.572603 -2.17396 
2.14671 0.618061 -2.19397 2.12982 0.670531 -2.18128 2.09932 0.708332 -2.14194 
2.04713 0.731922 -2.09887 1.99814 0.760771 -2.06971 1.94479 0.790518 -2.05567 
1.90436 0.827711 -2.03955 1.86197 0.858657 -2.00212 1.79727 0.868215 -1.93223 
2.5977 -0.0303956 -2.17854 2.64864 -0.0785874 -2.12088 2.71248 -0.120932 -2.05389 
2.7837 -0.16037 -1.97078 2.85087 -0.19596 -1.8639 2.90867 -0.221525 -1.74707 
2.9658 -0.262895 -1.6418 3.01557 -0.312994 -1.56936 3.07975 -0.349897 -1.52392 
3.15208 -0.373217 -1.5055 3.22016 -0.382203 -1.49886 1.60596 1.3119 -1.52048 
1.55778 1.2863 -1.52769 1.50447 1.26905 -1.53292 1.44351 1.26624 -1.54235 
1.39059 1.25433 -1.56915 1.34323 1.23933 -1.61951 1.29788 1.22306 -1.67779 
1.25759 1.19658 -1.73086 1.22468 1.1521 -1.76537 1.18374 1.11672 -1.78251 
1.13759 1.08781 -1.7905 1.09145 1.0589 -1.79849 1.05038 1.02173 -1.80844 
1.01708 0.971911 -1.82138 0.975948 0.93484 -1.8313 0.928682 0.90576 -1.83172 
0.87603 0.881462 -1.8158 0.820284 0.856224 -1.77726 0.77996 0.803897 -1.73751 
0.737062 0.757755 -1.70393 0.689424 0.725297 -1.68993 0.63604 0.706172 -1.68799 
0.574897 0.701664 -1.69021 0.520404 0.684343 -1.68785 0.464662 0.665073 -1.67073 
0.395541 0.659814 -1.61985 0.321525 0.659983 -1.54482 0.254833 0.663148 -1.45365 
0.201351 0.677462 -1.37474 0.135214 0.687894 -1.31229 0.0622911 0.69612 -1.25814 
-0.00243978 0.703951 -1.18105 -0.0461643 0.716942 -1.07176 -0.0891575 0.724761 -0.948475 
-0.147466 0.711975 -0.838207 -0.201628 0.676067 -0.756488 -0.251068 0.632811 -0.691773 
-0.299789 0.586474 -0.622079 -0.350414 0.531121 -0.522217 -0.410541 0.455437 -0.376043 
0.456274 0.105218 -1.63401 0.511267 0.0764198 -1.64779 0.538874 0.0352434 -1.68039 
0.582631 0.00849624 -1.73201 0.620434 -0.0199746 -1.79182 0.651003 -0.0543254 -1.84557 
0.679715 -0.0948635 -1.87799 0.708075 -0.139017 -1.89605 0.736305 -0.18495 -1.90691 
0.764664 -0.229103 -1.92498 0.793377 -0.269641 -1.95739 0.82404 -0.303937 -2.01113 
0.863405 -0.331508 -2.07068 0.915648 -0.353363 -2.12094 0.954589 -0.388004 -2.15172 
0.98626 -0.430247 -2.16925 1.02491 -0.470176 -2.17844 1.07803 -0.501759 -2.18531 
1.12671 -0.535901 -2.19288 1.17974 -0.567538 -2.19977 1.2166 -0.610203 -2.20203 
1.23753 -0.665466 -2.19245 1.25208 -0.729523 -2.16227 1.2923 -0.780484 -2.12073 
1.32667 -0.833114 -2.08735 1.34585 -0.889386 -2.07805 1.35059 -0.952273 -2.07827 
1.36645 -1.01046 -2.06951 1.38022 -1.07667 -2.03223 1.37351 -1.15981 -1.97662 
1.36475 -1.25043 -1.89492 1.36672 -1.34071 -1.79003 1.35354 -1.45327 -1.65024 
2.82614 1.0759 -1.00996 2.74853 1.11057 -1.11725 2.68795 1.12516 -1.20123 
2.62582 1.13871 -1.2626 2.56706 1.14228 -1.30857 2.50441 1.1464 -1.33157 
2.44566 1.14364 -1.34095 2.38674 1.15827 -1.33839 2.3372 1.18973 -1.33149 
2.28238 1.22021 -1.32492 2.2336 1.2543 -1.31736 2.18026 1.28405 -1.30332 
2.13966 1.31773 -1.27281 2.09885 1.34618 -1.22071 2.04802 1.36544 -1.1558 
2.02016 1.39452 -1.07276 2.02226 1.43747 -0.970496 2.0272 1.47694 -0.846145 
2.02064 1.50637 -0.709229 2.02704 1.54156 -0.563007 3.02562 0.9991 -0.910892 
3.09764 0.966253 -0.910106 3.13814 0.912778 -0.864107 1.23002 -1.59986 -1.42164 
1.15657 -1.62769 -1.33063 1.08343 -1.65176 -1.19799 1.00707 -1.67613 -1.03494 
0.935971 -1.70824 -0.876269 0.878415 -1.75245 -0.758499 0.822757 -1.78579 -0.691442 
0.761044 -1.79734 -0.664884 1.42736 -1.63723 -1.43498 1.51026 -1.67733 -1.37472 
1.5849 -1.71008 -1.31788 1.65339 -1.73008 -1.27326 1.71354 -1.72992 -1.24925 
1.77659 -1.73052 -1.24062 1.83713 -1.72501 -1.23817 1.90638 -1.73369 -1.23907 
1.98081 -1.75081 -1.24197 2.05617 -1.76944 -1.24523 2.1316 -1.78817 -1.24851 
2.20696 -1.8068 -1.25176 2.28134 -1.82383 -1.25464 2.34959 -1.83089 -1.25516 
2.4039 -1.81525 -1.25031 2.45114 -1.78814 -1.24274 2.49228 -1.75107 -1.23282 
2.52565 -1.69938 -1.22705 2.56611 -1.65525 -1.23828 2.60692 -1.6057 -1.27106 
2.64007 -1.54171 -1.30805 2.67575 -1.48382 -1.33886 2.70745 -1.42543 -1.34672 
2.74248 -1.37644 -1.34159 2.77465 -1.32678 -1.32107 2.81528 -1.29487 -1.28954 
2.86058 -1.27852 -1.23125 2.90642 -1.26902 -1.15174 2.95193 -1.26496 -1.0507 
2.99744 -1.26091 -0.949651 3.04276 -1.25854 -0.841397 3.08715 -1.25465 -0.732774 
3.12596 -1.24766 -0.600599 3.15575 -1.22998 -0.450666 3.18684 -1.2186 -0.287002 
3.20777 -1.19035 -0.134611 3.21367 -1.15421 -0.00343476 3.19614 -1.121 0.0884319 
3.17028 -1.08735 0.157362 3.1516 -1.04614 0.213021 3.14565 -1.00101 0.285153 
3.12802 -0.966029 0.369831 3.11002 -0.93516 0.471277 3.10236 -0.895163 0.567547 
3.07435 -0.855709 0.653145 3.21882 0.455202 -0.917478 3.24111 0.525466 -0.903484 
3.25862 0.586493 -0.842263 3.2647 0.639356 -0.771811 3.2478 0.683292 -0.723068 
3.22132 0.730235 -0.711917 3.19383 0.785128 -0.736981 3.26956 0.308853 -0.723833 
3.33311 0.236362 -0.556196 3.3692 0.151084 -0.388408 3.38248 0.0477308 -0.219141 
2.94121 0.950352 -0.555593 3.16828 0.862401 -0.573286 3.147 0.8701 -0.383491 
3.10648 0.875736 -0.247991 3.04391 0.870734 -0.204567 2.10499 1.5254 -0.222149 
2.15286 1.47718 -0.0347899 2.19573 1.41222 0.133074 2.25559 1.35258 0.272031 
2.31533 1.29765 0.38162 2.35565 1.23821 0.459214 2.39632 1.18239 0.522441 
2.45863 1.14087 0.581975 2.53022 1.10859 0.63633 2.59766 1.0907 0.678904 
1.96491 1.57727 -0.318675 1.88998 1.58092 -0.250435 1.82432 1.59833 -0.216776 
1.77313 1.62884 -0.210141 1.71444 1.64885 -0.229137 1.65535 1.6566 -0.274073 
1.58692 1.67611 -0.316273 1.51293 1.69848 -0.334962 1.43817 1.71016 -0.310521 
1.36814 1.70815 -0.266479 1.3067 1.69019 -0.218612 1.24279 1.67823 -0.176935 
1.1824 1.65856 -0.129471 1.11936 1.6432 -0.0809746 1.06422 1.61697 -0.0426757 
1.00953 1.596 -0.0259616 0.948202 1.58979 -0.0209686 0.893895 1.57416 -0.0258192 
0.839537 1.55861 -0.0306502 0.777398 1.55572 -0.0324851 0.71784 1.54665 -0.028172 
0.655498 1.54011 -0.0156555 0.601742 1.5176 0.000697224 0.553429 1.49023 0.000680516 
0.506309 1.46489 -0.0140789 0.459506 1.44303 -0.0432336 0.412572 1.41938 -0.0651965 
0.365509 1.39395 -0.0799777 0.31826 1.36684 -0.0875456 0.270076 1.34124 -0.0947539 
0.216765 1.32399 -0.0999879 0.155674 1.3194 -0.102226 0.102492 1.30393 -0.114652 
0.0546975 1.28367 -0.143425 0.00815277 1.26537 -0.186962 -0.0375313 1.24367 -0.22369 
-0.0787353 1.20473 -0.226444 -0.113065 1.14066 -0.181872 -0.155953 1.07857 -0.0911746 
-0.204358 1.01948 0.0230718 -0.253675 0.960087 0.144853 -0.300531 0.898352 0.273732 
-0.331438 0.82903 0.41629 0.216549 -1.30278 -0.786254 0.214369 -1.2059 -0.899679 
0.213122 -1.12033 -0.982819 0.196834 -1.04756 -1.05413 0.173565 -0.978294 -1.12898 
0.158747 -0.905859 -1.19527 0.165363 -0.822777 -1.25089 0.173324 -0.740623 -1.29909 
0.166595 -0.668645 -1.34244 0.153884 -0.603529 -1.37233 0.113138 -0.559694 -1.38511 
0.0764655 -0.51692 -1.38281 0.0465795 -0.471941 -1.3722 0.0165993 -0.427016 -1.36162 
-0.0218584 -0.386979 -1.35239 -0.073454 -0.356222 -1.33807 -0.112395 -0.32158 -1.30729 
-0.144628 -0.28819 -1.25381 -0.182647 -0.261547 -1.18684 -0.226792 -0.240143 -1.11364 
-0.255176 -0.209653 -1.0379 -0.311111 -0.195044 -0.966607 -0.382637 -0.189426 -0.897809 
-0.447188 -0.181491 -0.820687 -0.489092 -0.165005 -0.720678 -0.522423 -0.153088 -0.575857 
-0.560451 -0.151935 -0.377806 -0.510204 0.277634 -0.198628 2.99967 0.709245 -0.0316541 
3.01274 0.593069 0.168776 3.00129 0.478397 0.348786 2.9739 0.376295 0.501092 
2.93169 0.305337 0.620147 2.88485 0.251666 0.705223 2.84253 0.196603 0.767152 
2.80813 0.130672 0.818886 2.76707 0.0775511 0.866049 2.72735 0.0264332 0.898471 
2.70267 -0.0377383 0.897392 2.69272 -0.104591 0.886382 2.69502 -0.171034 0.900496 
2.67501 -0.260398 0.982943 0.141013 -1.43674 -0.416283 0.0991202 -1.43783 -0.218856 
0.0667756 -1.42648 -0.0690674 0.0349875 -1.4053 0.0373665 -0.00630106 -1.38225 0.111028 
-0.0687285 -1.36456 0.152449 -0.131984 -1.33882 0.157685 -0.18016 -1.29756 0.136506 
-0.222483 -1.25122 0.109057 -0.237419 -1.19251 0.100436 -0.257078 -1.14163 0.112684 
-0.284134 -1.10014 0.145369 -0.313047 -1.06483 0.199383 -0.34209 -1.03131 0.260598 
-0.369441 -0.995104 0.314863 -0.387831 -0.948614 0.348942 -0.392869 -0.891016 0.370753 
-0.409206 -0.838226 0.383535 -0.425544 -0.785435 0.396317 -0.430452 -0.726056 0.410936 
-0.448324 -0.672444 0.416259 -0.474509 -0.620213 0.405829 -0.501868 -0.563542 0.373584 
-0.529061 -0.503362 0.32694 -0.555913 -0.438958 0.263533 -0.581468 -0.36626 0.171684 
-0.60142 -0.274504 0.0337774 0.286002 -1.50109 -0.521188 0.332862 -1.58038 -0.379708 
0.366965 -1.65078 -0.218441 0.413726 -1.69347 -0.0577187 0.477952 -1.73369 0.0708684 
0.544483 -1.76404 0.163764 0.604565 -1.77793 0.237736 0.670953 -1.80374 0.301226 
0.732326 -1.84373 0.36112 0.773071 -1.89768 0.417186 0.814002 -1.94994 0.466039 
0.876754 -1.98621 0.503977 0.950167 -2.00951 0.514799 1.02588 -2.02295 0.48993 
1.10261 -2.02443 0.41653 1.18102 -2.01782 0.301283 1.26654 -2.01968 0.170703 
-0.554191 0.301357 -0.178285 -0.590885 0.174741 -0.124437 -0.623085 0.111062 -0.0797298 
-0.637006 0.0445648 -0.0532072 -0.623605 -0.0121184 -0.0542807 -0.608028 -0.0722607 -0.0841672 
-0.566412 0.376346 0.0289788 -0.582814 0.411711 0.20217 -0.568538 0.457504 0.323175 
-0.538224 0.492136 0.441056 3.30596 -0.0859874 0.150885 3.24648 -0.0834423 0.310719 
3.40046 -0.237471 0.294681 -0.440354 0.588715 0.565968 -0.395372 0.642964 0.557321 
-0.35535 0.687066 0.558786 -0.276039 0.73295 0.698791 -0.216895 0.710839 0.808865 
-0.166056 0.710208 0.89358 -0.125888 0.734906 0.953847 1.48441 -2.06458 0.0566452 
1.55524 -2.061 0.106517 1.60012 -2.04243 0.176797 1.63879 -2.01656 0.243057 
1.69411 -2.01252 0.283219 1.75203 -2.01073 0.315236 1.81379 -2.01122 0.331488 
1.86703 -1.99584 0.343891 1.91527 -1.97034 0.351077 1.96351 -1.94483 0.358264 
2.01688 -1.92767 0.363476 2.07896 -1.92469 0.365333 2.13843 -1.91734 0.368227 
2.20133 -1.91311 0.370408 2.26025 -1.88752 0.377808 3.11264 -0.287631 0.473986 
3.12885 -0.195293 0.474244 3.09304 -0.479116 0.474537 3.07078 -0.579487 0.535775 
3.04809 -0.685793 0.620974 3.18011 0.0209779 0.454963 -0.456616 0.375907 0.749568 
-0.429052 0.278193 0.909042 -0.393122 0.201611 1.04082 -0.345254 0.140191 1.14604 
-0.316829 0.0738977 1.22172 -0.299573 0.00457539 1.28119 -0.249058 -0.0421594 1.33159 
-0.189936 -0.0822248 1.37615 -0.150685 -0.13204 1.41031 -0.121611 -0.18943 1.45005 
-0.0940997 -0.247722 1.48954 -0.0651205 -0.305165 1.52926 -0.0274397 -0.355886 1.56316 
0.0230247 -0.400943 1.60634 0.0588254 -0.454456 1.64716 0.07605 -0.51697 1.67778 
0.0705216 -0.587484 1.68311 0.0650371 -0.656268 1.68124 0.0811154 -0.712619 1.68283 
0.107206 -0.764904 1.69325 0.135212 -0.812674 1.68955 0.163572 -0.856826 1.67149 
0.192284 -0.897364 1.63907 0.222524 -0.938729 1.61411 0.262862 -0.975976 1.59798 
0.326249 -1.00152 1.59279 0.398801 -1.02142 1.59681 0.467623 -1.03559 1.61743 
0.528318 -1.0423 1.66265 0.595663 -1.06183 1.71247 0.662073 -1.07983 1.76263 
0.716723 -1.07471 1.80304 0.77049 -1.06816 1.84379 0.83224 -1.07061 1.86719 
0.89141 -1.06688 1.88446 0.953752 -1.06034 1.87193 1.00744 -1.03971 1.86275 
1.05674 -1.01394 1.86238 1.10964 -1.004 1.89633 1.17095 -1.0117 1.94133 
1.22973 -1.01331 1.98014 1.29174 -1.0122 1.98917 1.34636 -0.993091 1.97963 
1.40092 -0.973897 1.97009 1.46238 -0.965912 1.95792 1.51707 -0.944936 1.94119 
1.57203 -0.920402 1.91011 1.63387 -0.907074 1.87636 1.68862 -0.886192 1.85962 
1.7441 -0.870482 1.85688 1.81241 -0.877633 1.85634 1.88679 -0.894656 1.85346 
1.96215 -0.913291 1.8502 2.03771 -0.930236 1.83973 2.11346 -0.943529 1.81491 
2.18867 -0.949961 1.76888 2.25895 -0.944395 1.71047 2.32065 -0.922866 1.64822 
2.385 -0.905655 1.58494 2.44665 -0.884037 1.52272 3.2203 -0.417583 0.558222 
3.30812 -0.431952 0.629516 2.30395 -1.80439 0.605262 2.30674 -1.77618 0.818375 
2.41034 -1.84801 0.382663 2.4773 -1.84026 0.370531 2.53989 -1.82886 0.343952 
2.58758 -1.79641 0.329955 2.62208 -1.74456 0.32815 2.6619 -1.70934 0.352861 
2.70047 -1.67606 0.392328 2.72663 -1.62858 0.457987 2.75163 -1.5814 0.531183 
2.78156 -1.54794 0.608695 2.79208 -1.50868 0.69494 2.76657 -1.47339 0.794813 
1.4571 1.14949 1.2835 1.45921 1.05779 1.39822 3.45832 -0.50015 0.74762 
3.52865 -0.563483 0.835476 3.60244 -0.600133 0.891848 3.67632 -0.623728 0.914805 
3.74437 -0.634442 0.928647 3.79933 -0.625854 0.954659 3.85292 -0.620997 1.00262 
3.91321 -0.62904 1.05515 3.96674 -0.624091 1.10313 4.02065 -0.613801 1.12954 
4.08167 -0.611074 1.13895 4.13498 -0.593821 1.14419 2.94385 -0.868995 0.845943 
2.88441 -0.923625 0.945825 2.63664 -1.48146 0.966018 2.57918 -1.52337 1.00803 
2.53508 -1.56615 1.02716 2.49559 -1.60601 1.01658 2.44067 -1.62066 1.01196 
2.38927 -1.64301 1.01314 2.34786 -1.6856 1.02473 2.73568 -1.36886 1.02622 
2.75507 -1.3056 1.11093 2.77388 -1.2369 1.15119 2.79325 -1.15836 1.14809 
2.81338 -1.06919 1.10185 2.76081 -0.969962 1.10258 2.70442 -0.959028 1.18823 
2.67399 -0.934831 1.28526 2.61949 -0.921105 1.36401 2.55837 -0.906078 1.42005 
2.56999 -0.357011 1.31585 2.52968 -0.343045 1.4655 2.49693 -0.319037 1.56245 
2.45902 -0.290992 1.62404 2.41514 -0.266026 1.68286 2.38711 -0.23192 1.74424 
2.33312 -0.21107 1.79422 2.27086 -0.189874 1.82124 2.21872 -0.159428 1.83548 
2.15353 -0.134805 1.84041 2.07976 -0.115124 1.84395 2.00453 -0.0962886 1.84726 
1.93076 -0.0766071 1.85081 1.86557 -0.051984 1.85573 1.81325 -0.0216431 1.86994 
1.74767 -0.00236116 1.89643 1.67322 0.00669135 1.94312 1.59864 0.01396 1.99701 
1.53267 0.0279002 2.04506 1.48031 0.0565093 2.06648 1.41704 0.0856549 2.05729 
1.35428 0.121921 2.01935 1.30309 0.16656 1.97605 1.23864 0.200139 1.94505 
1.16666 0.222557 1.94167 1.10131 0.243679 1.96098 1.04898 0.274015 1.97519 
0.983917 0.30042 1.97292 0.910633 0.325497 1.95492 0.837444 0.350629 1.93693 
0.774432 0.383334 1.91337 0.733336 0.432086 1.87891 0.694027 0.483576 1.83752 
0.643296 0.52848 1.7943 0.604045 0.578295 1.76015 0.566486 0.630792 1.71905 
0.526034 0.682838 1.67269 0.509477 0.751827 1.62333 0.47435 0.81959 1.57079 
2.60032 -0.494412 1.2213 2.57712 -0.602143 1.30295 2.55638 -0.696229 1.36323 
2.5362 -0.785908 1.41125 2.73001 -0.396238 1.14301 1.36755 -1.86441 0.985672 
1.41474 -1.83721 0.993261 1.46186 -1.81187 1.00802 1.50979 -1.78984 1.0296 
1.56271 -1.77793 1.0564 1.6236 -1.77698 1.073 1.67777 -1.76313 1.08504 
1.732 -1.74936 1.09706 1.79393 -1.75012 1.11326 1.8539 -1.75166 1.14449 
1.92257 -1.76737 1.17236 1.99549 -1.78999 1.1986 2.06442 -1.80214 1.21209 
2.12496 -1.79664 1.21455 2.18866 -1.78833 1.18722 2.2503 -1.76671 1.125 

LINES 45 696
15 40 41 42 43 44 45 46 47 48 49 50 51 52 53 38 
3 39 54 38 
3 39 55 38 
21 39 56 57 58 59 60 61 62 63 64 65 66 67 68 69 70 71 72 73 74 37 
13 38 75 76 77 78 79 80 81 82 83 84 85 34 
42 36 86 87 88 89 90 91 92 93 94 95 96 97 98 99 100 101 102 103 104 105 106 107 108 109 110 111 112 113 114 115 116 117 118 119 120 121 122 123 124 125 23 
35 35 126 127 128 129 130 131 132 133 134 135 136 137 138 139 140 141 142 143 144 145 146 147 148 149 150 151 152 153 154 155 156 157 158 33 
22 31 159 160 161 162 163 164 165 166 167 168 169 170 171 172 173 174 175 176 177 178 29 
5 31 179 180 181 30 
10 33 182 183 184 185 186 187 188 189 25 
47 33 190 191 192 193 194 195 196 197 198 199 200 201 202 203 204 205 206 207 208 209 210 211 212 213 214 215 216 217 218 219 220 221 222 223 224 225 226 227 228 229 230 231 232 233 234 10 
3 31 246 28 
6 30 247 248 249 250 28 
12 29 251 252 253 254 255 256 257 258 259 260 18 
45 29 261 262 263 264 265 266 267 268 269 270 271 272 273 274 275 276 277 278 279 280 281 282 283 284 285 286 287 288 289 290 291 292 293 294 295 296 297 298 299 300 301 302 303 21 
29 27 304 305 306 307 308 309 310 311 312 313 314 315 316 317 318 319 320 321 322 323 324 325 326 327 328 329 330 24 
3 23 331 26 
16 28 332 333 334 335 336 337 338 339 340 341 342 343 344 345 6 
29 27 346 347 348 349 350 351 352 353 354 355 356 357 358 359 360 361 362 363 364 365 366 367 368 369 370 371 372 24 
3 26 390 23 
7 26 391 392 393 394 395 24 
6 23 396 397 398 399 17 
4 22 400 401 20 
3 22 402 11 
5 17 403 404 405 21 
6 21 406 407 408 409 14 
4 15 425 426 20 
5 15 427 428 429 10 
3 20 430 19 
62 17 431 432 433 434 435 436 437 438 439 440 441 442 443 444 445 446 447 448 449 450 451 452 453 454 455 456 457 458 459 460 461 462 463 464 465 466 467 468 469 470 471 472 473 474 475 476 477 478 479 480 481 482 483 484 485 486 487 488 489 490 0 
4 15 491 492 11 
4 13 493 494 1 
14 13 495 496 497 498 499 500 501 502 503 504 505 506 9 
4 12 507 508 8 
14 11 509 510 511 512 513 514 515 516 517 518 519 520 4 
4 10 521 522 7 
9 9 523 524 525 526 527 528 529 1 
7 9 530 531 532 533 534 7 
7 7 535 536 537 538 539 0 
41 6 540 541 542 543 544 545 546 547 548 549 550 551 552 553 554 555 556 557 558 559 560 561 562 563 564 565 566 567 568 569 570 571 572 573 574 575 576 577 578 2 
6 6 579 580 581 582 0 
3 6 583 5 
18 3 584 585 586 587 588 589 590 591 592 593 594 595 596 597 598 599 1 
14 30 241 240 239 238 237 236 235 32 242 243 244 245 22 
35 27 373 374 375 376 377 378 379 380 381 382 383 384 385 386 387 388 389 16 410 411 412 413 414 415 416 417 418 419 420 421 422 423 424 13 

POINT_DATA 600
SCALARS DY_raw double
LOOKUP_TABLE default
210.6 199.588 129.282 145.334 274.124 327.136 152.848 170.647 363.034 
219.356 226.666 432.597 271.828 136.124 168.564 226.01 200.953 235.752 
442.937 229.546 232.265 169.799 220.859 279.046 203.587 160.589 208.859 
142.458 196.525 203.584 219.951 247.725 285.216 173.74 250.066 185.916 
154.052 272.963 228.505 243.421 213.886 240.164 285.32 322.714 322.714 
293.108 282.595 282.595 277.489 308.254 325.599 298.283 298.283 266.167 
228.505 237.924 244.29 262.788 292.356 280.524 280.524 257.964 255.473 
255.473 303.104 286.048 286.048 351.061 351.061 401.446 327.795 327.795 
239.907 260.407 264.237 219.223 244.717 218.452 169.277 157.233 197.457 
260.557 275.941 306.184 291.347 268.3 189.553 184.17 184.17 172.184 
188.35 179.215 173.183 159.311 157.988 151.759 151.759 174.611 175.65 
175.65 160.42 154.759 154.759 174.274 199.727 220.302 210.138 230.74 
225.326 176.022 176.022 166.896 167.51 171.75 176.665 147.981 152.77 
203.185 233.379 236.979 205.52 194.17 193.96 174.889 175.813 223.659 
185.916 219.984 235.145 213.634 203.933 189.985 189.985 188.094 199.685 
181.309 233.461 211.081 187.487 162.045 162.045 156.515 143.447 143.447 
167.672 165.716 165.716 161.204 165.213 178.786 159.928 159.928 164.083 
117.546 135.528 128.611 148.727 157.599 154.4 187.284 183.11 177.037 
171.469 163.184 139.844 157.216 190.815 208.515 208.515 199.691 199.691 
235.631 202.469 231.512 226.418 212.601 250.713 201.445 180.707 236.061 
238.516 221.467 167.899 192.076 189.791 212.689 238.842 234.577 213.55 
199.647 193.936 201.314 189.664 151.68 131.557 125.577 118.15 121.139 
121.019 121.019 147.833 133.762 151.101 134.508 134.508 125.293 157.239 
157.239 167.011 205.302 190.65 184.589 159.885 139.562 135.944 152.978 
168.914 135.133 161.526 175.02 184.017 194.754 230.68 224.262 214.991 
221.586 255.375 267.292 210.276 179.742 205.057 152.938 225.425 231.877 
229.034 238.796 236.069 242.482 234.412 230.323 230.323 208.229 297.059 
258.278 219.128 269.757 216.573 308.363 324.325 250.854 203.153 217.445 
248.476 245.396 217.272 224.859 191.396 213.176 260.061 309.682 326.829 
153.949 151.636 158.85 162.152 170.211 149.611 103.389 93.7485 93.7485 
114.18 118.266 153.143 166.497 189.098 218.573 194.271 181.756 181.756 
165.052 165.052 160.966 165.32 193.63 209.089 161.653 134.386 160.009 
163.369 163.369 189.339 189.339 199.273 220.422 220.422 185.402 142.176 
142.176 145.945 142.605 215.287 280.369 272.965 243.644 132.072 138.81 
125.727 132.049 202.909 192.475 220.739 227.544 243.978 212.613 203.558 
203.558 179.142 188.411 188.411 187.715 179.073 170.563 178.495 201.423 
211.108 172.958 194.293 152.956 130.558 108.759 174.86 260.463 214.509 
259.049 234.77 212.11 254.307 252.878 280.315 233.029 197.511 229.214 
198.482 161.06 116.398 118.48 184.37 154.422 146.124 149.981 143.656 
120.496 120.496 125.732 100.398 113.588 112.562 112.562 114.14 171.889 
191.816 165.773 151.308 166.628 168.518 168.518 179.692 201.235 188.476 
176.835 207.56 244.102 257.145 194.459 216.633 220.81 138.251 92.4432 
116.111 127.683 137.567 155.898 169.089 177.499 192.26 179.037 175.218 
144.613 124.053 151.206 210.839 212.142 212.579 214.662 194.813 218.561 
162.283 170.966 176.605 194.493 255.334 237.667 303.656 229.915 238.134 
224.944 190.223 183.421 165.993 191.226 223.279 218.659 189.464 159.134 
135.184 136.149 142.609 146.131 140.478 160.784 154.213 154.213 169.975 
151.889 143.342 243.453 248.714 235.888 235.126 238.623 220.537 260.665 
155.535 126.597 146.1 141.958 150.225 139.958 148.937 158.316 136.758 
172.722 171.168 140.784 160.255 172.751 193.152 180.427 160.557 152.352 
166.486 77.5266 77.5266 102.666 45.6514 45.6514 32.8145 16.3394 53.4405 
50.4378 72.099 103.522 119.628 124.371 128.166 124.621 124.621 140.322 
136.63 136.63 121.357 148.677 148.677 134.616 125.133 129.047 154.368 
119.688 92.9425 119.604 119.604 139.042 147.537 147.537 224.827 208.14 
235.564 235.281 198.63 201.456 253.244 269.995 347.478 153.396 147.861 
151.207 138.227 149.414 140.187 132.652 134.664 147.1 146.854 172.16 
172.419 184.19 180.317 329.908 345.754 406.923 402.722 350.958 311.909 
250.709 189.738 199.908 198.733 225.365 221.888 241.098 247.501 211.134 
216.736 215.981 211.123 206.193 188.429 188.429 180.585 178.437 258.788 
292.924 310.765 223.928 234.943 177.498 205.978 228.824 238.608 273.184 
250.368 243.031 204.555 223.965 224.234 249.169 234.759 222.574 191.126 
158.479 152.865 152.865 154.504 166.178 157.248 147.668 143.022 145.932 
175.471 137.838 147.798 150.242 140.099 167.611 163.297 170.38 182.168 
196.88 161.874 178.374 189.697 171.054 225.252 202.955 259.529 223.401 
225.559 192.872 170.29 192.248 169.609 187.22 231.972 282.655 145.334 
135.624 146.131 146.131 161.096 146.905 164.62 150.932 132.068 163.702 
130.113 141.155 170.895 207.778 207.778 224.88 
FIELD FieldData 7
DY_minmax 1 600 double
0.455371 0.429559 0.264752 0.30238 0.604281 0.728546 0.319993 0.361717 0.812696 
0.475897 0.493032 0.975761 0.598898 0.28079 0.356833 0.491494 0.432759 0.51433 
1 0.499785 0.506158 0.35973 0.479421 0.615818 0.438932 0.338139 0.45129 
0.295639 0.422378 0.438925 0.477292 0.542399 0.630281 0.368968 0.547886 0.397509 
0.322817 0.60156 0.497344 0.532309 0.463075 0.524674 0.630526 0.718181 0.718181 
0.648782 0.624137 0.624137 0.612168 0.684286 0.724945 0.660912 0.660912 0.585628 
0.497344 0.519423 0.534345 0.577707 0.64702 0.619283 0.619283 0.566399 0.56056 
0.56056 0.672214 0.632233 0.632233 0.784631 0.784631 0.90274 0.730092 0.730092 
0.524072 0.572126 0.581104 0.475586 0.535348 0.473777 0.358505 0.330274 0.424564 
0.572477 0.608539 0.679433 0.644654 0.590628 0.406035 0.393418 0.393418 0.36532 
0.403214 0.381803 0.367661 0.335144 0.332043 0.317442 0.317442 0.371009 0.373445 
0.373445 0.337743 0.324474 0.324474 0.370219 0.429883 0.478115 0.454289 0.502584 
0.489891 0.374318 0.374318 0.352923 0.354363 0.364302 0.375825 0.308584 0.319812 
0.43799 0.508768 0.517207 0.443464 0.416858 0.416366 0.37166 0.373827 0.485983 
0.397509 0.477369 0.512908 0.462485 0.439745 0.407047 0.407047 0.402615 0.429786 
0.38671 0.508961 0.456499 0.401191 0.341552 0.341552 0.32859 0.297956 0.297956 
0.354742 0.350158 0.350158 0.339581 0.34898 0.380795 0.33659 0.33659 0.34633 
0.237241 0.279394 0.26318 0.310333 0.331132 0.323631 0.400717 0.390931 0.376697 
0.363644 0.344223 0.289512 0.330233 0.408993 0.450483 0.450483 0.4298 0.4298 
0.514049 0.436311 0.504392 0.49245 0.460063 0.549402 0.433911 0.385299 0.515057 
0.520812 0.480846 0.355276 0.41195 0.406592 0.460268 0.521575 0.511577 0.462286 
0.429697 0.41631 0.433605 0.406296 0.317256 0.270084 0.256066 0.238657 0.245664 
0.245382 0.245382 0.308238 0.275255 0.3159 0.277003 0.277003 0.255401 0.330287 
0.330287 0.353193 0.442953 0.408607 0.394399 0.336489 0.288849 0.280369 0.320298 
0.357654 0.278468 0.340336 0.371968 0.393058 0.418227 0.502441 0.487397 0.465664 
0.481125 0.560331 0.588266 0.454612 0.383038 0.442378 0.320205 0.490125 0.505248 
0.498584 0.521467 0.515075 0.530108 0.51119 0.501606 0.501606 0.449815 0.658044 
0.567135 0.475363 0.594044 0.469373 0.684541 0.721959 0.549732 0.437915 0.471417 
0.544159 0.536939 0.471012 0.488796 0.410355 0.461412 0.571314 0.687632 0.727828 
0.322576 0.317153 0.334063 0.341804 0.360694 0.312405 0.204056 0.181457 0.181457 
0.229351 0.23893 0.320685 0.351988 0.404968 0.474062 0.417095 0.387758 0.387758 
0.348601 0.348601 0.339023 0.349231 0.415592 0.451829 0.340633 0.276717 0.336781 
0.344656 0.344656 0.405533 0.405533 0.428821 0.478397 0.478397 0.396305 0.294977 
0.294977 0.303811 0.295983 0.46636 0.61892 0.601563 0.532832 0.271291 0.287088 
0.256418 0.271237 0.437343 0.412885 0.479139 0.495091 0.533613 0.460091 0.438865 
0.438865 0.38163 0.403359 0.403359 0.401727 0.381468 0.361521 0.380115 0.43386 
0.456564 0.367135 0.417146 0.320248 0.267743 0.216645 0.371592 0.572258 0.464535 
0.568942 0.51203 0.458911 0.557827 0.554476 0.618794 0.507948 0.424689 0.499005 
0.426966 0.339245 0.234551 0.23943 0.393886 0.323683 0.304231 0.313274 0.298446 
0.244157 0.244157 0.25643 0.197043 0.227964 0.225559 0.225559 0.229257 0.364629 
0.411341 0.350292 0.316384 0.352295 0.356726 0.356726 0.38292 0.43342 0.40351 
0.376223 0.448246 0.533906 0.564479 0.417535 0.469514 0.479306 0.285776 0.178397 
0.233878 0.261005 0.284173 0.327142 0.358064 0.377779 0.412381 0.381383 0.372432 
0.300691 0.252495 0.316145 0.455933 0.458987 0.460012 0.464893 0.418366 0.474034 
0.342111 0.362465 0.375684 0.417614 0.560234 0.51882 0.673507 0.500648 0.519915 
0.488997 0.407605 0.391661 0.350807 0.409957 0.485094 0.474263 0.405827 0.334728 
0.278588 0.28085 0.295991 0.304247 0.290998 0.338597 0.323193 0.323193 0.360142 
0.317747 0.29771 0.532384 0.544716 0.51465 0.512864 0.521061 0.478665 0.57273 
0.326293 0.258459 0.304175 0.294465 0.313846 0.289778 0.310827 0.332811 0.282278 
0.366581 0.362938 0.291714 0.337356 0.366649 0.414472 0.384642 0.338064 0.318831 
0.351963 0.143431 0.143431 0.202362 0.0687112 0.0687112 0.0386198 0 0.0869699 
0.0799311 0.130708 0.204368 0.242123 0.253241 0.262135 0.253827 0.253827 0.290631 
0.281976 0.281976 0.246175 0.310216 0.310216 0.277256 0.255026 0.2642 0.323557 
0.242262 0.179568 0.242065 0.242065 0.287631 0.307545 0.307545 0.488722 0.449606 
0.51389 0.513228 0.427313 0.433936 0.555335 0.594602 0.776232 0.321278 0.308304 
0.316147 0.285721 0.311945 0.290316 0.272653 0.277368 0.306519 0.305944 0.365263 
0.36587 0.393463 0.384384 0.735046 0.772191 0.915578 0.905731 0.78439 0.692852 
0.549393 0.406469 0.430308 0.427553 0.489983 0.481833 0.526863 0.541873 0.456625 
0.469756 0.467986 0.456599 0.445041 0.4034 0.4034 0.385013 0.379979 0.568331 
0.648351 0.690173 0.486615 0.512434 0.377776 0.444536 0.498092 0.521028 0.602076 
0.548594 0.531395 0.441201 0.486701 0.487332 0.545783 0.512003 0.48344 0.409722 
0.333195 0.320034 0.320034 0.323877 0.35124 0.330309 0.30785 0.296959 0.303783 
0.373025 0.284808 0.308155 0.313884 0.290108 0.354601 0.344487 0.361091 0.388723 
0.42321 0.341152 0.379829 0.406373 0.36267 0.489719 0.437451 0.570069 0.485378 
0.490438 0.413815 0.360881 0.412353 0.359284 0.400566 0.505471 0.624278 0.30238 
0.279618 0.304248 0.304248 0.339329 0.306064 0.34759 0.315503 0.271282 0.345437 
0.2667 0.292584 0.362299 0.448757 0.448757 0.488847 
WidthEq 1 600 double
2.24776 2.12942 2.70724 2.03818 1.33019 1.56619 1.78123 1.99978 1.28188 
2.5097 2.86187 2.89784 3.17612 2.16522 1.71227 3.92907 1.94825 2.29117 
1 2.89848 3.97204 2.6037 3.4482 2.68686 3.6601 3.51648 2.94025 
3.35605 3.98366 3.09483 2.74874 3.04537 3.03979 3.38354 1.75884 3.33348 
1.81625 2.33309 1.962 1.91741 1.70449 1.62059 1.90855 2.15627 2.15627 
2.04285 1.95838 1.95838 1.76118 1.76188 1.78184 1.75497 1.75497 1.88978 
1.962 2.0029 2.01743 1.93737 1.96502 2.32646 2.32646 2.39125 2.37222 
2.37222 1.96469 1.8087 1.8087 1.47603 1.47603 1.31352 1.6077 1.6077 
2.14849 2.29374 2.2119 1.82648 1.72504 1.69102 1.97497 2.18069 2.67302 
2.9709 3.00535 2.8066 2.47583 2.42712 2.70688 3.07746 3.07746 3.55844 
3.44655 3.55732 3.19499 3.20302 3.06616 2.77239 2.77239 2.55338 2.57362 
2.57362 2.73923 2.81293 2.81293 2.82318 2.6844 2.59724 2.81694 2.62181 