# vtk DataFile Version 3.0
vtk output
ASCII
DATASET POLYDATA
POINTS 862 float
1.83875 0.61023 1.38877 -0.02112 0.31793 0.66693 1.71689 0.627838 0.756879 
-0.219821 0.486819 0.289734 0.531547 -1.63508 0.943146 0.433175 1.11965 0.325585 
1.00772 -1.63031 0.985492 1.5979 -1.41842 0.992475 1.90428 1.04791 0.475521 
-0.175474 0.592561 0.180923 0.38431 -1.94334 0.792196 1.14302 1.40491 0.121629 
0.573399 -2.07934 0.633844 2.29084 0.920175 0.12771 2.40385 0.875998 0.14777 
2.1504 -1.61236 0.468783 2.25934 1.20219 -0.280183 -0.0972665 -1.95335 0.0650676 
0.216037 1.13846 -0.520891 -0.589102 0.271626 -0.608404 -0.578029 0.11109 -0.571928 
2.83596 0.83326 -0.420299 3.03755 -0.495206 -0.10843 0.826908 1.47844 -0.951588 
2.66387 1.15087 -0.711784 0.0424968 -2.14214 -0.675592 2.94226 -1.07677 -0.399898 
0.487138 1.25279 -1.34397 2.79758 1.23479 -1.1294 3.30867 0.201889 -0.854623 
5.68414 0.83537 -0.778059 -0.644541 -1.25675 -1.09833 1.95467 -2.27281 -0.636942 
4.39445 -0.180494 -0.87681 0.569875 1.27853 -1.75338 5.22767 0.707409 -1.20266 
6.93449 0.36543 -1.13604 -0.116442 -2.10804 -1.27338 -0.00712476 -2.0987 -1.26548 
4.79593 0.420079 -1.5898 7.19798 -0.80431 -0.92709 0.863866 1.42997 -2.1713 
1.02784 1.44397 -2.15945 2.23117 -2.18529 -1.24797 3.59454 0.102171 -1.62907 
4.6146 0.458421 -1.61479 5.35059 -1.03038 -1.42443 7.30098 -0.227228 -1.21846 
-0.392602 -0.0675078 -2.16063 -0.100145 -1.11908 -1.90165 2.85215 -1.67436 -1.50988 
3.67132 -0.796997 -1.62905 6.56487 -1.19469 -1.63159 5.01861 -1.1259 -1.69253 
-0.290703 -1.11668 -2.33082 -0.181384 -1.10734 -2.32291 3.34859 0.324491 -2.3175 
6.13023 -0.945123 -1.78347 6.59767 -0.794067 -2.04841 6.82563 0.144452 -2.1253 
0.401391 -1.3712 -2.41713 5.52367 -1.01241 -2.19402 6.92795 -1.1368 -1.87404 
0.627391 -2.04231 -2.4539 0.85867 0.184356 -2.92475 1.16059 -2.05725 -2.42104 
1.34842 0.932165 -3.18241 4.77707 -0.826697 -2.34423 6.0453 -0.879873 -2.21689 
6.38546 -0.523191 -2.3675 5.29781 -0.988197 -2.46672 5.83409 -0.260584 -2.57859 
5.91235 -0.863949 -2.43815 0.504135 0.172755 -3.36577 0.675494 0.0797347 -3.3296 
6.32453 -0.514387 -2.68345 1.76269 -1.91735 -2.99493 2.08852 0.532708 -3.50651 
2.07102 -0.113977 -3.7765 1.07138 -0.817996 -3.91771 1.12449 -0.822538 -3.8814 
1.17731 -0.846649 -3.81795 1.22947 -0.877091 -3.73793 1.28082 -0.895936 -3.66054 
1.3322 -0.88331 -3.62056 1.38293 -0.837514 -3.61083 1.43404 -0.781426 -3.61856 
1.48567 -0.724945 -3.63395 1.53861 -0.67154 -3.66377 1.59287 -0.621425 -3.70797 
1.64725 -0.573081 -3.75178 1.70033 -0.529682 -3.77176 1.75246 -0.496249 -3.76678 
1.80226 -0.444901 -3.75074 1.85204 -0.385415 -3.74411 1.9024 -0.325679 -3.7451 
1.95395 -0.266118 -3.75356 2.00888 -0.198557 -3.76348 2.14754 -0.0790608 -3.77724 
2.1957 -0.028516 -3.7764 2.21731 0.0307691 -3.76468 2.23996 0.097996 -3.72416 
2.2535 0.169457 -3.66255 2.2701 0.246123 -3.57897 2.26972 0.321339 -3.49661 
2.25805 0.393835 -3.4223 2.23613 0.455435 -3.38459 2.19179 0.495459 -3.38986 
2.14058 0.510073 -3.43584 2.00687 -0.0726791 -3.88286 1.94948 -0.0291271 -3.94341 
1.90029 0.0261079 -3.93725 1.8629 0.091611 -3.88659 1.80851 0.160567 -3.81539 
1.74497 0.227093 -3.7521 1.68219 0.292036 -3.69601 1.6317 0.356383 -3.64628 
1.60696 0.421279 -3.60194 1.58469 0.484738 -3.56468 1.54802 0.545319 -3.53572 
1.51345 0.609377 -3.49209 1.46225 0.675926 -3.43276 1.41018 0.748609 -3.35202 
1.37831 0.831825 -3.26669 1.81274 -1.90143 -2.94057 1.86464 -1.88841 -2.90825 
1.91902 -1.87175 -2.91459 1.9729 -1.83204 -2.9413 2.02676 -1.78409 -2.97745 
2.07986 -1.7409 -2.99738 2.13408 -1.71413 -3.01359 2.18863 -1.68403 -3.03811 
2.24496 -1.66402 -3.07548 2.3003 -1.63749 -3.10676 2.35415 -1.62112 -3.10547 
2.40606 -1.6082 -3.07313 2.45742 -1.59536 -3.0332 2.50932 -1.58245 -3.00086 
2.56055 -1.55982 -2.97073 2.60945 -1.51925 -2.92954 2.65872 -1.49185 -2.87778 
2.70865 -1.47416 -2.82383 2.7587 -1.45824 -2.76947 2.8068 -1.43766 -2.69348 
2.85291 -1.41219 -2.59589 2.8989 -1.38495 -2.49871 2.94685 -1.35426 -2.43258 
2.99627 -1.31341 -2.39902 3.04671 -1.27918 -2.37152 3.09547 -1.23663 -2.33078 
3.14393 -1.20554 -2.27231 3.19228 -1.17277 -2.21421 3.23971 -1.11881 -2.1685 
3.28768 -1.06477 -2.13036 3.33536 -1.02229 -2.07447 3.3815 -0.973381 -2.00492 
3.42812 -0.939394 -1.9244 3.47661 -0.916644 -1.85646 3.52586 -0.889131 -1.80474 
3.57411 -0.846974 -1.75634 3.62271 -0.817976 -1.69739 6.35943 -0.50097 -2.5271 
0.615447 0.121461 -3.31383 0.558928 0.143763 -3.3239 0.677106 0.0309875 -3.29584 
0.67691 -0.0179136 -3.2622 0.668098 -0.0708449 -3.2437 0.645433 -0.128256 -3.2407 
0.637212 -0.187728 -3.25115 0.626413 -0.245772 -3.25454 0.589877 -0.304368 -3.25254 
0.541046 -0.362365 -3.24418 0.492105 -0.420372 -3.23583 0.452436 -0.475939 -3.21955 
0.428328 -0.526882 -3.18764 0.396456 -0.571898 -3.12729 0.367751 -0.611698 -3.04495 
0.320859 -0.649758 -2.94943 0.264585 -0.690264 -2.86183 0.20716 -0.732519 -2.78157 
0.150282 -0.776373 -2.70852 0.0940602 -0.821819 -2.64268 0.0386054 -0.868849 -2.58403 
-0.0143842 -0.917315 -2.53246 -0.0581029 -0.963343 -2.47297 -0.0867559 -1.00808 -2.41237 
-0.129818 -1.0557 -2.36009 0.717302 0.135922 -3.20872 0.763005 0.151505 -3.09376 
0.810448 0.16565 -3.00117 6.55847 -0.913078 -2.2821 6.53085 -1.00613 -2.42399 
6.52444 -1.06688 -2.43908 6.53351 -1.10428 -2.35679 6.56151 -1.12403 -2.18909 
6.58024 -1.14546 -1.94275 6.44612 -0.429445 -2.31033 6.48481 -0.353172 -2.26653 
6.49601 -0.292448 -2.25608 6.50795 -0.236836 -2.26347 6.54528 -0.18171 -2.27225 
6.59239 -0.128934 -2.24915 6.64108 -0.0871469 -2.20672 6.68989 -0.0280168 -2.16355 
6.74811 0.0476446 -2.1384 5.98722 -0.885506 -2.31995 5.84671 -0.929406 -2.39921 
5.78707 -0.980605 -2.34611 5.72615 -1.01339 -2.28503 5.64505 -1.01845 -2.23189 
5.88412 -0.801919 -2.52298 5.84161 -0.755861 -2.59796 5.80244 -0.713932 -2.65648 
5.78883 -0.666142 -2.69113 5.79561 -0.613384 -2.70978 5.81883 -0.557574 -2.72 
5.82821 -0.501229 -2.72397 5.8349 -0.438908 -2.70667 5.8472 -0.360159 -2.65441 
5.89539 -0.195772 -2.55685 5.94854 -0.149707 -2.5165 5.99647 -0.0931498 -2.4713 
6.04381 -0.0372712 -2.42602 6.092 0.00560548 -2.37779 6.13709 0.0680943 -2.31133 
6.17697 0.146508 -2.21839 6.20356 0.228863 -2.1123 6.20401 0.307444 -2.01538 
6.19715 0.378811 -1.948 6.20286 0.444454 -1.90867 6.23825 0.502351 -1.89539 
6.28827 0.536761 -1.89082 6.3437 0.528673 -1.88398 6.39902 0.523719 -1.87784 
6.45381 0.526509 -1.87346 6.50927 0.527493 -1.87624 6.56683 0.513804 -1.89082 
6.62873 0.467391 -1.92823 6.69145 0.404642 -1.98329 6.74506 0.334646 -2.04824 
6.78081 0.252436 -2.09689 5.7493 -0.213191 -2.58917 5.68132 -0.182413 -2.57932 
5.61856 -0.136959 -2.54939 5.55582 -0.0889304 -2.50479 5.49352 -0.0540927 -2.44962 
5.43086 -0.0142246 -2.39559 5.36934 0.0172505 -2.34722 5.308 0.0539337 -2.30761 
5.24766 0.0840043 -2.27406 5.185 0.131883 -2.22942 5.12114 0.181283 -2.16999 
5.05615 0.214361 -2.0766 4.98707 0.253789 -1.95452 4.90291 0.328059 -1.78819 
5.349 -1.0006 -2.35269 5.41752 -1.00137 -2.26402 1.40076 1.01862 -3.06219 
1.44878 1.07554 -2.96377 1.49642 1.12305 -2.90392 1.5479 1.1453 -2.87621 
1.60177 1.15354 -2.86551 1.6563 1.16009 -2.86198 1.71095 1.17279 -2.86743 
1.76735 1.18383 -2.89519 1.82987 1.14596 -2.94966 1.89635 1.08227 -3.02854 
1.96229 1.02653 -3.10923 2.0238 1.00319 -3.167 2.0807 0.999108 -3.18377 
2.13499 0.993368 -3.16232 2.18832 0.96965 -3.10653 2.24035 0.949116 -3.03632 
2.29002 0.954625 -2.96446 2.33825 0.973224 -2.88802 2.38504 0.996885 -2.79759 
2.42919 1.02713 -2.67839 2.47124 1.06391 -2.53798 2.5113 1.11371 -2.38539 
2.55088 1.17833 -2.24373 2.59095 1.23605 -2.10052 2.63146 1.28718 -1.9558 
2.67417 1.29705 -1.79415 2.7172 1.28374 -1.63497 2.75056 1.26592 -1.47568 
2.76811 1.2482 -1.31022 6.5155 -0.751161 -2.23039 6.48645 -0.712355 -2.35205 
6.46804 -0.665128 -2.3997 6.42787 -0.603191 -2.39547 6.30362 -0.570961 -2.2159 
6.23802 -0.616575 -2.11659 6.18413 -0.671059 -2.08662 6.13608 -0.736454 -2.11082 
6.09036 -0.807367 -2.16025 6.08707 -0.893883 -2.04243 6.11983 -0.915252 -1.89763 
4.81371 -0.862565 -2.26442 4.82784 -0.902003 -2.19349 4.84092 -0.94318 -2.12989 
4.86971 -0.984663 -2.07241 4.89383 -1.0233 -2.00075 4.93281 -1.05822 -1.91331 
4.97607 -1.09171 -1.80297 1.24859 1.02743 -3.03993 1.16714 1.11647 -2.88423 
1.10522 1.1963 -2.71204 1.07188 1.26476 -2.52711 1.04924 1.34948 -2.34226 
1.19684 -2.13412 -2.3741 1.22554 -2.18794 -2.29485 1.24562 -2.22472 -2.20113 
1.27192 -2.25575 -2.09667 1.29474 -2.28916 -2.01105 1.3356 -2.3143 -1.94846 
1.3873 -2.31849 -1.91997 1.4412 -2.31235 -1.9088 1.49507 -2.29619 -1.90746 
1.54791 -2.26518 -1.9095 1.60177 -2.24891 -1.90818 1.6563 -2.24237 -1.90466 
1.71095 -2.23759 -1.90073 1.76561 -2.23292 -1.89678 1.82026 -2.22826 -1.89283 
1.87492 -2.22348 -1.8889 1.9288 -2.21545 -1.87815 1.98082 -2.19638 -1.85477 
2.03 -2.16772 -1.80331 2.0793 -2.17202 -1.71409 2.1268 -2.18054 -1.58602 
2.17507 -2.17499 -1.43053 1.08325 -2.02026 -2.44007 1.01364 -2.01306 -2.43658 
0.955815 -2.01514 -2.43377 0.900685 -2.01897 -2.43415 0.846026 -2.02364 -2.4381 
0.791368 -2.02831 -2.44205 0.736708 -2.03298 -2.446 0.682049 -2.03765 -2.44995 
6.87483 -1.17745 -1.86018 6.81309 -1.18898 -1.82432 6.71939 -1.18755 -1.7456 
5.43064 -1.03574 -1.80741 0.361421 -1.44453 -2.54166 0.317881 -1.4936 -2.61856 
0.281956 -1.54378 -2.63361 0.269674 -1.59182 -2.60126 0.268048 -1.63744 -2.55326 
0.267033 -1.67982 -2.49067 0.266127 -1.72219 -2.42808 0.265221 -1.76456 -2.36549 
0.264973 -1.80852 -2.31011 0.26341 -1.8493 -2.24031 0.260424 -1.8869 -2.15611 
0.253552 -1.9199 -2.05044 0.234176 -1.95231 -1.93842 0.186028 -1.98224 -1.80673 
0.126528 -2.00984 -1.66135 0.0743921 -2.03517 -1.50819 0.0392618 -2.06398 -1.37555 
6.90848 0.181403 -1.90048 6.95569 0.241791 -1.67342 6.96835 0.292155 -1.41683 
6.70356 -0.751837 -2.11409 6.746 -0.714774 -2.20219 6.76929 -0.678622 -2.29691 
6.81184 -0.63581 -2.36088 6.86236 -0.592878 -2.37337 6.9119 -0.563094 -2.32974 
6.95827 -0.525555 -2.25003 7.00059 -0.460848 -2.14623 7.04292 -0.404375 -2.03299 
[...]
POINT_DATA 862
SCALARS DY_raw double
LOOKUP_TABLE default
655.38 439.648 534.889 363.288 553.929 460.762 512.2 450.233 498.168 
327.373 421.334 399.32 335.724 366.161 402.373 405.703 303.202 424.079 
503.938 448.332 310.368 374.325 524.207 394.591 472.361 537.419 368.146 
402.696 439.038 507.643 542.269 393.687 506.432 776.778 439.694 483.128 
514.984 434.649 398.957 402.388 501.286 636.08 480.557 392.581 408.93 
528.177 582.872 483.495 407.066 547.16 469.29 477.973 477.723 529.442 
426.451 308.119 401.002 628.233 519.326 470.242 518.111 559.793 488.78 
472.726 472.64 428.462 355.905 667.67 480.74 526.367 561.001 604.813 
516.501 389.763 263.969 510.429 466.826 384.846 494.589 780.158 547.738 
443.67 482.637 378.82 399.591 387.385 401.837 466.804 454.643 480.027 
499.742 524.289 552.182 679.641 638.322 620.904 558.696 527.002 456.44 
419.083 394.6 383.904 378.718 370.165 309.096 340.963 348.278 382.44 
412.176 460.133 457.395 443.935 420.415 418.22 381.794 416.585 406.957 
394.502 417.289 372.389 411.159 344.691 337.588 350.093 524.914 568.241 
534.519 535.894 535.894 527.415 614.049 618.196 622.622 622.622 523.159 
456.055 556.656 418.693 403.701 445.306 382.832 423.966 378.067 389.634 
553.015 515.849 430.264 430.264 410.318 425.098 519.661 467.694 463.526 
463.526 428.069 464.521 455.092 463.434 496.766 404.889 431.053 506.85 
324.952 389.763 292.38 323.622 323.622 329.008 330.351 338.775 355.881 
355.881 366.352 375.009 402.906 374.123 406.422 450.782 396.311 383.976 
420.197 448.63 448.63 436.065 367.03 406.889 320.826 295.884 368.287 
423.689 450.591 418.001 431.433 462.831 562.659 467.323 511.149 491.717 
506.133 489.025 455.233 452.705 467.291 463.907 483.778 463.436 484.244 
473.881 457.654 498.052 523.198 506.343 506.253 556.93 556.93 612.372 
619.026 561.252 563.892 547.329 572.18 621.447 637.154 603.749 608.019 
677.576 656.755 615.566 554.491 516.377 462.05 450.922 450.922 429.38 
432.583 409.11 409.11 393.102 386.151 420.765 424.347 617.993 668.374 
731.599 704.232 570.883 583.423 541.046 498.539 462.739 456.591 422.064 
430.118 464.052 439.094 489.538 514.371 364.926 373.8 362.549 331.123 
352.253 333.471 348.65 339.263 385.044 357.534 390.387 414.796 412.019 
400.06 407.116 439.666 418.138 440.358 464.281 401.598 452.274 438.231 
372.923 431.748 415.183 413.34 380.937 444.47 484.501 577.503 501.847 
495.535 504.629 689.109 840.396 767.137 625.619 518.549 547.506 582.447 
532.215 584.954 545.211 542.025 518.723 549.749 560.697 383.081 435.363 
499.236 509.983 447.305 413.35 486.577 474.901 498.518 411.039 377.365 
385.978 431.063 431.063 457.815 510.297 510.297 570.754 569.008 569.008 
515.537 472.458 472.458 482.558 469.211 486.184 408.059 454.792 463.897 
478.223 464.943 464.943 466.848 456.753 472.726 471.669 480.515 451.116 
588.52 459.375 428.063 427.239 391.401 428.652 424.846 359.795 359.795 
325.196 323.299 436.376 379.047 398.827 487.282 397.762 478.281 403.947 
493.111 654.077 615.764 397.828 436.426 379.537 352.366 345.82 388.329 
435.491 474.06 445.027 502.997 522.879 565.47 544.468 463.943 506.32 
532.473 352.059 357.078 390.686 390.686 399.403 392.317 387.467 362.695 
367.809 336.967 344.86 320.491 299.939 299.209 306.753 285.58 301.608 
278.138 297.207 337.347 352.842 352.842 377.292 377.292 385.523 410.753 
373.589 358.591 402.841 407.562 428.378 464.549 509.459 549.413 479.19 
430.255 412.368 364.682 311.06 347.483 299.424 370.971 373.458 358.768 
344.813 342.831 375.991 442.015 384.792 367.459 419.727 358.083 331.795 
359.48 566.268 573.516 545.629 561.546 418.861 487.42 519.706 522.223 
445.449 536.791 478.611 590.718 624.289 536.403 464.535 433.055 487.409 
476.845 652.69 720.607 660.087 731.829 600.223 517.068 466.339 426.255 
448.855 435.017 427.911 436.114 484.42 511.445 431.664 369.343 346.242 
365.13 323.359 373.418 373.418 450.764 441.354 436.68 375.623 342.982 
329.9 306.105 342.684 368.745 343.747 401.964 403.08 370.906 405.044 
430.053 497.267 424.749 520.661 603.694 457.237 479.49 529.701 554.79 
584.512 501.075 465.009 453.224 457.754 458.115 499.931 540.362 506.915 
514.836 514.836 624.303 588.695 514.469 508.082 566.067 470.362 463.424 
501.269 559.408 540.733 544.382 561.535 524.468 436.6 438.402 463.874 
603.539 603.539 424.766 457.938 488.777 436.2 474.449 515.747 524.663 
459.486 481.037 561.083 525.139 409.448 426.178 427.306 516.249 516.249 
579.368 611.836 611.836 610.89 615.369 615.369 611.94 541.362 579.457 
556.263 534.858 594.741 511.746 512.297 486.98 423.247 461.379 453.586 
467.782 637.4 383.681 332.481 362.755 381.545 404.844 350.407 346.963 
371.113 318.213 316.269 366.457 379.008 434.649 504.027 447.085 498.16 
513.145 494.544 489.401 521.246 521.246 571.56 634.121 671.429 690.847 
621.496 516.534 516.534 445.74 458.999 485.532 485.532 517.65 497.359 
524.249 524.249 558.426 596.984 530.958 506.168 505.473 556.773 573.763 
549.604 549.604 525.349 508.85 616.022 622.8 622.8 585.727 587.533 
547.552 538.272 537.646 555.224 553.168 486.478 484.927 460.009 419.758 
368.976 347.869 373.684 416.055 486.931 454.64 422.356 426.928 424.136 
391.315 380.848 374.713 331.753 359.949 359.853 348.381 355.627 333.455 
357.06 392.025 415.244 472.516 452.691 488.809 467.182 475.007 467.861 
455.661 444.294 500.081 409.92 425.056 423.762 427.966 456.358 501.664 
490.499 485.671 433.149 455.041 480.488 481.152 495.18 477.402 479.527 
476.481 443.527 420.883 512.073 435.362 433.52 485.482 431.783 433.897 
433.897 417.269 394.591 378.934 398.112 385.662 429.469 403.165 403.165 
447.786 476.508 481.172 525.54 450.08 389.6 357.643 322.24 449.386 
395.909 425.504 418.047 414.356 393.114 551.524 422.188 443.655 430.048 
393.954 429.257 472.405 482.301 519.921 566.234 549.52 549.52 525.049 
481.489 500.848 405.819 386.492 386.492 385.571 431.372 416.475 432.2 
545.566 483.757 480.617 436.95 436.95 361.945 337.198 309.412 306.69 
348.858 401.41 523.385 604.344 700.133 580.214 625.691 528.354 481.766 
481.766 453.357 444.79 425.783 446.061 421.409 348.339 348.339 346.056 
399.226 433.007 426.298 426.298 474.938 426.007 362.731 387.305 457.497 
520.932 539.082 568.505 549.424 554.124 594.572 504.169 326.868 359.426 
423.9 514.869 556.196 582.101 544.737 513.664 525.284 467.862 501.861 
538.231 440.381 409.51 412.094 414.366 414.366 367.548 411.53 469.85 
472.911 464.816 444.278 347.236 421.334 510.116 498.963 490.453 361.939 
504.169 556.195 572.917 677.083 631.356 647.354 612.28 664.625 637.974 
583.002 607.282 536.353 485.642 485.642 518.512 518.512 509.239 528.706 
594.625 611.16 623.122 652.848 600.42 603.394 603.394 530.213 576.844 
535.684 424.739 435.192 438.632 416.662 455.043 484.426 537.227 486.008 
502.875 516.55 568.049 523.869 496.624 444.952 372.353 388.735 370.376 
386.376 386.376 410.83 426.251 396.113 439.876 440.087 432.712 429.998 
459.478 520.059 567.132 591.806 480.658 480.658 474.944 498.589 500.741 
514.891 526.047 371.618 352.594 393.301 533.889 585.151 
FIELD FieldData 7
DY_minmax 1 862 double
0.679031 0.304772 0.47 0.172301 0.50303 0.341402 0.430639 0.323137 0.406295 
0.109996 0.273001 0.234811 0.124483 0.177286 0.240107 0.245884 0.0680629 0.277764 
0.416305 0.319838 0.0804941 0.19145 0.451468 0.226606 0.361525 0.474388 0.18073 
0.240667 0.303714 0.422733 0.482802 0.225039 0.420631 0.889634 0.304852 0.380202 
0.435468 0.2961 0.234182 0.240134 0.411703 0.645549 0.375743 0.223119 0.251482 
0.458356 0.553241 0.38084 0.248248 0.491288 0.356196 0.371259 0.370827 0.46055 
0.281879 0.0765924 0.237728 0.631935 0.443 0.357849 0.440893 0.513204 0.390009 
0.362157 0.362008 0.285368 0.159493 0.700351 0.37606 0.455215 0.515299 0.591306 
0.438099 0.218231 0 0.427566 0.351921 0.2097 0.400086 0.895498 0.49229 
0.311749 0.37935 0.199247 0.235281 0.214106 0.239177 0.351884 0.330786 0.374824 
0.409026 0.451611 0.499999 0.721119 0.649438 0.61922 0.5113 0.456317 0.333904 
0.269096 0.226622 0.208067 0.19907 0.184232 0.0782881 0.133571 0.146261 0.205528 
0.257115 0.340311 0.335561 0.312211 0.271407 0.267599 0.204407 0.264762 0.24806 
0.226452 0.265984 0.18809 0.25535 0.140039 0.127717 0.149411 0.452695 0.527859 
0.469357 0.471743 0.471743 0.457034 0.607328 0.614522 0.622202 0.622202 0.44965 
0.333236 0.507761 0.268419 0.242411 0.314589 0.206206 0.277567 0.197941 0.218007 
0.501445 0.436968 0.288494 0.288494 0.253891 0.279532 0.443581 0.353428 0.346197 
0.346197 0.284685 0.347923 0.331565 0.346036 0.403863 0.244472 0.289863 0.421356 
0.105795 0.218231 0.0492881 0.103488 0.103488 0.112832 0.115161 0.129776 0.159451 
0.159451 0.177617 0.192635 0.241032 0.191097 0.247132 0.324088 0.229591 0.208192 
0.271029 0.320355 0.320355 0.298558 0.178792 0.247942 0.0986374 0.0553678 0.180973 
0.277086 0.323758 0.267219 0.29052 0.344992 0.518176 0.352784 0.428815 0.395104 
0.420112 0.390434 0.33181 0.327424 0.352729 0.346859 0.38133 0.34604 0.382138 
0.364162 0.336009 0.406093 0.449718 0.420476 0.42032 0.508237 0.508237 0.604419 
0.615962 0.515735 0.520315 0.491581 0.534692 0.620162 0.647412 0.589459 0.596867 
0.717536 0.681416 0.60996 0.504006 0.437884 0.343637 0.324331 0.324331 0.286959 
0.292516 0.251795 0.251795 0.224024 0.211965 0.272013 0.278229 0.61417 0.701573 
0.811257 0.76378 0.532442 0.554197 0.480681 0.406939 0.344832 0.334165 0.274267 
0.288239 0.34711 0.303812 0.391323 0.434403 0.175144 0.190539 0.17102 0.116502 
0.153158 0.120574 0.146908 0.130622 0.210044 0.162319 0.219314 0.261659 0.256841 
0.236094 0.248335 0.304804 0.267457 0.306005 0.347506 0.238763 0.326677 0.302315 
0.189017 0.291068 0.26233 0.259133 0.20292 0.313138 0.382585 0.543927 0.412678 
0.401727 0.417504 0.737545 1 0.872909 0.627401 0.441653 0.491888 0.552505 
0.465361 0.556853 0.487907 0.482379 0.441954 0.495778 0.514773 0.206638 0.297339 
0.408148 0.426791 0.318056 0.25915 0.386186 0.365931 0.406903 0.255141 0.196722 
0.211665 0.289879 0.289879 0.33629 0.427336 0.427336 0.532219 0.52919 0.52919 
0.436428 0.361693 0.361693 0.379214 0.35606 0.385505 0.249972 0.331046 0.346841 
0.371693 0.348656 0.348656 0.351961 0.334448 0.362157 0.360324 0.375669 0.324669 
0.563039 0.338996 0.284676 0.283245 0.221073 0.285696 0.279094 0.166242 0.166242 
0.106218 0.102928 0.299097 0.199641 0.233955 0.38741 0.232108 0.371794 0.242839 
0.397522 0.676769 0.610303 0.232223 0.299184 0.20049 0.153354 0.141998 0.215743 
0.29756 0.364472 0.314104 0.414673 0.449164 0.523052 0.486617 0.34692 0.420438 
0.465808 0.152821 0.161529 0.219832 0.219832 0.234955 0.222662 0.214248 0.171272 
0.180144 0.126639 0.140332 0.0980568 0.0624015 0.0611357 0.074223 0.0374917 0.0652978 
0.0245812 0.0576629 0.127298 0.15418 0.15418 0.196596 0.196596 0.210875 0.254644 
0.190171 0.164153 0.240918 0.249109 0.285221 0.347972 0.425882 0.495195 0.373372 
0.288477 0.257446 0.17472 0.0816944 0.144883 0.0615085 0.185631 0.189945 0.16446 
0.140251 0.136812 0.194339 0.308879 0.209607 0.179538 0.270213 0.163272 0.117667 
0.165694 0.524437 0.537011 0.488631 0.516245 0.268711 0.387648 0.44366 0.448027 
0.314837 0.473299 0.372367 0.566853 0.625093 0.472626 0.347947 0.293334 0.38763 
0.369303 0.674363 0.792188 0.687197 0.811656 0.583342 0.439083 0.351077 0.281538 
0.320746 0.29674 0.284412 0.298642 0.382445 0.429328 0.290921 0.182806 0.142729 
0.175498 0.103032 0.189876 0.189876 0.324058 0.307733 0.299624 0.193701 0.137075 
0.11438 0.0730997 0.136557 0.181769 0.138401 0.239398 0.241334 0.185517 0.24474 
0.288127 0.404731 0.278926 0.445315 0.589364 0.335287 0.373891 0.460998 0.504525 
0.556086 0.411338 0.348769 0.328325 0.336183 0.33681 0.409354 0.479493 0.42147 
0.43521 0.43521 0.625118 0.563344 0.434574 0.423494 0.524088 0.358057 0.34602 
0.411675 0.512536 0.480138 0.486468 0.516226 0.45192 0.299485 0.302611 0.346801 
0.589096 0.589096 0.278955 0.336502 0.390003 0.298791 0.365146 0.436792 0.452259 
0.339189 0.376575 0.515441 0.453085 0.25238 0.281405 0.283361 0.437662 0.437662 
0.547163 0.603489 0.603489 0.601848 0.609618 0.609618 0.603669 0.481229 0.547316 
0.507079 0.469946 0.573832 0.42985 0.430807 0.386885 0.276319 0.342473 0.328952 
0.353581 0.647838 0.207679 0.118857 0.171376 0.203973 0.244395 0.149955 0.14398 
0.185877 0.0941036 0.090732 0.1778 0.199573 0.2961 0.416459 0.317675 0.406281 
0.432278 0.400008 0.391085 0.446331 0.446331 0.533618 0.64215 0.706872 0.740559 
0.620248 0.438157 0.438157 0.315341 0.338344 0.384373 0.384373 0.440093 0.404891 
0.451541 0.451541 0.510832 0.577724 0.46318 0.420174 0.418968 0.507964 0.537438 
0.495527 0.495527 0.453448 0.424826 0.610751 0.62251 0.62251 0.558194 0.561327 
0.491967 0.475869 0.474782 0.505277 0.501711 0.386014 0.383324 0.340096 0.270267 
0.182169 0.145552 0.190336 0.263844 0.386801 0.330781 0.274774 0.282705 0.277862 
0.220923 0.202766 0.192121 0.117594 0.16651 0.166343 0.146441 0.159011 0.120547 
0.161497 0.222155 0.262437 0.361793 0.3274 0.390059 0.35254 0.366114 0.353718 
0.332553 0.312832 0.409613 0.2532 0.279459 0.277214 0.284507 0.333761 0.41236 
0.39299 0.384615 0.293498 0.331476 0.375623 0.376776 0.40111 0.37027 0.373956 
0.368672 0.311501 0.27222 0.430418 0.297337 0.294141 0.384286 0.291129 0.294796 
0.294796 0.265949 0.226606 0.199445 0.232715 0.211116 0.287115 0.241481 0.241481 
0.318891 0.368718 0.37681 0.45378 0.32287 0.217949 0.162508 0.10109 0.321666 
0.228893 0.280236 0.267299 0.260896 0.224044 0.498858 0.274482 0.311724 0.288118 
0.225502 0.286747 0.361601 0.378768 0.444032 0.524377 0.495382 0.495382 0.452929 
0.37736 0.410944 0.246086 0.212556 0.212556 0.210959 0.290415 0.264571 0.291851 
0.488522 0.381295 0.375846 0.300092 0.300092 0.169972 0.12704 0.0788364 0.0741142 
0.147267 0.238437 0.450042 0.590491 0.75667 0.548629 0.627525 0.458663 0.377841 
0.377841 0.328556 0.313692 0.28072 0.315899 0.273132 0.146367 0.146367 0.142407 
0.234647 0.293253 0.281613 0.281613 0.365995 0.281108 0.171335 0.213967 0.335738 
0.445786 0.477274 0.528318 0.495216 0.503369 0.573539 0.416706 0.109118 0.165602 
0.277453 0.435268 0.506963 0.551905 0.487083 0.433178 0.453337 0.353719 0.412702 
0.475798 0.306045 0.252489 0.256971 0.260914 0.260914 0.179691 0.255993 0.357168 
0.362479 0.348434 0.312805 0.144454 0.273001 0.427022 0.407674 0.392911 0.169961 
0.416706 0.506962 0.535972 0.716681 0.637353 0.665107 0.60426 0.695069 0.648833 
0.553467 0.595589 0.47254 0.384564 0.384564 0.441588 0.441588 0.425502 0.459274 
0.573631 0.602316 0.623069 0.674638 0.583684 0.588843 0.588843 0.461888 0.542784 
0.471379 0.278909 0.297042 0.303011 0.264896 0.331481 0.382455 0.474055 0.3852 
0.41446 0.438184 0.527525 0.450881 0.403616 0.313975 0.188027 0.216448 0.184599 
0.212355 0.212355 0.254778 0.281532 0.229246 0.305168 0.305534 0.292741 0.288031 
0.339175 0.444273 0.525935 0.56874 0.375918 0.375918 0.366005 0.407024 0.410758 
0.435306 0.454659 0.186752 0.15375 0.224368 0.468264 0.557195 
WidthEq 1 862 double
1.60485 4.19576 2.46638 6.17923 2.75279 5.12327 1.59642 2.68367 3.15993 
5.21642 3.62952 4.15025 2.59716 4.3371 4.06063 3.55153 5.3584 4.67398 
4.96144 3.66873 5.99501 4.25992 3.02065 5.40027 4.20692 4.26738 3.46158 
6.20654 4.28022 3.4838 2.01857 4.93531 3.90224 1.7975 5.36626 2.60579 
3.10312 3.81542 4.96619 4.25713 3.87513 2.6743 4.14708 3.8579 4.61093 
2.1183 4.07034 4.82937 3.11438 3.17669 3.30137 2.13142 3.83663 3.84064 
2.59352 4.34725 3.8516 2.6245 3.76182 3.31222 2.14129 3.80554 2.61776 
2.44133 1.72279 3.68417 5.46629 1.6827 3.46266 3.69084 2.44841 2.42511 
3.42079 3.1839 4.48636 2.36746 2.62764 3.99934 3.19938 1 1.81402 
2.49699 2.38846 3.51839 3.44081 3.6667 3.4607 3.10005 3.08272 2.70724 
2.6864 2.35387 2.19992 1.87933 1.96537 2.10593 2.47555 2.83974 3.47281 
3.66869 3.76158 3.84499 4.13605 4.41168 5.10847 4.91009 4.8761 4.39111 
3.8779 3.15069 2.99388 2.89362 2.89102 2.88647 3.23522 3.22918 3.15477 
3.03734 3.07959 3.27743 3.35767 4.1015 4.79519 5.1202 2.56445 2.44905 
2.60194 2.40842 2.40842 2.28499 1.96995 2.04325 2.13485 2.13485 2.592 
2.91206 2.50673 3.40875 3.64267 3.42308 3.9457 3.67598 3.98312 3.95709 
3.10248 3.42972 3.94708 3.94708 3.70383 3.53478 2.91496 3.08849 3.04813 
3.04813 3.48845 3.39864 3.52746 3.35204 3.20524 2.89274 2.2802 3.20339 
4.15898 3.1839 4.59569 4.46872 4.46872 4.04539 3.98582 3.80777 3.54911 
3.54911 3.49729 3.46967 3.32702 3.46303 3.48758 3.42318 3.81185 3.78848 
3.85821 3.91748 3.91748 3.99715 4.25183 4.08157 4.24974 4.25514 4.00945 
2.47757 3.80076 3.61829 3.45386 2.97797 2.73815 3.52965 4.08697 4.25116 
4.05065 4.07095 4.10837 4.0432 3.94587 3.87385 3.55679 3.77469 3.63468 
3.68343 3.78808 3.73471 3.14769 2.91425 2.78323 2.49369 2.49369 2.28529 
2.23664 2.4686 2.47396 2.57214 2.46078 2.42413 2.30269 2.3247 2.24399 
2.05559 1.98115 2.10286 2.45592 2.7538 3.08879 3.05525 3.05525 3.12662 
2.96428 3.23235 3.23235 3.28555 3.06799 2.86991 2.9218 2.24352 1.92993 
1.69214 1.59116 1.85589 1.84396 2.04237 2.49011 2.93111 3.01044 3.42372 
3.44189 3.32126 3.67301 3.24634 3.78248 5.54437 5.46056 5.72967 6.0118 
5.42391 5.12131 4.6112 4.57695 3.89448 3.95844 3.51863 3.21688 3.5607 
3.78963 4.3017 4.14539 4.3223 4.3611 4.56555 5.07947 4.90817 5.23173 
6.32164 5.73584 5.90209 5.75567 5.4405 4.62044 4.15918 3.32375 3.55646 
3.69857 3.8987 2.74139 2.04102 2.07761 2.77689 3.36691 2.99109 2.98471 
2.51712 2.51455 2.76179 2.88724 3.25326 3.48785 3.38535 5.38001 4.88413 
4.10743 4.03245 4.49657 3.59139 3.08191 3.14554 3.18249 3.83973 4.15062 
4.11549 3.74857 3.74857 3.51836 3.18195 3.18195 2.89914 2.93461 2.93461 
3.23107 3.48464 3.48464 3.29624 3.23717 3.0395 3.56097 3.57857 3.49978 
3.31199 3.00096 3.00096 2.79968 2.57123 2.44133 3.03013 3.32264 3.60909 
3.98042 2.72076 3.45437 3.70919 3.93471 3.77908 3.76708 3.94435 3.94435 
3.97833 3.95942 3.41634 3.86556 3.99098 3.5691 4.34357 3.71367 4.63295 
3.25454 2.89594 2.89517 3.91643 3.57925 3.6873 3.99226 4.25038 4.06792 
4.07756 4.06003 4.49027 4.35385 4.17611 4.0429 4.05254 4.70247 3.85039 
3.74877 4.29084 4.37371 4.21353 4.21353 3.63134 3.32514 3.25831 3.3687 
4.17736 4.26724 5.23099 5.34572 5.63311 5.59478 4.99225 4.26549 3.89833 
3.61863 3.61151 3.56455 3.60659 3.60659 3.52567 3.52567 3.61138 3.55281 
3.68137 3.63896 3.48636 3.39479 3.33882 3.24766 3.13636 2.97652 3.27746 
3.72537 3.86734 4.44677 5.3028 5.26551 5.5408 4.86565 4.381 4.37324 
4.09088 3.97557 3.87102 4.01309 4.26404 3.34004 4.1015 4.04539 4.00177 
4.01664 3.92402 3.84988 4.20547 4.31002 4.20767 3.97985 3.78768 3.56542 
3.40555 3.18677 3.06098 2.79392 2.78219 3.35447 4.09715 4.62971 4.14307 
3.67153 2.51193 2.30539 2.48573 2.17056 2.33994 2.55026 2.65956 2.59598 
2.56051 2.54665 2.73016 3.51853 4.01114 4.33501 3.78683 4.1606 4.30858 
4.01623 4.34671 3.88805 3.88805 3.3951 3.44338 3.53835 4.24425 4.98025 
5.77434 6.19521 5.76443 4.71542 4.42904 4.03053 4.16616 4.49259 4.85105 
4.94778 4.58379 5.0792 4.5142 4.07665 5.37158 4.65321 3.90902 3.8251 
3.76141 3.68046 3.91751 3.8841 3.66286 4.75351 4.29725 4.08187 3.89792 
3.87065 3.87065 3.66515 3.74523 4.31758 4.23211 3.81347 3.86714 3.63181 
2.92605 2.78188 2.61071 2.26344 2.18529 2.32346 2.98815 3.20865 3.46583 
2.5983 2.5983 4.25406 3.7661 3.38539 3.75676 3.35838 3.22601 3.05579 
3.52665 4.45857 3.68653 3.14796 4.19286 3.5341 3.70966 2.44436 2.44436 
2.03425 1.77778 1.77778 1.81918 1.942 1.942 2.3417 2.75484 2.75151 
3.35605 3.62726 3.34081 3.9399 3.83734 3.8488 3.88154 3.90288 4.07473 
4.46737 2.80555 6.08112 6.97046 6.63944 5.83095 5.5319 5.79845 6.11541 
6.17943 6.58314 6.20556 5.54339 4.79681 3.81542 4.34155 3.66788 3.51792 
3.47439 3.60325 3.55457 3.28616 3.28616 2.76091 2.35387 2.1357 2.04966 
2.20673 2.57841 2.57841 2.87308 3.21536 3.12008 3.12008 2.83448 5.02566 
3.62493 3.62493 3.28387 2.6888 2.9161 2.81685 2.55242 2.45687 2.41216 
2.43546 2.43546 2.41965 2.39901 2.06436 2.13961 2.13961 2.26226 2.25812 
2.29706 2.3006 2.37528 2.36533 2.50542 3.03033 3.33798 3.48006 3.96997 
5.03628 5.29633 5.49087 5.20216 4.64677 4.21744 3.99968 3.47419 3.20821 
3.49611 3.61411 3.78714 5.97468 5.71824 5.66322 5.00152 4.8672 4.21255 
3.81913 3.60413 3.36563 3.17153 3.17021 3.37399 3.43572 3.6306 3.82109 