# vtk DataFile Version 3.0
vtk output
ASCII
DATASET POLYDATA
POINTS 730 float
1.15503 -0.662363 1.16227 1.81912 0.525185 1.16483 1.79032 0.419023 1.16483 
1.25363 -1.14502 0.963982 2.05186 0.746985 0.966111 2.36046 0.834228 0.968239 
1.9186 -1.07848 0.835481 2.56674 0.47433 0.970509 1.47672 -1.36211 0.546936 
2.65916 0.981143 0.670163 2.45799 -1.2628 0.773211 0.937664 -1.43674 0.556641 
2.8487 1.0437 0.471446 3.33622 -0.712725 0.358644 0.810029 -1.53756 0.361446 
2.67806 1.14698 0.36996 3.15827 -0.863908 0.377622 5.83711 0.611808 0.252417 
-0.356102 -0.100427 0.149817 0.01736 0.786045 0.150811 1.15883 -1.88864 0.0647541 
2.25945 1.4885 0.166134 1.30899 -2.01486 0.166134 1.55335 -1.60626 0.10046 
1.71388 -1.78277 0.168688 3.33878 0.701782 0.0424569 5.31379 0.773845 0.190397 
5.3318 0.0661073 0.0586321 0.277697 -1.6211 -0.0423727 1.50342 1.63662 -0.0398187 
5.06964 0.498153 -0.0108736 5.53748 0.542194 -0.00746835 5.31694 -0.48075 -0.00704268 
5.98639 0.306429 -0.00363738 6.0835 -0.175822 -0.00193473 6.3201 -0.353986 0.000193578 
3.63059 -0.821083 -0.218956 5.55522 -0.500206 -0.21634 5.83044 0.215771 -0.204625 
5.84388 -0.224789 -0.203632 4.8315 0.448781 -0.412564 -0.435141 0.490897 -0.785329 
-0.469601 -0.406818 -0.800438 0.341401 1.59095 -1.18177 3.84723 0.373884 -1.01978 
3.32428 -1.76377 -1.01936 -0.384468 -0.681242 -1.44927 -0.0519072 1.31773 -1.65084 
-0.469529 -0.221626 -1.65084 3.62499 0.377188 -1.62147 0.573599 1.58494 -1.91339 
3.44118 0.674001 -1.82345 0.690977 -1.77121 -2.17238 -0.310332 -0.492768 -2.24912 
0.621345 1.40103 -2.246 0.149938 -0.978559 -2.64471 0.690788 -1.43431 -2.66567 
3.15159 -0.762034 -2.7968 2.88631 0.349636 -2.82697 3.12018 -0.188707 -2.82413 
1.30326 -1.50041 -3.03505 1.68084 -1.3749 -3.23249 1.88394 -0.632163 -3.43248 
1.93699 -0.646669 -3.43205 1.98951 -0.662918 -3.42422 2.03931 -0.688777 -3.40157 
2.08497 -0.729213 -3.35671 2.13453 -0.755022 -3.30443 2.18678 -0.771195 -3.25956 
2.23966 -0.785656 -3.23692 2.29263 -0.800027 -3.22167 2.34554 -0.814382 -3.19903 
2.39829 -0.828692 -3.15416 2.45098 -0.842987 -3.10188 2.50373 -0.857298 -3.05701 
2.55667 -0.871547 -3.03437 2.6102 -0.88407 -3.02653 2.66646 -0.886971 -3.03352 
2.72677 -0.875179 -3.0479 2.78362 -0.876127 -3.0623 2.84072 -0.875258 -3.04705 
2.90368 -0.851711 -2.99478 2.96695 -0.826417 -2.91657 3.02736 -0.814923 -2.84948 
3.09296 -0.793261 -2.8083 1.62708 -1.36254 -3.20328 1.57188 -1.36203 -3.15925 
1.51917 -1.39025 -3.10773 1.47804 -1.43385 -3.06351 1.42247 -1.47354 -3.04162 
1.36043 -1.49933 -3.03462 3.17228 -0.702919 -2.80048 3.17361 -0.641122 -2.8117 
3.15954 -0.579363 -2.81934 3.15092 -0.519984 -2.82323 3.13732 -0.459307 -2.82345 
3.13999 -0.402971 -2.82354 3.15025 -0.347358 -2.82358 3.14914 -0.280494 -2.82372 
3.18947 -0.137047 -2.74964 3.23205 -0.0868348 -2.66793 3.26518 -0.03813 -2.5789 
3.27787 0.015456 -2.49742 3.31981 0.0610655 -2.42313 3.3715 0.104031 -2.34876 
3.41204 0.150019 -2.26706 3.46718 0.192048 -2.17044 3.53006 0.231978 -2.06634 
3.58302 0.274598 -1.9401 3.60979 0.324325 -1.79185 3.07368 -0.105636 -2.89131 
3.05401 -0.0385339 -2.94345 3.02774 0.0262864 -2.966 3.00221 0.0902409 -2.9441 
2.98943 0.150696 -2.89986 2.96192 0.215147 -2.85576 2.92494 0.282168 -2.83395 
2.83323 0.364036 -2.82739 2.78021 0.378421 -2.83523 2.7273 0.392777 -2.85787 
2.67455 0.407087 -2.90274 2.62186 0.421382 -2.95502 2.56911 0.435693 -2.99988 
2.5162 0.450048 -3.02253 2.46317 0.464433 -3.03036 2.41009 0.478833 -3.03079 
2.35701 0.493234 -3.03122 2.30399 0.507619 -3.03905 2.25107 0.521974 -3.0617 
2.19833 0.536285 -3.10656 2.14563 0.55058 -3.15884 2.09289 0.56489 -3.20371 
2.03997 0.579245 -3.22635 1.98698 0.593737 -3.23419 1.93443 0.610106 -3.23461 
1.88495 0.637995 -3.22763 1.84248 0.691927 -3.21325 1.80254 0.755637 -3.18404 
1.76049 0.811568 -3.15484 1.71442 0.852893 -3.11823 1.67189 0.907059 -3.08902 
1.62933 0.961127 -3.05982 1.58284 1.00045 -3.03803 1.53719 1.04311 -3.00882 
1.4874 1.07097 -2.96481 1.43706 1.09699 -2.91338 1.38767 1.1263 -2.86936 
1.33096 1.12799 -2.84757 1.27828 1.14429 -2.83318 1.2317 1.18308 -2.81879 
1.18152 1.20906 -2.78959 1.12923 1.22724 -2.76039 1.07902 1.25333 -2.72377 
1.03276 1.29394 -2.68716 0.98241 1.31995 -2.63574 0.929394 1.33633 -2.5769 
0.8759 1.35096 -2.51807 0.822355 1.36544 -2.46665 0.767398 1.37965 -2.41524 
0.70364 1.39217 -2.34167 2.9533 0.388452 -2.75987 3.02017 0.427297 -2.69279 
3.08521 0.466527 -2.6183 3.14002 0.506646 -2.52908 3.17741 0.541138 -2.41776 
3.22541 0.557088 -2.29151 3.28768 0.585536 -2.15035 3.35905 0.625938 -1.99434 
0.654117 -1.37723 -2.69198 0.608304 -1.32534 -2.72577 0.561849 -1.28474 -2.77064 
0.52026 -1.229 -2.81181 0.480708 -1.16539 -2.83445 0.438372 -1.11139 -2.83488 
0.389344 -1.08162 -2.8205 0.339623 -1.0537 -2.79129 0.291893 -1.01329 -2.75469 
0.23142 -0.989319 -2.70334 0.691969 -1.49936 -2.63219 0.700854 -1.56401 -2.56656 
0.7067 -1.62494 -2.46763 0.71243 -1.69311 -2.33041 0.114976 -1.053 -2.48185 
0.0927979 -1.11355 -2.34855 0.0786344 -1.1681 -2.25225 0.0771346 -1.22464 -2.17807 
0.102404 -1.28649 -2.11849 0.141903 -1.34184 -2.07364 0.1874 -1.38311 -2.051 
0.229173 -1.43897 -2.04316 0.268863 -1.50272 -2.04274 0.310721 -1.55849 -2.04231 
0.35705 -1.59799 -2.0493 0.402166 -1.6424 -2.07109 0.449252 -1.67999 -2.1077 
0.495072 -1.72244 -2.14184 0.546639 -1.74819 -2.16116 0.609393 -1.76244 -2.16806 
0.104038 -0.895659 -2.63781 0.0734475 -0.825585 -2.61596 0.0600832 -0.764266 -2.57174 
0.0325293 -0.699876 -2.52763 -0.00501368 -0.634702 -2.49841 -0.0467922 -0.578844 -2.49142 
-0.0932584 -0.539412 -2.46963 -0.139132 -0.496919 -2.41821 -0.19015 -0.472726 -2.34456 
-0.246793 -0.46971 -2.28573 0.743192 -1.83936 -2.20395 0.795552 -1.87472 -2.22571 
0.845529 -1.90344 -2.23515 0.891538 -1.94413 -2.2372 0.941468 -1.97014 -2.23677 
0.993537 -1.98827 -2.23635 1.04341 -2.01426 -2.22851 1.08923 -2.05475 -2.20587 
1.13886 -2.08057 -2.161 1.19105 -2.09672 -2.10872 1.24377 -2.11114 -2.06385 
1.29668 -2.1255 -2.04121 1.34973 -2.13978 -2.03337 1.40332 -2.15231 -2.03295 
1.45955 -2.1551 -2.03252 1.52022 -2.14151 -2.0321 1.57955 -2.1329 -2.03167 
1.64031 -2.11921 -2.03866 1.69715 -2.12017 -2.05304 1.75403 -2.12123 -2.07483 
1.8143 -2.10932 -2.08182 1.87098 -2.11022 -2.07398 1.92803 -2.10934 -2.05134 
1.99124 -2.08597 -2.0361 2.05447 -2.06273 -2.02827 2.11121 -2.06365 -2.02784 
2.16533 -2.07422 -2.02741 2.22156 -2.07701 -2.02699 2.28176 -2.06518 -2.02656 
2.33841 -2.06618 -2.01873 2.39498 -2.06707 -1.99608 2.45535 -2.05327 -1.95122 
2.51431 -2.04445 -1.89893 2.57516 -2.0289 -1.85407 2.63437 -2.02004 -1.83143 
2.69553 -2.00446 -1.82359 2.75533 -1.99386 -1.81575 2.81896 -1.96872 -1.79311 
2.88197 -1.94519 -1.74825 2.93883 -1.94414 -1.69596 2.99571 -1.94298 -1.64369 
3.05918 -1.91757 -1.59141 3.12552 -1.88069 -1.50951 3.19203 -1.84186 -1.38316 
3.25823 -1.80284 -1.21237 0.538178 1.35414 -2.24652 0.471442 1.33584 -2.24698 
0.409194 1.31904 -2.24741 0.349194 1.30831 -2.24043 0.284698 1.28128 -2.21864 
0.217393 1.24478 -2.16721 0.150428 1.21019 -2.09356 0.0890354 1.1968 -1.9977 
0.0391459 1.22602 -1.89442 -0.00860341 1.26357 -1.77634 0.585254 1.49229 -2.07855 
-0.349786 -0.425076 -2.14585 -0.38946 -0.357325 -2.01294 -0.429412 -0.289498 -1.843 
-0.32624 -0.545493 -2.04912 -0.342423 -0.598815 -1.84913 -0.360525 -0.651835 -1.64915 
3.50083 0.587361 -1.72652 3.54672 0.513146 -1.65937 3.58631 0.444712 -1.6293 
3.3967 0.769994 -1.81656 3.35578 0.84766 -1.7874 3.31627 0.916661 -1.72117 
3.27635 0.982554 -1.6253 3.23383 1.03873 -1.52943 3.18753 1.08011 -1.46319 
3.145 1.13428 -1.43399 3.10261 1.1883 -1.42701 3.05626 1.22769 -1.42002 
3.01122 1.2722 -1.40564 2.9647 1.31163 -1.37644 2.92217 1.36558 -1.35464 
2.87922 1.41775 -1.34025 2.82988 1.44549 -1.35549 2.77755 1.4618 -1.38555 
2.72489 1.4762 -1.43782 2.67223 1.49061 -1.4901 2.61993 1.50679 -1.52756 
2.56997 1.53271 -1.52799 2.52376 1.57329 -1.49878 2.47352 1.59927 -1.46217 
2.42078 1.61558 -1.44038 2.36773 1.63009 -1.4408 2.31482 1.64444 -1.46345 
2.26207 1.65875 -1.50831 2.20935 1.67294 -1.5606 2.1561 1.68539 -1.60546 
2.10006 1.68824 -1.6281 2.03995 1.6765 -1.63594 1.98375 1.67939 -1.63637 
1.93016 1.69193 -1.63679 1.87705 1.70622 -1.63722 1.82397 1.72062 -1.63764 
1.77089 1.73502 -1.63807 1.71782 1.74942 -1.63849 1.66471 1.76371 -1.63892 
1.61112 1.77625 -1.63935 1.55492 1.77915 -1.63977 1.49472 1.76732 -1.6402 
1.43802 1.76834 -1.64062 1.38128 1.76926 -1.64105 1.32058 1.75556 -1.64147 
1.26123 1.74685 -1.6419 1.20005 1.73139 -1.64232 1.14075 1.72266 -1.65016 
1.08021 1.70891 -1.67281 1.02381 1.70975 -1.71767 0.967459 1.71056 -1.76995 
0.90709 1.69678 -1.81482 0.847905 1.68802 -1.83746 0.786723 1.67241 -1.84777 
0.726075 1.66122 -1.85808 0.656242 1.63086 -1.88076 0.497604 1.61888 -1.74612 
0.436126 1.63752 -1.57377 0.384589 1.63306 -1.38648 3.68701 0.400763 -1.45068 
3.74255 0.400054 -1.2947 3.79511 0.387908 -1.15353 -0.51266 -0.226534 -1.44929 
-0.534546 -0.263763 -1.24197 -0.526163 -0.324496 -1.0251 -0.424335 -0.250496 -1.44859 
-0.399154 -0.300494 -1.24088 -0.415439 -0.354535 -1.02422 -0.105209 1.2752 -1.48077 
-0.134198 1.22608 -1.33274 -0.153316 1.17428 -1.21425 -0.180041 1.12454 -1.13287 
-0.222826 1.07916 -1.08124 -0.260401 1.03236 -1.05921 -0.302854 0.986894 -1.05202 
-0.328865 0.936963 -1.05212 -0.345128 0.884387 -1.05213 -0.359635 0.831334 -1.05213 
-0.374036 0.778253 -1.05213 -0.388437 0.725172 -1.05213 -0.402883 0.672062 -1.04225 
-0.417101 0.618226 -1.00275 -0.428913 0.559666 -0.913826 -0.0227744 1.36681 -1.55442 
0.0307258 1.40929 -1.48744 0.0940984 1.44908 -1.45001 0.149786 1.49092 -1.41758 
0.19187 1.53579 -1.36303 0.254936 1.57088 -1.28115 -0.414561 -0.637093 -1.25513 
-0.440447 -0.570554 -1.07768 -0.451016 -0.499207 -0.927896 3.25918 -1.78863 -0.849418 
3.19824 -1.79881 -0.701698 3.13663 -1.81237 -0.583607 3.07923 -1.81126 -0.495145 
3.02197 -1.81009 -0.421503 2.96125 -1.82188 -0.355261 2.90404 -1.82072 -0.289029 
2.84681 -1.81966 -0.222786 2.78558 -1.83332 -0.156544 2.72531 -1.84368 -0.0977113 
[...]
POINT_DATA 730
SCALARS DY_raw double
LOOKUP_TABLE default
130.012 148.819 103.274 132.246 121.285 152.105 138.708 135.041 129.167 
160.856 220.692 89.9115 172.664 125.332 105.804 123.142 101.19 62.4281 
199.997 152.268 94.8493 217.41 98.6722 147.832 129.875 134.984 67.4316 
143.247 181.156 155.16 129.231 90.6409 84.1995 95.7484 102.237 83.5773 
19.4443 87.422 106.774 82.0388 39.1418 187.058 158.784 230.529 144.052 
154.408 146.11 193.302 140.892 118.13 196.889 180.292 113.376 144.089 
220.869 142.175 129.891 102.574 134.214 147.2 169.794 77.7228 214.209 
214.209 183.051 183.051 197.181 226.518 253.538 216.587 173.427 200.593 
213.579 222.397 222.397 215.346 189.545 189.545 159.869 149.374 143.381 
90.2391 105.533 105.396 102.899 95.9793 117.749 139.967 153.859 189.35 
196.834 91.5659 120.385 125.954 153.988 139.402 134.325 147.618 141.995 
135.657 124.384 147.858 146.045 134.03 130.831 129.962 119.682 129.976 
120.325 125.142 116.056 101.815 93.7128 89.8168 108.042 123.211 121.975 
147.232 139.337 148.688 153.34 136.274 144.192 164.198 164.198 180.22 
175.21 175.21 150.727 150.727 133.818 113.926 107.358 103.222 86.4818 
86.4818 110.474 124.441 128.938 138.852 146.108 148.902 138.912 138.912 
138.841 131.492 139.99 128.416 133.034 133.034 141.44 138.905 150.02 
144.935 154.504 152.235 151.441 145.909 155.128 185.113 140.791 160.27 
186.027 174.089 147.961 141.282 153.577 160.773 129.391 144.806 131.193 
117.895 111.82 113.587 106.849 122.433 120.647 130.449 97.0029 102.099 
64.3662 86.1323 161.825 162.938 164.708 191.139 214.728 209.781 170.879 
139.048 139.048 131.897 124.439 124.714 122.422 113.6 114.895 114.075 
142.184 156.234 166.242 159.303 167.273 155.443 149.384 155.198 145.682 
156.006 92.9652 96.0124 90.5955 94.966 94.966 97.983 97.983 103.776 
111.062 122.858 132.413 132.419 171.887 182.032 182.134 182.134 177.56 
177.56 203.682 161.499 161.499 170.398 156.756 190.943 184.015 175.178 
209.912 207.306 191.054 191.054 218.036 218.036 226.831 157.447 196.448 
150.086 149.833 149.833 121.782 100.694 113.02 99.353 127.941 140.867 
136.167 209.302 208.4 211.276 203.727 194.79 207.78 207.389 203.272 
189.817 185.714 223.255 139.576 152.354 147.98 133.749 147.194 159.027 
171.691 152.769 124.136 191.907 168.186 161.811 128.084 163.369 164.715 
174.098 173.177 154.044 154.044 158.463 160.946 184.049 158.74 156.257 
138.181 128.59 108.674 108.674 121.621 136.934 144.037 172.024 172.024 
165.022 146.414 129.785 130.671 123.459 123.459 139.857 130.66 140.185 
144.239 144.239 149.207 168.49 168.49 172.494 162.657 151.672 155.976 
144.949 144.949 142.744 142.744 152.517 154.311 138.648 149.841 180.368 
191.9 196.165 201.6 209.466 209.285 135.113 151.193 156.47 154.765 
165.441 180.586 146.397 164.843 168.901 151.471 166.928 164.949 178.106 
196.845 206.638 206.638 199.728 190.101 214.159 200.466 191.234 162.873 
174.324 186.39 225.737 227.628 283.825 273.304 258.453 234.613 172.021 
179.278 174.865 163.377 186.527 186.51 170.384 151.699 160.746 177.647 
162.117 184.061 161.512 110.249 112.484 85.7273 96.482 108.397 115.701 
102.81 97.1962 106.878 106.878 111.737 113.128 101.375 119.69 128.801 
127.814 137.507 146.866 138.526 131.844 133.586 149.802 152.511 160.67 
160.669 195.097 194.43 107.631 83.2307 107.321 79.7883 97.5918 185.802 
157.841 181.491 146.922 130.056 113.846 110.673 117.914 120.713 152.593 
138.35 87.4128 97.5837 36.2875 35.2895 38.9044 9.01497 0 4.92657 
25.2443 29.9088 37.2884 40.199 49.5047 49.6836 52.831 52.831 60.057 
93.3605 113.012 113.012 133.311 145.436 151.884 141.265 150.29 223.204 
212.475 195.623 176.419 150.467 168.068 201.199 176.85 179.655 196.98 
181.621 182.704 207.506 202.674 202.674 207.964 178.749 192.171 172.504 
184.512 185.654 193.746 207.174 227.581 234.156 227.887 211.814 206.853 
226.074 213.509 213.093 200.619 201.049 171.367 137.328 133.878 133.455 
143.391 86.8339 105.423 119.995 93.3472 102.655 81.0687 66.5892 75.9112 
83.1166 77.2309 81.0557 73.4642 79.8457 86.9017 98.3008 108.101 101.818 
106.869 115.116 116.284 117.449 125.982 138.534 134.249 97.1904 98.5352 
97.2949 79.5322 118.831 61.2488 64.6228 88.3678 96.3878 106.004 113.269 
105.41 116.364 101.638 98.6753 101.553 64.8556 71.0905 60.1604 52.4958 
73.5637 63.4842 58.996 145.779 148.047 132.722 133.688 138.144 135.493 
125.394 125.394 74.7205 60.7191 128.464 141.705 160.488 177.065 173.548 
185.62 189.92 184.025 169.133 147.537 146.123 133.603 116.499 104.125 
107.896 110.707 113.334 115.753 113.201 94.0289 181.156 173.637 122.013 
127.829 119.373 97.8489 105.461 113.05 144.556 136.006 119.685 92.015 
85.4189 85.1728 91.5602 94.096 104.066 115.072 123.428 116.515 116.491 
111.999 130.124 136.51 136.653 99.0287 95.7744 92.3315 97.1268 113.451 
109.658 115.49 128.127 137.412 141.831 148.079 140.935 167.777 174.977 
181.377 174.321 174.321 185.256 203.183 202.814 209.442 216.525 171.176 
148.891 92.8491 186.415 171.265 169.025 169.025 157.954 157.954 147.162 
134.574 180.696 152.514 142.603 141.23 139.337 137.831 153.511 144.533 
172.389 164.819 161.32 159.566 159.062 168.427 136.817 130.752 144.443 
123.402 137.961 155.585 128.309 138.76 139.912 129.406 140.881 124.871 
115.981 115.981 90.8813 83.7528 89.5111 81.6657 88.2801 88.2801 114.494 
114.494 105.16 117.351 94.8687 110.858 123.39 141.647 153.255 156.549 
156.779 175.699 192.015 213.443 161.749 146.716 137.261 143.506 98.2246 
130.485 135.504 165.108 178.581 145.872 154.439 91.2669 116.724 133.519 
131.364 126.657 135.03 135.03 134.545 229.289 224.544 182.45 146.811 
162.712 172.076 175.752 161.491 129.49 133.191 123.644 126.405 141.888 
145.722 138.427 109.766 112.268 122.102 124.68 124.68 97.9379 97.9379 
97.9941 98.5568 98.5568 95.0888 92.5177 141.272 146.737 135.398 120.645 
131.55 152.865 168.793 187.169 173.039 173.039 171.227 169.587 169.587 
177.657 165.259 165.259 145.375 133.391 131.582 118.204 121.727 128.492 
103.274 
FIELD FieldData 7
DY_minmax 1 730 double
0.45807 0.524333 0.363866 0.465943 0.427325 0.53591 0.488709 0.475788 0.455093 
0.566745 0.777563 0.316785 0.608348 0.441581 0.372778 0.433867 0.356521 0.219953 
0.704648 0.536486 0.334183 0.766 0.347652 0.520856 0.457587 0.47559 0.237582 
0.5047 0.638267 0.546673 0.45532 0.319355 0.29666 0.33735 0.360212 0.294468 
0.068508 0.308014 0.376197 0.289047 0.137908 0.659062 0.559443 0.812224 0.507539 
0.544026 0.514789 0.681061 0.496403 0.416207 0.693699 0.635224 0.399459 0.50767 
0.778188 0.500925 0.457644 0.361398 0.472878 0.518628 0.598237 0.273841 0.754722 
0.754722 0.644945 0.644945 0.694728 0.79809 0.893291 0.763102 0.611034 0.706749 
0.752504 0.783571 0.783571 0.75873 0.667825 0.667825 0.563266 0.526288 0.505174 
0.317939 0.371826 0.371341 0.362544 0.338164 0.414867 0.493146 0.542093 0.667135 
0.693505 0.322614 0.424151 0.443773 0.542547 0.491157 0.473269 0.520102 0.500291 
0.477959 0.43824 0.520948 0.51456 0.472226 0.460956 0.457893 0.421674 0.457945 
0.42394 0.440913 0.408901 0.358726 0.330178 0.316451 0.380663 0.434108 0.429753 
0.518741 0.490926 0.523872 0.540263 0.480135 0.508032 0.578519 0.578519 0.63497 
0.617319 0.617319 0.531055 0.531055 0.471481 0.401395 0.378254 0.363682 0.304701 
0.304701 0.389234 0.438442 0.454288 0.489218 0.514781 0.524626 0.489427 0.489427 
0.489177 0.463284 0.493226 0.452449 0.46872 0.46872 0.498336 0.489404 0.528564 
0.510648 0.544364 0.536369 0.533573 0.514082 0.546561 0.65221 0.496048 0.564679 
0.655429 0.613369 0.521311 0.497779 0.541098 0.56645 0.455884 0.510196 0.462231 
0.41538 0.393977 0.400201 0.37646 0.431368 0.425077 0.45961 0.34177 0.359725 
0.226781 0.30347 0.570158 0.574079 0.580314 0.673438 0.756552 0.73912 0.602057 
0.489909 0.489909 0.464714 0.438437 0.439404 0.431328 0.400245 0.404809 0.40192 
0.500956 0.550459 0.585719 0.561272 0.589354 0.547672 0.526323 0.546808 0.51328 
0.549654 0.327544 0.33828 0.319195 0.334594 0.334594 0.345223 0.345223 0.365632 
0.391303 0.432866 0.466532 0.466551 0.605609 0.641352 0.641713 0.641713 0.625596 
0.625596 0.717634 0.569008 0.569008 0.600363 0.552297 0.672748 0.648341 0.617204 
0.739582 0.730401 0.67314 0.67314 0.768205 0.768205 0.799192 0.554734 0.692144 
0.528798 0.527905 0.527905 0.429076 0.354776 0.398205 0.35005 0.450774 0.496315 
0.479757 0.737432 0.734257 0.744389 0.71779 0.686305 0.73207 0.730694 0.716188 
0.668782 0.654326 0.786595 0.491768 0.536788 0.521378 0.471237 0.518609 0.560301 
0.60492 0.538251 0.437367 0.676145 0.59257 0.570108 0.451278 0.575597 0.580341 
0.613401 0.610153 0.542743 0.542743 0.558312 0.567061 0.648459 0.559288 0.55054 
0.486853 0.453059 0.38289 0.38289 0.428505 0.482458 0.507487 0.606091 0.606091 
0.581423 0.51586 0.457271 0.460393 0.434984 0.434984 0.492757 0.460355 0.493915 
0.508196 0.508196 0.525703 0.593639 0.593639 0.607748 0.573089 0.534387 0.549551 
0.510697 0.510697 0.502928 0.502928 0.537364 0.543682 0.488499 0.527933 0.635491 
0.676122 0.691149 0.710296 0.738012 0.737374 0.476043 0.532698 0.551292 0.545284 
0.582897 0.636257 0.515801 0.58079 0.595088 0.533678 0.588138 0.581164 0.627519 
0.693545 0.728047 0.728047 0.7037 0.669783 0.754546 0.706301 0.673773 0.573852 
0.614195 0.656709 0.795338 0.802002 1 0.96293 0.910607 0.826613 0.606082 
0.63165 0.616101 0.575627 0.657191 0.657131 0.600312 0.534481 0.566355 0.625905 
0.571186 0.648501 0.569055 0.38844 0.396316 0.302043 0.339935 0.381916 0.40765 
0.362229 0.342451 0.376563 0.376563 0.393681 0.398584 0.357175 0.421705 0.453804 
0.450327 0.484477 0.517454 0.488068 0.464527 0.470663 0.527797 0.53734 0.566087 
0.566085 0.687387 0.685034 0.379217 0.293247 0.378125 0.281118 0.343845 0.654636 
0.55612 0.639447 0.517649 0.458225 0.401112 0.389934 0.415448 0.425307 0.537629 
0.487447 0.307982 0.343817 0.127852 0.124335 0.137072 0.0317624 0 0.0173578 
0.0889431 0.105378 0.131378 0.141633 0.17442 0.17505 0.186139 0.186139 0.211599 
0.328937 0.398176 0.398176 0.469696 0.512415 0.535133 0.497721 0.529517 0.786416 
0.748614 0.68924 0.621576 0.530142 0.592152 0.708883 0.623096 0.632978 0.694019 
0.639904 0.643719 0.731104 0.714081 0.714081 0.732721 0.629785 0.677077 0.607785 
0.650091 0.654116 0.682625 0.729937 0.801837 0.825 0.802915 0.746284 0.728806 
0.796526 0.752256 0.750792 0.706841 0.708357 0.603776 0.483847 0.471691 0.4702 
0.50521 0.305942 0.371437 0.422779 0.32889 0.361684 0.285629 0.234614 0.267458 
0.292845 0.272107 0.285584 0.258836 0.28132 0.306181 0.346343 0.380874 0.358736 
0.376532 0.405588 0.409704 0.413808 0.443873 0.488096 0.473 0.342431 0.347169 
0.342799 0.280216 0.418678 0.215798 0.227686 0.311346 0.339603 0.373485 0.399081 
0.37139 0.409987 0.358103 0.347663 0.357801 0.228506 0.250473 0.211963 0.184958 
0.259187 0.223674 0.207861 0.513624 0.521612 0.467619 0.471022 0.486724 0.477381 
0.441802 0.441802 0.263263 0.213931 0.452617 0.499269 0.565447 0.623852 0.611463 
0.653995 0.669145 0.648374 0.595906 0.519819 0.514834 0.470722 0.410459 0.366864 
0.38015 0.390053 0.399309 0.407833 0.39884 0.331292 0.638267 0.611775 0.429887 
0.450381 0.420586 0.344751 0.371571 0.39831 0.509315 0.479191 0.421686 0.324196 
0.300956 0.300089 0.322594 0.331528 0.366657 0.405433 0.434873 0.410517 0.410434 
0.394607 0.458465 0.480966 0.48147 0.348908 0.337442 0.325311 0.342207 0.399722 
0.386359 0.406904 0.45143 0.484142 0.499712 0.521728 0.496555 0.591128 0.616498 
0.639045 0.614184 0.614184 0.652711 0.715875 0.714576 0.737927 0.762881 0.603104 
0.524588 0.327135 0.656794 0.603417 0.595524 0.595524 0.55652 0.55652 0.518495 
0.474146 0.636647 0.537354 0.502434 0.497595 0.490926 0.485619 0.540866 0.509233 
0.607379 0.580708 0.568378 0.562198 0.560425 0.593417 0.482046 0.460679 0.508915 
0.434781 0.486079 0.548171 0.452069 0.488894 0.492952 0.455937 0.496365 0.439957 
0.408636 0.408636 0.320202 0.295086 0.315375 0.287733 0.311037 0.311037 0.403397 
0.403397 0.370508 0.413461 0.334251 0.390584 0.434741 0.499065 0.539963 0.551568 
0.552379 0.619042 0.676527 0.752023 0.569891 0.516923 0.483611 0.505614 0.346074 
0.459736 0.477422 0.581725 0.629195 0.51395 0.544136 0.32156 0.411254 0.470428 
0.462835 0.44625 0.47575 0.47575 0.474044 0.807853 0.791135 0.642827 0.51726 
0.573281 0.606274 0.619228 0.568983 0.456233 0.469271 0.435633 0.445362 0.499914 
0.513423 0.487718 0.386737 0.395554 0.430201 0.439285 0.439285 0.345064 0.345064 
0.345263 0.347245 0.347245 0.335026 0.325967 0.497743 0.516999 0.477049 0.425068 
0.463489 0.53859 0.594708 0.659452 0.609669 0.609669 0.603285 0.597506 0.597506 
0.625938 0.582256 0.582256 0.512199 0.469977 0.463602 0.41647 0.428881 0.452717 
0.363866 
WidthEq 1 730 double
2.82359 1.84546 2.42161 2.9802 2.09333 2.63227 3.18598 2.76036 3.62439 
2.9775 3.11602 3.99738 3.19284 2.62934 4.18615 3.47232 3.27603 2.04571 
4.81573 4.13396 3.66782 1 2.88328 4.32403 4.35074 3.17548 1.19113 
2.86876 2.09168 1.28945 2.32963 2.11902 2.19182 3.03911 2.3915 2.1732 
1.74447 2.94182 3.84785 2.94032 1.88111 5.91687 5.36705 4.87721 3.12755 
3.46989 5.59852 5.7018 6.00505 5.39661 4.29039 3.63687 4.31307 4.90383 
4.35285 4.83397 3.04071 4.39635 5.20734 4.01061 3.51072 2.28504 2.09678 
2.09678 3.23171 3.23171 3.47376 3.5467 3.28743 3.46202 3.537 3.33157 
3.33464 3.2531 3.2531 3.18626 3.40541 3.40541 3.56436 3.41827 3.21884 
3.30611 3.77785 4.34742 4.44747 3.11098 3.64214 3.92157 3.85794 3.62942 
3.44179 3.99472 3.98963 3.78051 3.6506 3.62504 3.69655 3.816 4.01394 
4.02914 3.84794 3.82171 4.31018 4.2607 4.69278 4.65268 4.75754 4.82842 
4.96889 5.19249 4.02451 3.67401 3.78411 4.25255 4.33944 5.27389 5.09778 
4.28502 4.45373 3.87913 3.19114 3.35126 3.0467 2.92744 2.92744 2.8433 
2.90171 2.90171 3.33657 3.33657 3.72125 4.48406 4.60739 4.72768 5.31349 
5.31349 5.23479 5.18673 5.08205 5.06185 4.54254 4.51002 4.31699 4.31699 
4.36407 4.31731 4.16923 4.69193 4.73765 4.73765 4.77205 4.78269 4.73211 
5.04282 5.09171 5.14993 5.17857 5.13874 4.96339 4.70436 4.43786 4.21782 
3.61265 3.32467 3.45571 3.7595 4.19021 4.15226 2.98096 3.16892 3.18493 
3.31472 3.56062 3.47856 4.31601 4.3721 4.68439 4.80181 3.10341 2.99827 
3.46704 4.11541 4.4765 4.05787 3.85313 3.33412 3.12171 3.02902 3.18319 
3.27188 3.27188 3.23714 3.29912 3.30284 3.68227 3.93602 4.17991 4.30638 
4.75715 4.4795 4.14024 4.01649 3.8855 4.02006 3.75797 3.96191 4.48457 
4.47773 4.74371 4.62534 4.57219 4.31459 4.31459 4.09367 4.09367 3.89812 
3.27791 3.1201 2.63636 2.57456 2.44876 2.26653 2.21035 2.21035 2.16829 
2.16829 2.12129 2.60107 2.60107 2.51405 2.53292 2.35935 2.61136 2.72306 
2.52349 2.65168 2.71604 2.71604 2.60274 2.60274 2.50407 3.06903 2.6968 
3.51105 3.76647 3.76647 4.01511 4.02625 3.94955 3.87236 3.68732 3.7407 
3.69803 4.19624 3.888 3.93802 3.95005 4.40715 4.34041 4.75497 5.36768 
5.50593 5.95211 4.13079 5.16242 5.5339 5.61427 4.69223 4.97941 5.1571 
3.92623 4.46432 5.08283 3.01391 2.54534 2.29811 2.7514 2.69813 3.12558 
2.9423 3.14771 3.28172 3.28172 3.21678 3.4537 3.12189 3.31926 3.24478 
3.40944 3.1564 3.10949 3.10949 3.09068 3.00912 3.02269 2.7913 2.7913 
2.91349 3.41873 3.54047 3.52098 3.52043 3.52043 3.40942 3.57936 3.4672 
3.355 3.355 3.26016 3.0539 3.0539 2.87245 2.80437 3.16122 2.91051 
3.18458 3.18458 3.43028 3.43028 3.44053 3.72683 3.67693 4.1689 3.8285 
4.10468 4.20844 4.27317 4.02814 4.16178 4.39003 3.94767 3.42794 6.35459 
6.15447 5.49407 6.55853 6.1057 5.84332 6.90389 6.8215 6.3182 5.93356 
5.66623 5.01239 5.01239 4.94919 4.92917 4.61344 4.743 4.88345 5.19686 
5.32727 5.55834 5.41853 5.68708 4.0186 4.3313 4.30395 4.61607 5.29464 
5.19946 5.41259 3.47931 2.8769 2.60109 2.64298 2.37444 2.34936 2.14053 
2.14271 2.09572 2.21104 2.29671 2.39277 2.57701 2.75181 2.80348 2.91483 
2.92735 2.9924 3.12067 3.12067 3.24952 3.57736 3.66865 4.03533 4.04469 
4.08124 4.20241 3.55384 3.39547 3.35085 3.39736 3.20263 2.99868 2.92663 
2.34974 2.13924 1.81865 1.79762 1.92693 2.36813 3.01836 3.22742 2.44324 
2.20824 2.12936 2.40911 2.3959 2.70762 3.15642 3.26296 3.34679 2.8428 
2.62111 2.35766 2.20365 1.65456 1.38257 1.21889 1.20466 1.2806 1.25036 
1.45419 1.42667 1.56269 1.64158 1.61197 1.66614 1.79648 1.79648 1.88088 
2.04883 2.15667 2.15667 2.2782 2.45427 2.44575 2.54273 2.67882 4.82818 
4.49854 4.71656 4.41988 4.15618 3.62348 3.21916 3.27904 3.11224 2.88375 
2.77992 2.67805 2.60735 2.30597 2.30597 2.07612 1.76818 1.68084 1.56205 
6.23558 6.31194 6.17277 5.76187 5.13658 4.54027 4.5523 4.81399 4.28893 
3.94123 4.59541 4.61262 5.47809 5.13147 5.31299 5.68487 5.79134 5.41083 
4.7286 1.77281 1.8809 2.14809 2.85151 2.85539 2.87818 3.13609 3.34127 
3.65799 2.70552 2.38503 2.243 2.47302 2.57417 2.86183 2.77711 2.73959 
3.71829 3.52653 3.23423 3.20148 2.90978 2.85475 2.94661 3.04413 2.93306 
2.74773 2.1292 2.39701 2.40788 2.6373 2.91554 2.77442 2.34981 2.24245 
2.2644 2.60879 2.85551 3.02558 3.3298 2.5492 2.45954 2.23885 2.00111 
2.22814 2.31081 2.11794 2.82015 2.61485 2.55798 2.44764 2.31367 2.20189 
2.02521 2.02521 1.70542 1.37584 3.08717 3.06009 3.12148 2.81496 3.22838 
3.17541 3.2828 3.42584 3.46544 4.5566 4.57725 4.50762 4.36451 4.10679 
3.8969 3.72488 3.68681 3.67956 3.93964 4.28081 2.09168 2.5896 3.73806 
3.6102 3.72949 4.31757 4.13213 4.17106 2.27738 2.11358 2.21907 2.09966 
2.07518 2.13073 1.98143 1.91177 1.94587 1.96277 1.86166 1.90748 2.01886 
2.2377 2.8977 2.63805 2.51249 2.72446 2.75491 2.878 2.99598 2.91896 
2.95883 2.90347 4.49 4.53433 4.21637 3.59874 3.24916 2.91375 2.4314 
2.14504 2.34321 2.34321 2.51641 2.75855 2.87958 2.98894 3.131 4.00121 
3.41384 3.19357 1.03517 1.28187 1.39968 1.39968 2.02103 2.02103 2.54468 
3.43185 4.94133 5.15433 4.96896 4.51527 4.3163 4.223 3.89046 3.9355 
3.84258 3.6955 3.48302 3.26624 3.24005 3.05617 3.1301 2.99658 2.98804 
3.09194 2.90299 2.85966 2.91703 2.65443 2.70356 2.82822 2.74133 2.86624 
2.66931 2.66931 2.58997 2.52016 2.37825 2.48513 2.47508 2.47508 2.44502 
2.44502 2.53463 3.08043 3.10735 3.18796 2.89788 2.37894 2.40645 2.43253 
2.62331 2.8345 2.99341 3.07248 3.25578 3.544 3.33744 3.05284 4.04675 
3.4742 3.19215 3.16926 2.82617 2.83886 2.57745 3.81814 3.42474 3.21871 
3.20659 3.09545 2.97727 2.97727 2.89033 3.02313 2.89877 2.92551 2.63072 
2.67068 2.85683 2.97424 3.0954 3.34867 3.39708 3.38206 3.32519 3.33932 
3.44072 3.59562 2.71205 2.56431 2.31938 2.16827 2.16827 2.36201 2.36201 
2.41657 2.47167 2.47167 2.52143 2.63193 2.7159 2.78341 3.02042 3.20967 
3.04349 2.84296 2.90841 2.62581 2.8816 2.8816 2.98983 3.15484 3.15484 
3.15147 3.24267 3.24267 3.02549 3.13971 2.67332 2.96012 2.67894 2.03716 
2.42161 
rRFP 1 730 double
3861.59 3310.02 3634.91 3949.9 3449.79 3753.7 4065.94 3825.93 4313.16 
3948.38 4026.49 4523.49 4069.81 3752.05 4629.94 4227.41 4116.72 3422.94 
4984.96 4600.51 4337.65 2833.26 3895.25 4707.69 4722.75 4060.02 2941.04 
3887.06 3448.86 2996.48 3583.04 3464.28 3505.33 3983.12 3617.93 3494.83 
3253.07 3928.26 4439.17 3927.41 3330.12 5605.9 5295.85 5019.63 4032.99 
4226.04 5426.38 5484.62 5655.62 5312.52 4688.72 4320.2 4701.51 5034.64 
4723.94 4995.25 3984.02 4748.47 5205.79 4530.95 4249.06 3557.9 3451.74 
3451.74 4091.73 4091.73 4228.22 4269.35 4123.15 4221.6 4263.88 4148.04 
4149.77 4103.79 4103.79 4066.1 4189.68 4189.68 4279.31 4196.93 4084.47 
4133.68 4399.7 4720.88 4777.3 4023.65 4323.17 4480.74 4444.86 4316 
4210.19 4521.99 4519.12 4401.2 4327.94 4313.53 4353.85 4421.21 4532.83 
4541.4 4439.22 4424.43 4699.88 4671.98 4915.63 4893.02 4952.15 4992.12 
5071.33 5197.42 4538.79 4341.14 4403.23 4667.38 4716.38 5243.32 5144.01 
4685.69 4780.83 4456.81 4068.85 4159.14 3987.4 3920.15 3920.15 3872.7 
3905.64 3905.64 4150.86 4150.86 4367.78 4797.93 4867.48 4935.31 5265.65 
5265.65 5221.27 5194.17 5135.14 5123.75 4830.91 4812.57 4703.72 4703.72 
4730.27 4703.9 4620.4 4915.15 4940.93 4940.93 4960.33 4966.33 4937.81 
5113.02 5140.59 5173.42 5189.57 5167.11 5068.23 4922.16 4771.88 4647.8 
4306.54 4144.15 4218.04 4389.35 4632.23 4610.83 3950.33 4056.32 4065.35 
4138.54 4277.2 4230.93 4703.17 4734.8 4910.9 4977.11 4019.38 3960.09 
4224.43 4590.05 4793.67 4557.6 4442.15 4149.48 4029.7 3977.43 4064.37 
4114.38 4114.38 4094.79 4129.74 4131.84 4345.8 4488.89 4626.42 4697.74 