# vtk DataFile Version 3.0
vtk output
ASCII
DATASET POLYDATA
POINTS 735 float
0.98237 1.73647 0.287775 0.375352 1.49855 1.08032 0.947468 1.54271 1.05892 
1.01979 1.87958 0.0125004 1.16135 1.85563 0.0723901 1.56753 1.58556 0.620591 
0.244746 1.12474 1.34057 2.24333 1.43096 0.98177 0.616727 1.56528 0.132397 
1.63973 1.56464 -0.223524 0.878979 1.57469 -0.281682 0.538589 1.4712 -0.124605 
0.0517183 0.430516 1.48554 0.76883 1.44576 -0.476956 2.67297 0.714202 1.09389 
-0.263613 0.935902 -0.0587965 -0.331734 0.282958 1.15436 2.10185 -0.109657 1.79449 
2.43346 0.96967 -0.258214 -0.418587 0.223908 0.830949 2.72908 0.059423 1.01165 
-0.39896 -0.244615 1.00128 2.87675 0.196736 0.809364 -0.552638 -0.162662 0.690168 
-0.0790649 -0.907118 1.4955 1.14409 0.78535 -1.32498 2.14765 0.675979 -1.01332 
2.46979 0.471642 -0.879958 1.62051 -0.966486 2.00033 2.22174 0.569565 -1.231 
0.0549036 -1.0774 1.61584 0.994437 -1.25648 2.05097 1.81091 -1.21339 2.05767 
2.89586 -0.041067 -0.442119 0.448773 -1.81163 1.72797 1.20167 -1.42569 1.96488 
2.92897 -0.373198 -0.383796 -0.0277511 -1.45253 1.45917 -0.541875 -1.0331 -0.44098 
2.08547 -1.74283 1.80309 1.66167 -1.89262 2.03779 1.69746 -0.218378 -1.65378 
2.71704 -0.627956 -1.06227 0.854799 -0.527601 -1.87334 0.134147 -2.30957 1.23888 
0.00667423 -1.02694 -1.54946 0.849506 -1.22895 -1.87189 1.67547 -0.800588 -1.6999 
-0.526928 -1.59585 -0.448794 2.615 -0.97967 -1.26478 2.21301 -1.02568 -1.64624 
2.03102 -1.07543 -1.57269 -0.0697191 -1.83738 -1.222 2.88239 -2.16458 -0.287114 
0.182289 -2.79173 0.730239 1.1112 -2.9467 1.40215 1.37494 -2.97118 1.4761 
0.446023 -1.49843 -1.80042 2.73426 -1.84745 -1.18654 1.90959 -1.73923 -1.61844 
2.97806 -2.00053 -1.01587 2.65941 -2.45263 -0.544497 0.597103 -3.16829 0.912408 
0.88664 -1.94195 -1.77335 1.42419 -1.83154 -1.92229 1.40736 -1.90923 -1.77887 
3.35466 -2.17826 -1.06794 0.695329 -2.14441 -1.83987 1.06186 -2.14601 -1.79771 
3.74217 -2.41651 -1.27103 3.4869 -2.35492 -1.14811 3.90299 -2.61429 -0.97261 
1.07869 -2.40382 -1.73854 0.186451 -2.79653 -1.09985 0.501624 -3.10935 -0.622986 
3.52226 -2.71428 -1.03865 4.63187 -2.74512 -1.2319 1.09053 -3.02323 -1.00403 
0.236176 -3.24113 -0.688038 1.382 -3.49975 -0.443819 4.83491 -2.78406 -1.47544 
1.46214 -3.56255 -0.380765 3.77064 -2.83884 -1.91128 3.89958 -2.92106 -1.74383 
4.27618 -3.09879 -1.79589 4.31072 -3.83604 -1.26318 4.24478 -3.67766 -1.22038 
4.19496 -3.54871 -1.19944 4.14427 -3.4596 -1.19848 4.11066 -3.3865 -1.21292 
4.08477 -3.28418 -1.21565 4.05394 -3.12052 -1.18419 3.99995 -2.88583 -1.10193 
4.2028 -3.02902 -1.79264 4.13395 -2.9708 -1.78303 4.07536 -2.93712 -1.75792 
4.02141 -2.92725 -1.73496 3.96472 -2.92622 -1.72722 3.87829 -2.89807 -1.78907 
3.84775 -2.87714 -1.83146 3.80298 -2.85937 -1.86945 3.83366 -2.66901 -1.51644 
4.73803 -2.81241 -1.33849 4.79883 -2.82177 -1.41668 1.43162 -3.53311 -0.423326 
1.32022 -3.46961 -0.412415 1.25777 -3.43171 -0.379856 1.18958 -3.39359 -0.379811 
1.12129 -3.38211 -0.408558 1.06355 -3.40031 -0.459302 1.02069 -3.42838 -0.521504 
0.963281 -3.45306 -0.575831 0.895423 -3.46025 -0.616802 0.824745 -3.44825 -0.646779 
0.752545 -3.41235 -0.66395 0.677657 -3.34369 -0.664018 0.59572 -3.23939 -0.647624 
3.6074 -2.6999 -0.988299 3.67815 -2.68626 -0.95643 3.73706 -2.66767 -0.95346 
3.80527 -2.64375 -0.962051 0.30153 -3.16953 -0.615723 0.365559 -3.12497 -0.571624 
0.428512 -3.10908 -0.578907 1.146 -3.07136 -1.04963 1.20458 -3.11718 -1.08351 
1.26779 -3.15645 -1.09769 1.32523 -3.17052 -1.11241 1.38261 -3.17238 -1.11854 
1.44809 -3.17188 -1.09674 1.51631 -3.16255 -1.05973 1.57993 -3.12944 -1.02049 
1.63436 -3.07915 -0.998606 1.68912 -3.03534 -0.980309 1.75318 -3.02098 -0.953146 
1.81761 -3.01313 -0.92947 1.87349 -2.9889 -0.921642 1.92857 -2.95168 -0.906707 
1.99117 -2.93206 -0.873796 2.05001 -2.94555 -0.84229 2.09521 -2.98104 -0.818303 
2.14715 -2.99834 -0.811859 2.19525 -2.96728 -0.817616 2.25104 -2.92486 -0.796599 
2.30796 -2.88365 -0.773202 2.36805 -2.85842 -0.751049 2.42195 -2.81823 -0.738668 
2.47382 -2.73795 -0.713361 2.54419 -2.60933 -0.650679 4.53748 -2.6671 -1.09695 
4.47596 -2.5856 -0.980706 4.41841 -2.52043 -0.920025 4.35524 -2.47229 -0.898835 
4.29787 -2.45831 -0.883934 4.24122 -2.45732 -0.876102 4.18021 -2.45715 -0.882945 
4.12413 -2.46811 -0.881544 4.06702 -2.49517 -0.889477 3.99476 -2.54239 -0.926861 
3.45398 -2.57409 -0.878231 3.38764 -2.44016 -0.774034 3.31884 -2.32105 -0.715758 
3.25269 -2.22151 -0.667817 3.18182 -2.10332 -0.629032 3.11911 -1.9584 -0.59216 
3.08928 -1.78542 -0.557047 3.08461 -1.60679 -0.529819 3.067 -1.45086 -0.508711 
3.03242 -1.32513 -0.495853 2.98517 -1.22864 -0.492578 2.96168 -1.13347 -0.500026 
2.96077 -1.01564 -0.505495 2.94639 -0.854243 -0.483777 2.92932 -0.636411 -0.43682 
3.51831 -2.66551 -1.10926 3.52315 -2.59241 -1.15105 3.51046 -2.48534 -1.15862 
0.532301 -3.05287 -0.704301 0.54289 -3.01813 -0.768113 0.520725 -2.99244 -0.813246 
0.507575 -2.95879 -0.856575 0.482259 -2.91688 -0.890455 0.476081 -2.87732 -0.933628 
0.452707 -2.84819 -0.974855 0.396681 -2.83293 -1.00936 0.32791 -2.82051 -1.03993 
0.257232 -2.80851 -1.06991 0.158862 -2.62961 -1.06891 0.133241 -2.49528 -1.05545 
0.111931 -2.40623 -1.06694 0.101821 -2.34772 -1.09877 0.105877 -2.28606 -1.13498 
0.0940896 -2.2014 -1.153 0.0682268 -2.09157 -1.15665 0.0203276 -1.96863 -1.17145 
0.147754 -2.72615 -0.983983 0.106693 -2.67113 -0.886823 0.0621535 -2.64228 -0.819743 
0.0238055 -2.63289 -0.747039 -0.00857475 -2.64043 -0.673517 -0.0308752 -2.64664 -0.601397 
-0.0365235 -2.66242 -0.541073 -0.0465277 -2.68577 -0.482774 -0.0495239 -2.71417 -0.430017 
-0.0576219 -2.73709 -0.372307 -0.0507007 -2.74346 -0.312495 -0.0371606 -2.72854 -0.244605 
-0.0317314 -2.70882 -0.170828 -0.0416936 -2.69913 -0.0956717 -0.0460787 -2.70141 -0.0289866 
-0.0553979 -2.70479 0.0392235 -0.0512961 -2.69197 0.110031 -0.0474745 -2.6726 0.184306 
-0.0557264 -2.66254 0.258933 -0.0485995 -2.66886 0.318683 -0.0313917 -2.68615 0.368568 
-0.0120073 -2.70957 0.414404 0.0088077 -2.72606 0.463175 0.0385854 -2.73395 0.512545 
0.0820851 -2.73001 0.562239 0.112862 -2.73616 0.613711 0.141252 -2.75563 0.668842 
1.05795 -2.32125 -1.75358 1.04817 -2.23625 -1.77202 3.85898 -2.53564 -1.04243 
3.83731 -2.48179 -1.09821 3.81742 -2.44682 -1.17029 2.62233 -2.50476 -0.696303 
2.62128 -2.53743 -0.805146 2.62596 -2.53871 -0.877701 2.64661 -2.50762 -0.936748 
2.67379 -2.45403 -0.986861 2.69042 -2.38296 -1.02359 2.68147 -2.31097 -1.04902 
2.66185 -2.24798 -1.07454 2.64298 -2.1958 -1.10595 2.63659 -2.12732 -1.13508 
2.66672 -2.01128 -1.16007 3.41688 -2.26491 -1.11943 3.5272 -2.29544 -1.17834 
3.60457 -2.31713 -1.21797 1.10139 -2.05951 -1.79796 1.15944 -2.01968 -1.77186 
1.2228 -2.00437 -1.74654 1.27933 -1.98516 -1.74495 1.33733 -1.95113 -1.75519 
0.979037 -2.04156 -1.78168 0.749336 -2.07956 -1.81381 0.814001 -2.01714 -1.78208 
1.49414 -1.92316 -1.74355 1.56659 -1.93098 -1.72121 1.62734 -1.92993 -1.71667 
1.68552 -1.92663 -1.71661 1.73549 -1.90739 -1.73151 1.79213 -1.878 -1.71751 
1.84861 -1.81805 -1.68203 1.4275 -1.86387 -1.86149 0.880947 -1.83012 -1.81135 
0.891938 -1.68914 -1.82738 0.891203 -1.48924 -1.83554 0.577616 -3.1449 0.866603 
0.556325 -3.12191 0.821356 0.523989 -3.10138 0.779524 0.468066 -3.0861 0.744985 
0.409763 -3.06252 0.715645 0.360873 -3.0101 0.696286 0.286506 -2.91732 0.703601 
2.79849 -2.28303 -0.392271 2.95642 -1.97535 -1.06002 2.92126 -1.94526 -1.09904 
2.84726 -1.90487 -1.13528 2.62597 -1.88599 -1.19421 2.55025 -1.91097 -1.20278 
2.48197 -1.9136 -1.22613 2.41378 -1.90424 -1.25614 2.35599 -1.88943 -1.29 
2.32175 -1.86933 -1.33124 2.28921 -1.84884 -1.37301 2.24253 -1.8315 -1.41041 
2.19895 -1.81347 -1.44876 2.13951 -1.79897 -1.48222 2.07234 -1.78619 -1.51328 
2.0128 -1.77172 -1.5467 1.96742 -1.75409 -1.5845 1.93375 -1.55518 -1.59827 
1.96229 -1.38769 -1.57811 1.99785 -1.23557 -1.55991 2.92095 -2.13811 -0.211389 
2.95358 -2.15919 -0.163794 2.95865 -2.19286 -0.116037 2.96508 -2.18946 -0.0509625 
2.96635 -2.15744 0.0308475 2.94292 -2.11112 0.130414 2.91089 -2.07992 0.225897 
2.88761 -2.06659 0.308546 2.88159 -2.07584 0.372361 2.87111 -2.09268 0.434183 
2.86509 -2.10194 0.497998 2.84171 -2.08863 0.580678 2.80777 -2.05785 0.676751 
2.77139 -2.01441 0.780322 2.73561 -1.98398 0.876861 2.69993 -1.96583 0.9649 
2.66148 -1.95648 1.03763 2.61694 -1.92762 1.10471 2.57659 -1.8856 1.1948 
2.53799 -1.82748 1.30218 2.49648 -1.76585 1.40264 2.45052 -1.72312 1.47509 
2.40824 -1.71521 1.5344 2.36638 -1.74424 1.56846 2.3312 -1.7935 1.60961 
2.29928 -1.85276 1.65407 2.26265 -1.8881 1.70048 2.21433 -1.88504 1.73678 
2.15542 -1.83275 1.77424 2.71154 -1.70834 -1.24985 2.6878 -1.58837 -1.27223 
2.66339 -1.47408 -1.2736 2.63827 -1.34835 -1.26497 2.61483 -1.22014 -1.25555 
2.6028 -1.096 -1.25305 0.055685 -1.80675 -1.26585 0.128731 -1.78286 -1.30269 
0.169995 -1.75956 -1.35755 0.204727 -1.74592 -1.42651 0.243216 -1.75532 -1.49915 
0.287045 -1.77118 -1.55917 0.325061 -1.76179 -1.61982 0.360839 -1.71327 -1.65953 
0.400089 -1.65086 -1.67763 0.432159 -1.58237 -1.7079 0.45078 -1.53165 -1.75354 
0.37498 -1.40113 -1.76979 0.308838 -1.29152 -1.71444 0.244636 -1.17818 -1.65014 
0.192579 -1.1038 -1.5746 0.136926 -1.0676 -1.53818 0.0702713 -1.04239 -1.54525 
0.478829 -1.38559 -1.80344 0.521611 -1.30302 -1.79598 0.57032 -1.25208 -1.79296 
0.625276 -1.22261 -1.80025 0.708495 -1.21856 -1.82645 1.34063 -2.95114 1.43498 
1.28352 -2.93715 1.40273 1.21957 -2.9307 1.38383 1.16335 -2.93617 1.38805 
0.155513 -2.60772 0.918005 0.157939 -2.44139 1.07903 -0.241562 -1.64283 -1.05371 
-0.341132 -1.4772 -0.925847 -0.403923 -1.34027 -0.811164 -0.463257 -1.19716 -0.652645 
1.94542 -1.0602 -1.61031 1.87947 -1.03822 -1.64271 1.83209 -1.00088 -1.67041 
1.77208 -0.946851 -1.68348 1.71307 -0.879407 -1.69007 2.11099 -1.06375 -1.58598 
2.16466 -1.04271 -1.61958 2.22182 -0.883681 -1.64342 2.19855 -0.76204 -1.63744 
2.14987 -0.67248 -1.6371 2.10559 -0.608366 -1.65161 2.05573 -0.565364 -1.67443 
2.01125 -0.522084 -1.69719 1.95334 -0.469181 -1.69745 1.88855 -0.404973 -1.67239 
[...]
POINT_DATA 735
SCALARS DY_raw double
LOOKUP_TABLE default
111.999 177.579 179.691 234.762 262.306 175.697 350.917 255.599 287.808 
172.598 186.973 239.771 168.622 154.487 214.371 255.075 212.131 83.8917 
173.574 184.913 160.6 172.348 159.407 196.02 151.349 191.134 171.573 
214.834 123.158 182.975 161.631 113.152 188.702 173.837 149.103 138.584 
182.507 139.353 138.855 157.631 100.803 149.814 165.475 258.785 93.6998 
187.306 133.545 133.715 60.9487 225.854 165.075 182.856 129.763 132.141 
136.104 97.2195 73.8527 133.646 145.093 176.02 152.319 127.226 65.114 
139.183 208.436 228.073 125.504 87.0168 103.271 168.2 116.56 110.307 
56.8797 79.6808 107.403 97.7581 194.462 100.824 68.7573 92.8053 379.144 
81.3874 130.557 92.3774 104.448 84.8659 77.0848 68.8094 84.4657 90.7694 
102.272 110.863 120.594 103.165 94.1558 104.425 100.229 83.5771 86.6245 
106.611 130.557 128.528 214.253 256.32 92.8053 93.4693 89.8263 114.996 
123.525 97.8618 90.5423 91.677 94.1807 113.935 163.342 149.926 129.792 
104.67 100.989 105.513 101.704 79.1733 93.5556 102.903 101.635 99.4288 
90.0086 88.2034 98.4139 89.279 89.6577 85.3381 104.78 131.355 104.321 
122.293 149.358 136.724 118.226 122.246 102.506 93.9033 94.1487 99.1116 
93.3948 90.8828 99.4508 98.5281 120.456 169.958 156.075 152.54 156.206 
151.251 151.251 137.037 114.69 104.691 96.2289 95.3812 111.02 115.073 
127.626 167.177 174.245 149.26 160.793 164.333 169.646 149.291 151.175 
167.897 190.536 174.191 111.424 110.916 110.787 107.24 117.672 121.083 
139.251 150.304 151.955 143.543 124.99 90.6901 92.6326 116.88 161.906 
200.397 156.136 156.136 110.66 109.756 115.458 96.5213 108.34 106.09 
125.258 150.147 160.382 152.083 166.929 184.703 189.251 189.251 159.394 
172.589 166.733 125.009 138.334 125.259 122.288 131.754 118.375 119.983 
119.983 118.64 118.64 127.052 124.687 139.635 62.8746 71.5097 134.41 
151.927 161.821 138.527 140.519 148.326 135.869 140.122 145.805 138.447 
139.203 138.922 141.217 128.678 127.52 147.057 154.235 111.605 127.151 
158.814 192.823 214.877 119.652 98.0913 108.89 191.688 149.25 126.719 
137.629 137.629 150.542 168.749 249.021 155.111 165.472 151.711 82.3027 
82.3027 89.9347 102.416 118.848 140.752 136.339 135.393 155.401 152.383 
153.32 142.703 138.772 134.316 126.162 115.213 115.213 114.892 122.702 
114.268 148.372 162.47 157.531 180.913 210.735 187.424 180.012 127.403 
122.507 124.84 132.066 134.044 123.659 141.674 167.963 162.093 162.093 
146.787 172.353 173.4 178.63 188.569 186.893 123.78 119.053 118.337 
118.424 118.867 114.966 127.036 127.578 142.562 141.202 135.817 144.651 
144.823 162.676 166.447 166.881 183.209 168.507 169.901 119.048 124.022 
118.92 115.432 125.545 125.678 124.73 125.416 127.291 129.447 128.781 
146.594 155.92 166 193.263 198.775 231.435 146.314 152.616 150.317 
144.152 144.252 73.8527 81.1672 95.1091 97.2195 152.912 120.702 99.0637 
119.397 137.094 143.365 192.009 180.03 162.096 152.84 140.596 174.537 
170.68 196.017 213.117 284.088 260.843 260.843 237.649 225.741 219.07 
188.307 154.935 153.997 124.918 117.835 128.51 154.815 198.786 140.775 
148.951 147.88 163.073 153.912 169.078 131.89 145.358 122.81 133.445 
124.216 126.17 197.403 65.6524 96.8654 99.1801 149.703 150.663 141.554 
187.306 143.152 135.4 140.881 134.009 124.125 137.009 135.12 138.345 
119.376 131.869 144.553 159.558 159.558 157.332 162.83 167.644 156.341 
198.859 110.692 120.075 130.967 142.491 109.996 142.789 147.226 207.732 
237.221 205.833 210.062 229.89 233.667 185.489 211.071 190.029 227.176 
200.377 133.122 162.93 170.69 187.302 177.806 170.192 193.474 106.636 
106.862 133.729 148.224 153.844 149.634 203.184 235.69 224.122 161.795 
177.81 194.509 202.176 199.639 179.256 131.812 133.487 123.775 125.548 
102.677 134.369 148.117 165.771 186.553 133.866 146.378 164.329 139.02 
161.382 166.743 175.093 185.736 185.736 178.8 174.992 174.992 169.396 
152.35 159.7 153.573 160.837 123.924 145.186 162.752 164.244 132.333 
131.932 138.391 131.908 126.776 102.471 94.5592 112.88 98.4823 213.416 
176.672 216.875 187.116 190.567 174.635 167.23 176.798 137.69 119.196 
166.113 163.944 155.123 151.729 154.884 176.965 188.507 197.393 207.863 
207.863 180.98 165.523 165.499 165.924 228.618 220.965 191.789 160.084 
154.861 135.664 149.583 146.624 147.36 143.792 134.024 134.433 117.05 
107.8 101.204 201.943 204.121 198.475 176.651 160.244 197.265 198.712 
201.683 217.869 166.296 146.932 143.2 175.035 172.52 168.155 168.155 
199.585 210.064 210.064 162.864 131.896 146.102 121.088 139.402 115.113 
104.484 116.779 138.255 166.334 171.955 162.936 188.541 158.394 132.654 
117.244 159.531 176.116 147.306 147.68 151.76 151.304 271.314 214.473 
130.085 116.5 166.945 168.081 169.552 150.085 168.203 167.382 188.144 
195.336 192.032 181.985 158.919 165.274 165.541 161.582 165.928 151.9 
147.742 172.599 209.768 196.649 169.951 143.617 127.355 109.791 112.55 
109.016 109.174 106.191 119.29 162.29 153.831 132.5 196.709 191.103 
167.713 147.724 156.361 190.001 182.046 194.399 185.212 185.212 133.616 
133.616 121.911 125.35 122.577 143.971 163.244 163.244 170.689 196.227 
196.227 223.254 179.095 188.143 191.713 212.131 168.313 214.835 182.303 
261.245 247.037 181.171 181.171 158.35 139.852 146.265 163.285 175.521 
189.311 159.512 164.412 164.412 133.371 171.915 184.631 180.217 205.865 
128.203 137.427 184.16 170.697 182.96 149.615 132.844 127.064 135.091 
143.267 139.062 157.111 138.99 162.326 162.726 155.302 124.185 122.236 
123.381 114.423 131.134 120.803 139.887 145.153 173.264 190.477 190.813 
215.173 227.119 213.621 201.932 194.127 229.476 189.748 172.026 178.226 
201.867 208.619 193.625 178.327 210.603 171.133 156.013 182.41 180.24 
205.359 251.923 271.307 287.543 179.616 189.744 189.13 207.64 247.432 
274.891 294.66 273.095 300.129 266.419 267.235 279.799 227.605 241.441 
210.014 161.514 158.379 135.878 134.061 133.097 167.707 264.543 225.008 
135.676 121.673 122.57 137.316 177.809 334.082 
FIELD FieldData 7
DY_minmax 1 735 double
0.171036 0.374537 0.38109 0.551976 0.637448 0.368697 0.912413 0.616634 0.71658 
0.35908 0.403687 0.567522 0.346741 0.302881 0.488702 0.615008 0.481753 0.0838195 
0.362107 0.397294 0.321848 0.358304 0.318146 0.43176 0.293142 0.416597 0.355898 
0.490138 0.205663 0.391281 0.325047 0.174617 0.409051 0.362925 0.286173 0.253532 
0.389826 0.255918 0.254372 0.312636 0.136295 0.288379 0.336977 0.626523 0.114254 
0.404719 0.237896 0.238424 0.0126263 0.524334 0.335735 0.39091 0.226159 0.233539 
0.245836 0.125176 0.0526681 0.238209 0.27373 0.369699 0.296152 0.218289 0.0255515 
0.25539 0.470286 0.53122 0.212943 0.0935168 0.143955 0.345432 0.18519 0.165787 
0 0.0707527 0.156775 0.126848 0.426924 0.136362 0.0368566 0.111479 1 
0.0760486 0.228623 0.110151 0.147607 0.0868424 0.0626974 0.0370184 0.0856006 0.105161 
0.140854 0.167514 0.19771 0.143627 0.11567 0.147535 0.134516 0.0828432 0.0922995 
0.154317 0.228623 0.222328 0.488337 0.618871 0.111479 0.113539 0.102235 0.180337 
0.206803 0.127169 0.104457 0.107978 0.115747 0.177044 0.330356 0.288728 0.22625 
0.148295 0.136874 0.150912 0.139092 0.0691782 0.113807 0.142812 0.138879 0.132032 
0.102801 0.0971988 0.128883 0.100537 0.101712 0.0883077 0.148636 0.231099 0.147212 
0.20298 0.286964 0.24776 0.19036 0.202835 0.141581 0.114886 0.115647 0.131048 
0.113308 0.105513 0.1321 0.129237 0.19728 0.350886 0.307807 0.296837 0.308215 
0.29284 0.29284 0.248733 0.179388 0.14836 0.122102 0.119472 0.168 0.180576 
0.219529 0.342258 0.36419 0.286661 0.322447 0.333432 0.34992 0.286757 0.292604 
0.344492 0.414741 0.364023 0.169253 0.167676 0.167278 0.156269 0.188642 0.199226 
0.255601 0.2899 0.295022 0.268922 0.211348 0.104915 0.110943 0.186184 0.325901 
0.445342 0.307996 0.307996 0.166883 0.164078 0.181771 0.12301 0.159683 0.152701 
0.21218 0.289413 0.321172 0.29542 0.341488 0.396642 0.410754 0.410754 0.318105 
0.35905 0.340879 0.211408 0.252756 0.212186 0.202966 0.232339 0.190821 0.195813 
0.195813 0.191646 0.191646 0.217747 0.210409 0.256795 0.0186024 0.0453974 0.240579 
0.294936 0.325638 0.253357 0.259535 0.283763 0.245106 0.258305 0.27594 0.253108 
0.255453 0.254581 0.261703 0.222792 0.219199 0.279826 0.302098 0.169816 0.218056 
0.316306 0.421838 0.490272 0.194786 0.127881 0.161389 0.418316 0.286629 0.216715 
0.250568 0.250568 0.290638 0.347135 0.596222 0.304816 0.336966 0.294265 0.0788886 
0.0788886 0.102571 0.141301 0.192291 0.26026 0.246565 0.243632 0.305715 0.296351 
0.299259 0.266315 0.254117 0.240289 0.214986 0.181012 0.181012 0.180015 0.204249 
0.178077 0.283906 0.32765 0.312325 0.384882 0.477419 0.405085 0.382087 0.218837 
0.203645 0.210883 0.233308 0.239445 0.20722 0.263119 0.344696 0.326482 0.326482 
0.278987 0.358319 0.361568 0.377798 0.408637 0.403438 0.207594 0.192925 0.190704 
0.190976 0.19235 0.180246 0.217697 0.219379 0.265877 0.261656 0.244945 0.27236 
0.272893 0.328289 0.339993 0.341339 0.392005 0.346386 0.35071 0.192911 0.208345 
0.192513 0.18169 0.213071 0.213484 0.210542 0.212671 0.218489 0.22518 0.223113 
0.278388 0.307328 0.338604 0.423202 0.440307 0.541652 0.277519 0.297075 0.289941 
0.27081 0.271119 0.0526681 0.0753653 0.118627 0.125176 0.297993 0.198045 0.130899 
0.193993 0.248909 0.268367 0.419313 0.382141 0.32649 0.29777 0.259775 0.365095 
0.353128 0.431749 0.484812 0.705038 0.632907 0.632907 0.560934 0.523985 0.503286 
0.407824 0.30427 0.301358 0.211126 0.189146 0.222272 0.303896 0.44034 0.260331 
0.2857 0.282378 0.329521 0.301095 0.348156 0.232761 0.274553 0.204585 0.237585 
0.208949 0.215011 0.43605 0.0272221 0.124077 0.13126 0.288033 0.291014 0.262749 
0.404719 0.267707 0.243652 0.260661 0.239337 0.208664 0.248644 0.242783 0.252789 
0.193928 0.232695 0.272053 0.318615 0.318615 0.311708 0.328768 0.343706 0.308632 
0.440567 0.166983 0.196098 0.229896 0.265655 0.164821 0.26658 0.28035 0.468102 
0.559607 0.462209 0.475332 0.536858 0.548579 0.39908 0.478461 0.413168 0.528438 
0.445277 0.236582 0.329081 0.35316 0.404706 0.37524 0.351613 0.423858 0.154396 
0.155099 0.238467 0.283447 0.300885 0.287822 0.453988 0.554857 0.51896 0.325556 
0.375253 0.427071 0.45086 0.442989 0.379739 0.232519 0.237716 0.207581 0.21308 
0.14211 0.240451 0.283113 0.337896 0.402383 0.238894 0.277718 0.333419 0.254886 
0.324276 0.340911 0.366823 0.399846 0.399846 0.378325 0.366507 0.366507 0.349142 
0.29625 0.319055 0.300044 0.322583 0.208041 0.274018 0.328525 0.333156 0.234137 
0.23289 0.252935 0.232817 0.216891 0.141472 0.116921 0.173772 0.129095 0.485738 
0.371721 0.496474 0.404129 0.414837 0.365401 0.342423 0.372111 0.250758 0.19337 
0.338955 0.332226 0.304855 0.294323 0.304113 0.372631 0.408447 0.436021 0.468508 
0.468508 0.38509 0.337124 0.337052 0.338368 0.532911 0.509165 0.418629 0.320247 
0.304041 0.244472 0.287664 0.278482 0.280766 0.269691 0.239383 0.240651 0.18671 
0.158009 0.137541 0.450139 0.456898 0.439378 0.371655 0.320745 0.435623 0.440113 
0.449332 0.499556 0.339525 0.279437 0.267855 0.36664 0.358836 0.345293 0.345293 
0.442821 0.475339 0.475339 0.328875 0.23278 0.276862 0.199242 0.256069 0.1807 
0.147718 0.18587 0.252513 0.339642 0.357084 0.329098 0.408551 0.315004 0.23513 
0.187312 0.318533 0.369997 0.280597 0.281757 0.294419 0.293004 0.665399 0.489019 
0.227158 0.185004 0.341539 0.345062 0.349627 0.289219 0.34544 0.342894 0.407319 
0.429636 0.419384 0.388207 0.316632 0.336353 0.337182 0.324897 0.338381 0.294852 
0.281951 0.359083 0.474419 0.433709 0.350866 0.26915 0.218688 0.164185 0.172746 
0.161782 0.16227 0.153014 0.193661 0.327094 0.300843 0.234655 0.433897 0.416501 
0.34392 0.281895 0.308694 0.41308 0.388397 0.426727 0.39822 0.39822 0.238117 
0.238117 0.201796 0.212466 0.203862 0.270249 0.330053 0.330053 0.353157 0.432401 
0.432401 0.516266 0.379239 0.407317 0.418393 0.481753 0.345781 0.490143 0.389194 
0.634156 0.590067 0.385682 0.385682 0.314866 0.257468 0.277367 0.33018 0.368149 
0.41094 0.318471 0.333677 0.333677 0.237356 0.356959 0.396418 0.38272 0.462308 
0.22132 0.249941 0.394956 0.353181 0.391233 0.287761 0.235722 0.217784 0.242694 
0.268064 0.255017 0.311023 0.254792 0.327206 0.328445 0.30541 0.208851 0.202804 
0.206358 0.178558 0.230416 0.198358 0.257577 0.273915 0.361146 0.414558 0.415601 
0.49119 0.528259 0.486377 0.450104 0.425885 0.535575 0.412297 0.357304 0.376542 
0.449902 0.470853 0.424328 0.376857 0.477009 0.354533 0.307615 0.389525 0.382793 
0.460739 0.60523 0.665378 0.715758 0.380858 0.412284 0.41038 0.467817 0.591293 
0.6765 0.737843 0.670926 0.754813 0.65021 0.652743 0.691729 0.529768 0.572703 
0.475182 0.324684 0.314958 0.245135 0.239496 0.236505 0.343901 0.644388 0.521711 
0.244508 0.201057 0.203841 0.249598 0.375249 0.860172 
WidthEq 1 735 double
3.37071 1.74263 1.36554 1.8896 1.90203 1.77052 1.05904 1.6476 1.9048 
2.45712 1.92132 1.75557 2.12544 2.9114 1.99405 1.84846 2.33678 2.062 
3.75993 2.79534 2.24885 2.95864 2.52828 2.68046 3.40098 2.4526 3.37982 
3.22513 2.97176 1.77322 3.57176 1.47036 1.74288 4.15316 3.71452 2.77034 
3.49601 3.3628 3.60906 3.07062 2.19434 4.7833 3.60649 1.99731 5.18929 
1.76719 4.66962 4.28317 1.52136 2.49876 2.82008 3.30941 4.03263 3.5315 
3.50707 3.75917 3.60373 2.94865 3.7333 3.82368 3.16741 2.88647 2.0127 
3.51994 1.42828 2.3295 4.36382 3.12049 3.40274 4.06561 4.96676 5.98888 
1.76926 3.5668 4.00582 5.76479 3.44024 3.39288 3.25238 2.19767 1.07135 
1.71556 1.54749 4.25434 2.13097 1.53342 2.06364 3.14586 4.61341 4.55324 
5.11505 5.20411 5.15185 2.29665 3.61013 3.52679 3.91267 4.82878 4.19656 
2.40675 1.54749 3.86356 3.13267 2.43834 2.19767 2.26229 2.29326 2.16595 
2.1851 2.37422 2.59034 2.85639 2.8501 2.60057 2.10427 2.32818 2.94545 
6.11776 6.21021 6.30135 6.00069 4.12936 4.27494 4.17797 3.97504 4.05028 
4.17043 3.70196 3.38321 3.44219 3.17614 3.39339 3.30269 2.98181 3.1117 
2.92817 2.47389 2.62526 2.81939 2.93879 3.1978 3.21219 3.30929 3.40651 
3.53269 3.74906 3.72249 3.8081 3.57911 3.66371 3.63105 3.41443 3.2385 
3.75484 3.75484 4.04915 4.90125 5.50483 5.85328 5.45176 4.71604 4.09475 
3.62093 3.13318 3.31984 3.73612 3.75082 3.89019 3.9447 4.52335 4.50507 
4.09111 3.43628 3.55084 5.80706 5.5878 5.2232 4.08753 3.83247 3.80289 
3.12978 3.05737 2.7829 2.3001 2.76651 3.20735 2.92246 3.54299 2.98646 
2.69667 2.52495 2.52495 2.93244 3.3768 3.91299 4.00839 4.09946 3.78354 
3.46266 3.11691 2.97867 2.82869 2.70094 2.31537 2.40725 2.40725 2.83001 
2.73266 2.88459 3.19165 3.15566 3.45519 3.54494 3.36016 3.48998 3.36443 
3.36443 3.08871 3.08871 3.00354 3.20792 3.21168 2.03079 2.80011 5.31647 
4.42505 4.0707 3.1436 3.03501 2.54442 2.39205 2.30274 2.37484 2.77423 
3.19925 3.56585 3.70667 4.23481 4.64827 4.3701 4.22903 3.30275 2.74842 
2.3565 2.28082 2.32447 3.53646 3.4393 3.68029 2.70333 3.2005 3.42328 
3.86965 3.86965 3.91688 3.9888 2.01772 3.37046 3.18323 3.10001 3.58099 
3.58099 4.09569 4.32946 3.90124 3.583 3.57452 2.68097 3.11038 3.04939 
3.49827 3.98635 3.76966 3.4842 3.44394 3.68946 3.68946 3.92756 3.81539 
4.09613 4.05908 4.07101 4.1683 3.891 3.19152 3.02904 3.20792 3.88441 
4.08772 3.99244 3.80025 3.51567 3.54098 3.4229 2.53946 2.49983 2.49983 
2.15131 2.02872 2.03405 2.31022 2.5259 2.69365 3.83266 4.27017 4.22866 
4.50789 4.28424 4.07201 3.89911 3.75955 3.38761 3.34553 3.10592 3.0531 
3.09581 3.32807 3.19498 3.11722 2.93018 3.19793 3.21143 4.69462 4.46506 
4.5072 4.29435 3.72739 3.62828 3.10868 3.26765 3.20584 3.16025 3.072 
3.06742 2.76663 2.76883 2.14974 1.9877 1.58976 3.17444 3.11779 3.28209 
3.6475 3.93704 3.60373 4.19449 4.14424 3.75917 3.4702 4.32274 3.22626 
3.33447 3.54425 3.53319 3.3807 3.52139 3.77996 4.07873 4.31118 3.32449 
3.31148 2.75382 2.81631 2.25488 2.50743 2.50743 2.68323 2.99921 3.26966 
3.77732 2.96586 2.81211 3.06861 3.34345 2.9332 3.2527 2.75319 4.55148 
4.22432 3.86067 3.14875 3.23254 2.49468 2.54989 2.52841 2.76952 2.739 
3.2228 4.26025 3.21087 2.05666 2.68718 3.38591 4.12622 4.1769 4.40973 
1.76719 2.676 3.37781 3.62571 4.05311 4.36614 4.15693 4.30754 4.30899 
4.3939 3.78706 3.23097 2.66859 2.66859 2.41919 2.67651 2.90738 3.92479 
3.11264 5.14413 4.52322 3.84421 3.67319 4.41777 3.37894 3.39929 2.97949 
2.77191 3.1605 3.1659 3.1387 3.09537 3.38082 3.0835 3.41072 2.70986 
3.43421 5.36176 4.71032 4.18111 3.84622 3.18738 3.00957 2.66018 2.66275 
3.31356 3.06497 2.78008 2.7341 2.75288 2.74572 2.54769 2.33942 2.84357 
2.52508 2.67111 2.70678 2.98822 3.24221 3.80477 4.00732 4.1183 3.84918 
3.3231 2.99173 2.72795 2.80878 2.70081 3.2157 3.3383 3.12225 3.67332 
3.79227 3.45343 2.90556 2.44431 2.44431 2.16915 2.12676 2.12676 2.05717 
2.12927 2.15358 2.10509 2.25941 2.56 2.50661 4.07157 4.29127 2.54172 
2.39984 2.82875 2.47979 2.36461 2.32441 2.4803 2.85325 3.09543 3.8265 
4.25792 3.82236 3.7267 3.52986 3.80785 4.14204 1.89293 2.37937 2.94771 
3.36883 3.23668 3.16339 2.98093 2.96347 2.63631 2.58035 2.36794 2.0941 
2.0941 2.28962 2.63725 2.84439 2.95826 3.05718 3.15491 3.52578 3.68154 
3.41826 2.7721 2.55466 1.93457 1.8092 1.8347 1.79262 1.78182 1.97382 
2.12267 2.14196 2.95744 3.22173 3.4398 4.03822 3.73926 3.19121 3.16772 
3.07257 2.92541 3.13443 3.15591 2.82448 2.28792 2.17543 1.97904 1.97904 
2.09347 2.12695 2.12695 2.90908 3.40142 3.33366 3.80866 3.30904 3.73612 
3.4913 3.26476 3.10472 2.78906 2.77518 2.82869 2.65653 2.74679 2.74402 
2.458 2.16017 2.07695 2.33069 2.63757 2.91819 3.02546 1.81084 1.85951 
2.58167 2.71086 2.3251 2.31499 2.60183 2.77474 2.86342 2.676 2.4406 
2.29269 2.32027 2.28786 2.2503 2.30299 2.11865 2.55334 2.28729 2.39582 
2.69811 2.71852 2.5774 2.71589 2.36065 2.62117 2.53437 2.19723 2.06678 
1.96095 1.96691 1.83703 1.72266 1.4377 1.52821 1.79331 2.13856 2.5431 
2.93445 2.51817 2.72399 2.5377 2.52483 2.34809 2.18272 2.18272 2.58902 
2.58902 2.67305 3.01472 3.13048 3.15761 3.29779 3.29779 3.4457 3.03432 
3.03432 2.2893 3.06572 2.96686 2.65911 2.33678 3.17739 2.48821 2.47596 
2.00698 2.19584 2.7407 2.7407 2.75589 2.32334 2.35493 2.02294 1.90071 
1.83489 1.96591 1.98444 1.98444 1.85411 1.55766 1.30631 1.14565 1 
1.32076 1.6797 1.7295 1.9058 1.75626 1.93714 2.01653 2.02627 1.78239 
1.76059 1.83784 1.50597 1.78232 1.79426 1.69257 1.87025 1.93055 1.96509 
1.94725 2.19917 2.14799 2.3143 2.52414 2.42459 2.26945 2.02909 1.86002 
2.20263 1.95134 2.05478 2.22894 2.24289 2.03801 2.38376 2.41705 2.20213 
2.14371 2.22562 2.35581 2.35004 2.04316 2.54279 2.27222 2.19032 2.20897 
2.15094 1.87289 1.6351 1.56865 2.31229 2.12236 1.95661 1.81253 1.74232 
1.66475 1.66305 1.78251 1.86378 1.89286 1.69609 1.40567 1.49542 1.57142 
1.73296 1.89355 1.88753 1.91742 1.96892 2.01955 1.93871 1.90674 2.0691 
2.98074 3.3915 3.24177 3.04826 2.60918 1.4578 
rRFP 1 735 double
2772.99 2513.77 2453.73 2537.17 2539.15 2518.21 2404.93 2498.64 2539.59 
2627.53 2542.22 2515.83 2574.72 2699.86 2553.8 2530.62 2608.37 2564.62 
2834.96 2681.38 2594.37 2707.38 2638.86 2663.09 2777.81 2626.81 2774.44 
2749.81 2709.47 2518.64 2805 2470.42 2513.81 2897.57 2827.73 2677.4 
2792.94 2771.73 2810.94 2725.21 2585.69 2997.9 2810.53 2554.32 3062.54 
2517.68 2979.8 2918.27 2478.54 2634.16 2685.32 2763.23 2878.38 2798.59 
2794.7 2834.84 2810.09 2705.79 2830.72 2845.11 2740.62 2695.89 2556.77 
2796.75 2463.72 2607.21 2931.11 2733.15 2778.09 2883.63 3027.11 3189.85 
2518.01 2804.21 2874.11 3154.17 2784.06 2776.52 2754.15 2586.22 2406.89 
2509.46 2482.7 2913.68 2575.6 2480.46 2564.88 2737.19 2970.85 2961.27 
3050.72 3064.9 3056.58 2601.98 2811.11 2797.84 2859.28 3005.14 2904.48 
2619.51 2482.7 2851.46 2735.09 2624.54 2586.22 2596.51 2601.44 2581.17 
2584.22 2614.33 2648.74 2691.1 2690.1 2650.37 2571.35 2607 2705.28 
3210.37 3225.09 3239.6 3191.73 2893.78 2916.96 2901.52 2869.21 2881.19 
2900.32 2825.73 2774.98 2784.37 2742.01 2776.6 2762.16 2711.07 2731.75 
2702.53 2630.2 2654.3 2685.21 2704.22 2745.46 2747.75 2763.21 2778.69 
2798.78 2833.23 2829 2842.63 2806.17 2819.64 2814.44 2779.95 2751.94 
2834.15 2834.15 2881.01 3016.68 3112.78 3168.26 3104.33 2987.19 2888.27 
2812.83 2735.17 2764.89 2831.17 2833.51 2855.7 2864.38 2956.51 2953.6 
2887.69 2783.43 2801.67 3160.9 3125.99 3067.94 2887.12 2846.51 2841.8 
2734.63 2723.1 2679.4 2602.53 2676.79 2746.98 2701.62 2800.42 2711.81 