# vtk DataFile Version 3.0
vtk output
ASCII
DATASET POLYDATA
POINTS 689 float
1.42291 -2.15376 1.18059 1.17446 -1.64647 1.01797 0.199395 -0.766451 0.895994 
0.125402 -0.882621 0.489509 0.386861 -2.36672 0.389779 2.31205 -3.17038 0.0264435 
3.11633 -2.91342 0.0905003 5.63273 0.0926653 0.0202317 6.55453 -0.0169381 -0.208866 
6.24765 0.175567 -0.389946 3.44511 -1.75143 -0.445352 3.42176 -1.95067 -0.524184 
6.27691 -1.62973 -0.504451 6.33458 -1.78392 -0.515532 -0.711778 -0.365445 -0.486397 
5.30321 0.287439 -0.702135 6.21369 0.31869 -0.647396 3.02289 -1.25053 -0.60427 
-0.885487 -1.26753 -0.780457 -0.63872 -1.53718 -1.22848 6.59606 0.208482 -1.14063 
6.60501 -1.51262 -0.97253 6.78881 -1.58536 -0.91463 -0.186813 -2.2145 -1.11054 
6.94707 -0.281469 -1.03661 6.93356 -0.622155 -1.19809 6.52585 -0.750388 -1.61751 
4.13838 -2.035 -1.08093 -0.47739 -0.0559339 -1.04778 4.38121 -0.172194 -1.16967 
6.18811 -1.07828 -1.2694 5.21473 -2.08681 -1.31003 -0.828585 -0.7393 -1.28303 
5.54212 0.334925 -1.36553 0.162912 -0.197893 -1.47273 6.52775 -0.102337 -1.61679 
4.03506 -1.44474 -1.64264 6.26092 -1.32528 -1.82123 5.29604 -1.67619 -1.68697 
5.51215 0.205719 -1.9075 6.81361 -0.552627 -2.05282 4.62384 -1.60597 -2.0676 
4.41778 -1.68304 -2.0676 5.34262 0.0833183 -2.17849 6.17917 0.0446647 -2.20066 
0.705521 -2.1197 -2.20804 6.21564 -0.826604 -2.27129 5.93855 -1.51004 -2.293 
6.0802 -0.854824 -2.43173 6.00201 -0.882418 -2.5222 5.94976 -0.911398 -2.58219 
5.90649 -0.953306 -2.62835 5.85861 -0.982315 -2.65132 5.8076 -1.00292 -2.65885 
5.75612 -1.02229 -2.65885 5.70461 -1.04156 -2.65885 5.65309 -1.06082 -2.65885 
5.60154 -1.07999 -2.65885 5.54931 -1.09735 -2.65871 5.49295 -1.10366 -2.65778 
5.42781 -1.08649 -2.65516 5.36267 -1.06932 -2.65254 5.30648 -1.0761 -2.64422 
5.2546 -1.0944 -2.6293 5.20353 -1.11485 -2.60712 5.15152 -1.13278 -2.5996 
5.09584 -1.14091 -2.5988 5.0349 -1.13497 -2.59698 4.98059 -1.14677 -2.56675 
4.93365 -1.17827 -2.52308 4.89328 -1.22734 -2.48068 4.8508 -1.27075 -2.45272 
4.81016 -1.31909 -2.42511 4.7646 -1.35431 -2.38172 4.72004 -1.39216 -2.32366 
4.68465 -1.45453 -2.25251 4.65373 -1.52888 -2.16738 5.97176 -1.44185 -2.28206 
6.00946 -1.38563 -2.25713 6.05745 -1.35673 -2.202 6.11191 -1.34147 -2.11075 
6.17679 -1.33157 -1.97803 6.38352 -0.822434 -1.99435 0.699279 -2.06345 -2.20435 
0.705607 -2.00249 -2.20066 0.699468 -1.9462 -2.19696 0.694931 -1.88931 -2.19327 
0.710523 -1.82489 -2.18958 0.716654 -1.76401 -2.18588 0.685057 -1.71723 -2.18219 
0.656571 -1.6693 -2.17849 0.635643 -1.61854 -2.1748 0.616213 -1.56722 -2.17111 
0.595182 -1.5165 -2.16741 0.564691 -1.46931 -2.16372 0.518202 -1.42811 -2.16003 
0.474554 -1.38532 -2.16373 0.414561 -1.34757 -2.1822 0.344585 -1.31197 -2.22285 
0.272832 -1.2765 -2.2709 0.203134 -1.24132 -2.30415 0.145377 -1.20434 -2.30046 
0.112029 -1.16087 -2.25982 0.07903 -1.11835 -2.20438 0.0224935 -1.08462 -2.14895 
-0.0452888 -1.05457 -2.10092 -0.114704 -1.02566 -2.04549 -0.184223 -0.996792 -1.99006 
-0.253741 -0.967923 -1.93463 -0.323434 -0.938586 -1.8866 -0.392952 -0.909716 -1.83117 
-0.462297 -0.881312 -1.76835 -0.531467 -0.853374 -1.69814 -0.600514 -0.825879 -1.62054 
-0.670036 -0.798941 -1.52811 -0.744098 -0.771109 -1.41325 6.11 0.0726023 -2.13044 
6.04069 0.100904 -2.06763 5.9715 0.128902 -2.02712 5.90493 0.149894 -2.02423 
5.84296 0.158583 -2.05192 5.77576 0.181243 -2.0786 5.70706 0.207813 -2.07283 
5.64475 0.215475 -2.03128 5.58846 0.195777 -1.9718 6.22967 0.0666333 -2.03713 
6.27482 0.102913 -1.90227 6.32503 0.126325 -1.7885 6.383 0.14082 -1.64683 
6.46537 0.162366 -1.42787 6.1617 -0.0199266 -2.21174 6.16749 -0.0752874 -2.23021 
6.18229 -0.126212 -2.26347 6.18965 -0.179927 -2.29673 6.18464 -0.238265 -2.32998 
6.20391 -0.289526 -2.33367 6.24897 -0.332394 -2.2929 6.29078 -0.370612 -2.18493 
6.34442 -0.392011 -2.03015 6.41188 -0.433474 -1.86508 6.47663 -0.535351 -1.72603 
5.38415 0.133362 -2.06743 5.43995 0.167544 -1.9775 4.46982 -1.66517 -2.04543 
4.52169 -1.64683 -2.03064 4.57303 -1.6271 -2.03803 4.68313 -1.64705 -2.00476 
4.72914 -1.69062 -1.9492 4.78555 -1.71848 -1.90775 4.845 -1.72595 -1.87992 
4.90728 -1.73579 -1.85231 4.96409 -1.73066 -1.80879 5.01813 -1.71817 -1.7573 
5.07426 -1.71123 -1.71364 5.13227 -1.70933 -1.69262 5.18283 -1.68752 -1.68501 
5.24035 -1.68431 -1.68617 6.63712 -0.761778 -1.83318 6.69972 -0.726251 -1.97942 
6.7443 -0.681671 -2.04299 6.7806 -0.621386 -2.05638 6.7439 -0.52391 -2.03303 
6.67758 -0.516197 -1.96565 6.61114 -0.580978 -1.82117 6.85594 -0.5174 -1.80289 
6.90038 -0.534614 -1.51771 6.32997 -1.31582 -1.98065 6.38612 -1.29575 -2.10691 
6.43779 -1.27497 -2.17612 6.49348 -1.26674 -2.17938 6.55568 -1.27604 -2.12947 
6.61328 -1.27304 -2.04897 6.66721 -1.26023 -1.97519 6.72016 -1.2448 -1.91607 
6.77285 -1.22869 -1.86433 6.82561 -1.21274 -1.78291 6.87571 -1.18969 -1.66385 
6.92026 -1.15211 -1.52147 6.9636 -1.11682 -1.40148 6.98859 -1.06648 -1.33207 
6.98357 -1.01289 -1.31373 6.96775 -0.959268 -1.32482 6.95966 -0.903089 -1.32629 
6.96582 -0.838806 -1.30605 6.95638 -0.755778 -1.25827 5.51724 0.274686 -1.63354 
6.25467 -1.27148 -1.59001 6.24216 -1.22486 -1.41602 6.22555 -1.17849 -1.31868 
6.20716 -1.12921 -1.28049 6.34498 -1.35584 -1.58509 6.42471 -1.39689 -1.36931 
6.50823 -1.44805 -1.16911 4.01611 -1.39377 -1.63156 3.99915 -1.34259 -1.61309 
3.99352 -1.2877 -1.58722 4.01281 -1.22243 -1.57614 4.04121 -1.15269 -1.57983 
4.0616 -1.08488 -1.59831 4.06638 -1.02344 -1.60939 4.07616 -0.960662 -1.61309 
4.08128 -0.900159 -1.6094 4.10231 -0.833708 -1.60571 4.13269 -0.763756 -1.60201 
4.16307 -0.693806 -1.59832 4.18437 -0.627782 -1.58723 4.19182 -0.568 -1.56137 
4.21399 -0.504306 -1.51333 4.24569 -0.437578 -1.4579 4.2791 -0.370213 -1.40247 
4.31261 -0.302809 -1.34704 4.34665 -0.236802 -1.26945 6.52359 -0.045834 -1.6057 
6.54183 0.0173537 -1.57033 6.56296 0.0788518 -1.48423 6.57288 0.137082 -1.33548 
-0.688297 -1.39052 -1.33752 -0.730212 -1.31111 -1.38282 -0.783926 -1.28316 -1.33907 
-0.837354 -1.28367 -1.21074 -0.878763 -1.27692 -1.0163 0.196434 -0.241819 -1.50599 
0.253042 -0.276049 -1.55402 0.318842 -0.30631 -1.60946 0.37699 -0.339432 -1.66489 
0.419511 -0.378931 -1.71292 0.4667 -0.416153 -1.76835 0.508944 -0.455223 -1.82378 
0.56519 -0.489057 -1.87921 0.618277 -0.524604 -1.92724 0.639905 -0.571385 -1.98267 
0.645629 -0.624115 -2.03811 0.677926 -0.666906 -2.09353 0.705461 -0.712009 -2.14157 
0.725446 -0.759936 -2.18961 0.745709 -0.80829 -2.23025 0.775575 -0.854115 -2.25612 
0.819814 -0.895096 -2.27459 0.849853 -0.941386 -2.29307 0.870362 -0.990711 -2.31894 
0.88934 -1.04114 -2.33741 0.908389 -1.09207 -2.34849 0.927612 -1.14347 -2.35219 
0.946661 -1.1944 -2.36327 0.96564 -1.24483 -2.38174 0.986322 -1.29462 -2.40022 
1.01706 -1.34278 -2.38913 1.06287 -1.38795 -2.34109 1.095 -1.43983 -2.27088 
1.11742 -1.49428 -2.21545 1.13745 -1.54751 -2.18958 1.15695 -1.59933 -2.18588 
1.17808 -1.65002 -2.18958 1.21011 -1.69609 -2.20066 1.2654 -1.73294 -2.21913 
1.31864 -1.76949 -2.25239 1.33906 -1.81885 -2.27825 1.33268 -1.87876 -2.29673 
1.33002 -1.93941 -2.28564 1.32249 -2.00241 -2.26717 1.32933 -2.06056 -2.2413 
1.3361 -2.11821 -2.22282 1.33056 -2.181 -2.19695 1.33939 -2.23894 -2.16369 
1.35596 -2.29398 -2.13043 1.36615 -2.35035 -2.11195 1.37 -2.4091 -2.09347 
1.39492 -2.46102 -2.06021 1.41089 -2.51842 -1.99739 1.44775 -2.56853 -1.92718 
1.47818 -2.62105 -1.85697 1.50058 -2.67604 -1.79414 1.51966 -2.73227 -1.73132 
1.52936 -2.79254 -1.66111 1.52341 -2.85973 -1.57611 1.52099 -2.92719 -1.46894 
1.50269 -3.0009 -1.35437 1.47343 -3.07416 -1.24694 1.43428 -3.12618 -1.1602 
1.37989 -3.13776 -1.08541 1.32588 -3.15005 -1.01809 1.27204 -3.1576 -0.957907 
1.21836 -3.13704 -0.910805 1.17422 -3.09873 -0.885078 1.1149 -3.06309 -0.874006 
1.04664 -3.03209 -0.870442 0.980174 -3.01106 -0.867549 0.918901 -3.00423 -0.865674 
0.852329 -2.98324 -0.862781 0.782265 -2.95291 -0.859216 0.711565 -2.92088 -0.85553 
0.64093 -2.88871 -0.851836 0.571999 -2.8559 -0.848143 0.512425 -2.8196 -0.844449 
0.467051 -2.77798 -0.840755 0.407477 -2.74167 -0.837061 0.33865 -2.70883 -0.833368 
0.269996 -2.67645 -0.822281 0.210771 -2.64107 -0.803811 0.16592 -2.60085 -0.777947 
0.106623 -2.56497 -0.76686 0.0393259 -2.53102 -0.770559 -0.0205644 -2.49324 -0.789036 
-0.0646889 -2.44908 -0.811932 -0.113092 -2.40162 -0.862742 -0.150279 -2.32862 -0.964175 
-0.140137 -2.09908 -1.3063 -0.115221 -2.01138 -1.45429 -0.111119 -1.94379 -1.53625 
-0.104058 -1.87963 -1.57246 -0.114519 -1.82283 -1.59833 -0.144319 -1.77167 -1.64637 
-0.19064 -1.72509 -1.71659 -0.224762 -1.67342 -1.79419 -0.258281 -1.62365 -1.84223 
-0.304779 -1.58245 -1.83854 -0.345215 -1.54271 -1.78311 -0.391498 -1.50825 -1.68671 
-0.43545 -1.47766 -1.5636 -0.512986 -1.47931 -1.40665 5.4745 0.358291 -1.25534 
5.40974 0.367282 -1.10582 5.34746 0.342194 -0.910783 5.58231 0.384478 -1.26683 
5.63122 0.410692 -1.19952 5.68706 0.418396 -1.16323 5.7487 0.410595 -1.13548 
5.80543 0.415927 -1.09194 5.85884 0.430128 -1.04032 5.91148 0.446394 -0.996 
5.9644 0.461891 -0.966574 6.02157 0.465838 -0.933025 6.08814 0.440976 -0.871816 
6.15518 0.392356 -0.772528 -0.864637 -0.83425 -1.16195 -0.873816 -0.909679 -1.04772 
-0.880463 -0.978915 -0.947979 -0.870496 -1.04062 -0.858062 -0.854279 -1.09919 -0.797802 
-0.852868 -1.16922 -0.772553 -0.805315 -0.646969 -1.24064 -0.795744 -0.580268 -1.16242 
-0.773415 -0.52059 -1.03669 -0.750541 -0.464195 -0.870333 -0.740434 -0.411803 -0.685377 
5.28384 -2.1146 -1.35054 5.34935 -2.13275 -1.36807 5.40592 -2.127 -1.36162 
5.45885 -2.1115 -1.33219 5.51127 -2.09467 -1.29525 5.56401 -2.07866 -1.24352 
5.61678 -2.06276 -1.19178 5.67019 -2.04856 -1.14018 5.72692 -2.04323 -1.09664 
5.78915 -2.05262 -1.04673 5.84673 -2.04957 -0.99592 5.90431 -2.04651 -0.945117 
5.96637 -2.05544 -0.902603 6.02323 -2.05047 -0.851663 6.07597 -2.03447 -0.79992 
6.12436 -2.00686 -0.75478 6.16643 -1.96234 -0.723269 6.21027 -1.92256 -0.692097 
6.25198 -1.87707 -0.645673 6.29585 -1.83735 -0.584808 6.66194 -0.716316 -1.38323 
[...]
POINT_DATA 689
SCALARS DY_raw double
LOOKUP_TABLE default
544.729 242.972 543.498 150.462 524.424 350.501 663.333 842.652 621.702 
691.283 510.828 337.027 933.38 730.463 304.891 718.594 828.456 536.051 
389.248 314.367 671.843 546.074 515.695 391.749 568.755 492.197 611.453 
145.507 528.144 491.863 1049 825.406 278.955 608.847 407.698 524.449 
296.942 689.621 709.437 465.734 441.847 394.365 376.578 260.266 438.358 
236.709 800.659 425.97 669.173 612.624 581.174 533.948 499.718 495.281 
449.429 449.429 448.295 489.73 500.174 521.52 521.52 574.505 540.16 
579.422 576.833 554.354 554.354 498.621 519.597 585.127 506.166 511.198 
487.547 469.348 520.547 458.412 393.218 451.867 465.737 499.342 572.723 
637.226 880.632 281.36 309.901 338.456 355.552 362.209 396.133 412.057 
412.057 430.609 412.594 412.594 442.357 547.213 450.45 492.162 449.245 
408.748 401.355 372.947 341.528 333.513 331.871 329.929 395.264 418.793 
496.005 578.721 505.659 601.663 552.034 387.628 311.528 281.245 439.922 
455.503 453.121 471.803 480.841 474.548 444.554 419.498 427.309 461.586 
460.788 447.342 482.28 545.206 415.053 426.094 412.717 392.314 405.83 
405.83 424.27 475.262 471.652 481.338 547.853 327.192 391.457 401.677 
401.677 401.466 434.293 485.569 441.033 452.556 452.556 562.069 579.068 
630.502 646.113 712.778 722.038 554.986 532.178 507.312 487.637 482.146 
485.878 521.421 457.672 458.41 678.073 599.898 461.757 438.233 455.705 
493.587 539.705 629.665 672.163 739.786 627.669 599.898 598.768 620.34 
608.677 650.137 610.361 566.208 575.428 653.215 633.095 678.075 815.676 
956.945 541.313 489.601 499.307 296.942 300.678 307.641 328.74 341.792 
353.339 404.968 481.421 482.056 497.957 471.853 471.853 414.619 371.151 
407.238 376.337 409.682 389.605 425.925 449.315 458.891 492.927 543.362 
283.562 279.023 298.74 379.15 364.437 380.58 385.392 366.899 380.211 
417.351 427.032 458.823 446.1 471.012 426.729 396.026 371.097 341.979 
378.942 379.584 359.223 379.467 379.467 386.17 389.707 389.707 397.714 
390.583 408.934 388.516 433.903 433.903 495.69 505.657 505.657 553.976 
553.976 481.078 405.419 439.149 344.635 330.807 309.833 332.549 278.075 
307.68 305.274 347.625 309.814 349.247 349.247 385.985 373.181 415.753 
407.485 428.808 486.621 453.132 425.665 450.565 409.859 338.401 305.387 
336.348 403.079 395.979 418.978 450.186 431.111 410.837 377.714 392.377 
359.877 324.694 354.52 332.037 382.336 386.899 367.56 429.245 438.281 
399.829 397.185 397.309 394.175 440.87 375.216 393.747 375.361 360.909 
371.658 289.009 270.479 331.921 310.758 343.578 420.33 333.217 337.055 
351.748 370.566 455.097 426.536 391.753 557.51 598.986 629.444 590.056 
590.615 574.067 560.747 597.946 662.882 671.147 671.147 729.334 727.706 
767.527 308.618 363.954 389.09 437.231 383.419 416.115 296.53 303.112 
294.517 278.028 270.05 692.413 635.424 584.438 510.137 463.526 468.353 
434.618 453.8 430.876 435.551 466.13 422.755 427.614 475.157 450.72 
490.037 504.047 509.545 564.311 687.919 529.984 512.485 473.992 667.69 
692.031 719.618 428.933 368.839 368.839 322.922 390.894 420.898 453.733 
420.912 413.75 413.75 387.768 420.727 442.506 468.547 528.813 489.926 
489.926 445.551 437.81 410.667 411.473 464.971 464.223 464.223 487.245 
492.441 503.575 447.694 442.644 452.883 390.289 451.757 384.142 440.302 
440.24 465.056 483.316 446.516 484.298 524.684 614.483 542.849 528.02 
564.695 443.421 452.227 412.555 356.227 356.227 418.921 352.524 453.634 
412.585 410.733 410.733 330.988 345.899 352.615 332.858 367.144 402.854 
464.429 219.084 378.373 496.746 526.544 488.457 507.087 488.683 453.017 
508.902 581.681 685.187 725.184 652.782 648.518 634.145 606.198 614.082 
612.865 622.383 622.383 574.002 524.162 519.248 515.943 530.556 530.556 
546.335 652.783 680.973 727.274 727.274 757.573 641.88 641.88 567.323 
587.092 622.084 627.154 675.218 621.612 651.368 605.521 635.706 748.36 
691.755 781.172 557.095 617.443 597.914 535.737 535.571 501.354 542.962 
607.025 647.938 577.556 573.681 626.339 630.923 673.578 642.692 558.446 
663.463 615.411 322.515 310.692 372.837 406.507 348.46 367.692 429.124 
412.267 509.486 507.17 429.482 534.338 653.677 743.124 827.022 857.16 
730.463 687.237 777.272 685.861 440.126 366.715 376.569 380.876 374.802 
388.413 327.716 326.306 349.063 373.518 352.261 408.519 416.459 471.933 
506.838 485.758 451.286 412.78 368.131 308.397 325.217 337.659 390.194 
428.799 445.796 422.118 451.449 422.685 456.382 389.719 366.311 360.134 
374.775 839.95 805.24 738.472 795.913 758.814 342.794 356.628 397.779 
387.948 363.719 414.917 573.543 661.947 620.811 606.55 616.422 637.087 
543.498 871.495 933.38 366.557 453.306 489.145 413.463 493.641 529.38 
662.919 689.43 711.576 720.512 662.515 542.377 539.456 530.892 512.656 
496.374 464.727 468.698 468.698 498.57 575.188 563.409 560.885 559.916 
532.561 517.863 537.075 447.793 409.586 386.728 400.287 416.9 434.534 
473.911 374.109 392.471 637.331 587.379 539.67 539.67 522.523 541.91 
591.643 626.789 683.296 693.641 758.514 740.733 711.207 610.089 695.096 
572.171 659.387 640.804 664.721 735.212 722.27 751.195 821.727 855.142 
855.142 694.098 587.903 516.806 445.352 319.875 337.244 356.501 441.396 
497.918 593.898 638.101 638.101 553.941 605.29 690.998 738.441 888.551 
1002.39 932.614 945.956 785.682 718.134 603.342 616.415 586.661 560.837 
648.684 567.697 545.419 524.533 553.773 597.85 579.415 579.415 583.216 
595.848 595.848 367.304 455.967 342.51 354.619 313.392 374.577 450.042 
477.877 494.15 551.039 517.092 573.512 502.193 460.311 460.311 506.599 
446.501 504.181 461.71 416.241 330.563 
FIELD FieldData 7
DY_minmax 1 689 double
0.441865 0.107875 0.440502 0.005484 0.419391 0.22689 0.573137 0.77161 0.527059 
0.604072 0.404342 0.211977 0.872029 0.647438 0.176409 0.634301 0.755898 0.432259 
0.269776 0.186896 0.582556 0.443353 0.409729 0.272544 0.468457 0.383721 0.515715 
0 0.423508 0.383351 1 0.752522 0.147702 0.512831 0.290196 0.419419 
0.16761 0.602233 0.624166 0.354432 0.327993 0.275439 0.255752 0.127016 0.324132 
0.100943 0.725132 0.310421 0.579601 0.517012 0.482202 0.429932 0.392046 0.387134 
0.336385 0.336385 0.33513 0.380991 0.39255 0.416177 0.416177 0.474821 0.436807 
0.480263 0.477398 0.452518 0.452518 0.390831 0.414048 0.486577 0.399182 0.404752 
0.378574 0.358431 0.415099 0.346328 0.27417 0.339083 0.354434 0.391629 0.472849 
0.544241 0.813647 0.150364 0.181954 0.213559 0.23248 0.239848 0.277396 0.295022 
0.295022 0.315555 0.295615 0.295615 0.328558 0.444614 0.337515 0.383682 0.336181 
0.291358 0.283176 0.251734 0.216959 0.208087 0.20627 0.204121 0.276435 0.302477 
0.387936 0.479487 0.398621 0.50488 0.44995 0.267983 0.183755 0.150236 0.325863 
0.343108 0.340472 0.361149 0.371153 0.364187 0.33099 0.303257 0.311902 0.349841 
0.348957 0.334075 0.372745 0.442392 0.298338 0.310557 0.295751 0.273169 0.288129 
0.288129 0.308539 0.364977 0.360981 0.371702 0.445322 0.201092 0.272221 0.283532 
0.283532 0.283298 0.319632 0.376386 0.327093 0.339846 0.339846 0.461057 0.479871 
0.536799 0.554078 0.627863 0.638113 0.453217 0.427973 0.400451 0.378674 0.372597 
0.376728 0.416067 0.345508 0.346326 0.589451 0.502926 0.350029 0.323993 0.343332 
0.38526 0.436304 0.535873 0.582911 0.657757 0.533664 0.502926 0.501675 0.525551 
0.512643 0.558531 0.514507 0.465638 0.475843 0.561938 0.53967 0.589454 0.741753 
0.898111 0.438084 0.380848 0.39159 0.16761 0.171745 0.179452 0.202804 0.217251 
0.230031 0.287175 0.371794 0.372497 0.390096 0.361205 0.361205 0.297857 0.249745 
0.289688 0.255486 0.292393 0.270171 0.310371 0.336258 0.346858 0.38453 0.440352 
0.152801 0.147777 0.1696 0.2586 0.242315 0.260182 0.265507 0.245039 0.259774 
0.300881 0.311596 0.346783 0.3327 0.360274 0.31126 0.277278 0.249686 0.217458 
0.258369 0.25908 0.236544 0.25895 0.25895 0.266369 0.270284 0.270284 0.279146 
0.271254 0.291565 0.268965 0.319201 0.319201 0.387588 0.398619 0.398619 0.452099 
0.452099 0.371415 0.287674 0.325007 0.220397 0.205092 0.181878 0.207021 0.146728 
0.179495 0.176833 0.223707 0.181857 0.225502 0.225502 0.266165 0.251992 0.299112 
0.28996 0.313561 0.37755 0.340483 0.310082 0.337642 0.292588 0.213498 0.176957 
0.211225 0.285085 0.277226 0.302681 0.337223 0.31611 0.293671 0.257009 0.273239 
0.237267 0.198327 0.231339 0.206454 0.262126 0.267176 0.245772 0.314046 0.324046 
0.281487 0.278561 0.278698 0.27523 0.326912 0.254245 0.274755 0.254406 0.23841 
0.250307 0.15883 0.138321 0.206325 0.182903 0.219228 0.304178 0.20776 0.212008 
0.228271 0.249098 0.342659 0.311047 0.272549 0.456011 0.501917 0.535628 0.492033 
0.492651 0.474336 0.459594 0.500766 0.572638 0.581786 0.581786 0.646188 0.644387 
0.688461 0.180534 0.24178 0.269601 0.322884 0.263324 0.299512 0.167154 0.174439 
0.164926 0.146676 0.137846 0.605323 0.542247 0.485815 0.403577 0.351988 0.35733 
0.319992 0.341223 0.31585 0.321024 0.35487 0.306862 0.31224 0.364861 0.337814 
0.381331 0.396837 0.402922 0.463538 0.600349 0.425545 0.406176 0.363572 0.57796 
0.6049 0.635434 0.3137 0.247186 0.247186 0.196365 0.271597 0.304807 0.341149 
0.304822 0.296896 0.296896 0.268138 0.304617 0.328722 0.357545 0.424248 0.381208 
0.381208 0.332092 0.323525 0.293483 0.294375 0.353587 0.352759 0.352759 0.378241 
0.383991 0.396315 0.334465 0.328875 0.340208 0.270928 0.338962 0.264125 0.326284 
0.326214 0.353681 0.373892 0.333161 0.374978 0.419679 0.519069 0.439784 0.423371 
0.463963 0.329736 0.339482 0.295572 0.233227 0.233227 0.302618 0.229129 0.34104 
0.295605 0.293555 0.293555 0.205293 0.221797 0.229229 0.207362 0.245311 0.284835 
0.352987 0.0814359 0.257739 0.388756 0.421737 0.379582 0.400202 0.379832 0.340356 
0.40221 0.482763 0.597325 0.641595 0.561459 0.55674 0.540831 0.509899 0.518626 
0.517278 0.527813 0.527813 0.474265 0.419101 0.413662 0.410004 0.426177 0.426177 
0.443642 0.56146 0.592662 0.643908 0.643908 0.677443 0.549392 0.549392 0.466872 
0.488752 0.527482 0.533094 0.586292 0.52696 0.559894 0.50915 0.542559 0.667246 
0.604596 0.703563 0.455551 0.522346 0.50073 0.431912 0.431729 0.393856 0.439909 
0.510815 0.556097 0.478198 0.473909 0.532192 0.537265 0.584477 0.550292 0.457047 
0.573281 0.520096 0.195915 0.182829 0.251612 0.288879 0.224631 0.245918 0.313911 
0.295254 0.402857 0.400293 0.314308 0.430364 0.56245 0.661451 0.75431 0.787667 
0.647438 0.599594 0.699246 0.598071 0.326088 0.244836 0.255743 0.260509 0.253787 
0.268851 0.201671 0.20011 0.225298 0.252366 0.228838 0.291105 0.299894 0.361293 
0.399927 0.376595 0.338441 0.295821 0.246403 0.180289 0.198905 0.212676 0.270822 
0.313551 0.332364 0.306157 0.338621 0.306784 0.344081 0.270297 0.244389 0.237552 
0.253757 0.768619 0.730202 0.656302 0.719878 0.678817 0.21836 0.233672 0.279218 
0.268337 0.24152 0.298186 0.473757 0.571603 0.526074 0.510289 0.521215 0.544088 
0.440502 0.803533 0.872029 0.244661 0.340676 0.380343 0.296577 0.38532 0.424876 
0.572679 0.602022 0.626533 0.636423 0.572232 0.439261 0.436028 0.426549 0.406365 
0.388344 0.353318 0.357712 0.357712 0.390774 0.475577 0.46254 0.459746 0.458673 
0.428397 0.412129 0.433393 0.334574 0.292287 0.266987 0.281994 0.300381 0.319899 
0.363482 0.25302 0.273343 0.544358 0.48907 0.436265 0.436265 0.417287 0.438745 
0.493789 0.53269 0.595233 0.606682 0.678485 0.658805 0.626125 0.514206 0.608293 
0.472238 0.56877 0.548202 0.574673 0.652694 0.638369 0.670384 0.74845 0.785434 
0.785434 0.607188 0.48965 0.410958 0.331872 0.192993 0.212217 0.233531 0.327494 
0.390054 0.496285 0.54521 0.54521 0.45206 0.508894 0.603757 0.656268 0.822412 
0.948407 0.871181 0.885949 0.708555 0.633792 0.506738 0.521207 0.488275 0.459693 
0.556924 0.467285 0.442628 0.419511 0.451875 0.500659 0.480255 0.480255 0.484463 
0.498443 0.498443 0.245488 0.343622 0.218045 0.231448 0.185818 0.253538 0.337064 
0.367872 0.385882 0.448849 0.411275 0.473721 0.394785 0.348429 0.348429 0.399662 
0.333145 0.396985 0.349977 0.299652 0.204822 
WidthEq 1 689 double
1.06727 1.24395 1.58136 1.07053 1.23891 3.80625 2.02205 2.85305 3.08441 
3.41611 2.09128 3.5894 1.48298 2.01586 4.09511 2.86563 2.46809 1.56587 
2.83959 3.45353 2.64289 3.04361 1.81866 3.06511 3.87387 4.16316 3.60699 
1.20938 1 2.88585 1.37621 1.1872 4.14599 2.50423 2.85457 2.98029 
2.21186 2.48353 1.84884 2.32668 2.68098 3.35906 1.92949 1.1873 2.80984 
1.77046 2.57015 2.13577 2.49709 2.5993 2.53717 2.41869 2.42445 2.37626 
2.45924 2.45924 2.26595 2.26089 2.21036 2.12261 2.12261 2.06549 2.08907 
2.02484 2.16018 2.26675 2.26675 2.30222 2.16226 2.00807 2.10201 2.12467 
2.21918 2.22695 2.17547 2.56822 3.0498 2.39465 2.94182 2.95836 2.80768 
2.60724 2.55754 2.46305 3.14153 3.19782 3.45591 3.39976 3.25387 2.90395 
2.90395 2.66925 2.36418 2.36418 2.16532 1.69216 1.87906 1.89152 2.14256 
2.18016 2.43571 2.7175 2.7777 2.93282 3.01992 2.95658 2.69229 2.58338 
2.28019 1.92791 2.22063 1.84773 2.01717 2.88089 3.63393 4.10857 3.06351 
2.95112 2.70655 2.46812 2.22883 1.93461 2.19938 2.26362 2.36137 2.82202 
3.0596 3.21091 3.48854 3.71587 3.00969 3.07248 3.13509 3.21524 3.19502 
3.19502 3.16153 3.02308 3.13927 3.37412 3.79966 1.94859 2.24186 2.91693 
2.91693 3.25337 3.33663 3.159 3.032 2.78084 2.78084 2.39952 2.37598 
2.31946 2.38683 2.27658 2.21429 3.46272 3.42345 3.5125 3.28723 3.44811 
3.53674 3.71279 3.79026 3.93598 2.58228 2.63459 2.62431 2.67178 2.87924 
2.93049 2.93641 2.6386 2.61281 2.40493 2.31518 2.51529 2.67537 2.76991 
2.93641 2.67138 3.0222 3.2776 3.26938 2.18331 2.92999 2.87327 2.2678 
1.75309 2.89901 3.14193 3.16273 2.21186 2.95165 3.0511 2.88558 2.81397 
2.66238 2.26863 2.07669 2.07744 1.93616 2.24602 2.24602 2.79973 3.26502 
3.20958 3.71832 3.61579 3.60679 3.31324 3.55255 3.45571 3.74472 3.31021 
3.55701 3.41016 3.02388 2.81367 2.65567 3.38009 3.32735 3.50463 3.40372 
3.28269 3.09341 3.07764 3.119 2.88573 3.08321 3.19717 3.37926 3.52456 
3.38778 3.42362 3.46388 3.3754 3.3754 3.258 3.08358 3.08358 2.9736 
2.91122 2.64775 2.54143 2.47531 2.47531 2.52812 2.5228 2.5228 2.38738 
2.38738 2.72595 3.15045 2.86806 3.24562 3.13135 3.44087 2.90776 2.94094 
2.76542 2.42786 2.24369 2.35375 2.25876 2.25876 2.19128 2.22156 2.10847 
2.09238 2.0697 1.9626 2.23863 2.41734 2.6503 3.06799 3.61569 3.70341 
3.58656 3.20442 3.06012 2.79512 2.64236 2.66151 2.71946 2.77923 2.65088 
2.66895 2.71835 2.60539 2.6211 2.41917 2.45721 2.58737 2.41613 2.31535 
2.44448 2.35387 2.36027 2.30089 2.32144 2.42826 2.61296 2.76916 2.91102 
3.385 3.89695 3.76141 3.40733 3.51029 3.31206 2.83257 2.86277 2.69269 
2.59115 2.78715 2.7547 2.80104 2.92445 2.54529 2.56165 2.73494 2.55022 
2.53824 2.39553 2.34154 2.38225 2.32721 2.5504 2.5504 2.39185 2.41202 
2.35941 3.99443 3.55027 3.45017 3.12559 3.14391 3.02057 3.91082 3.67654 
3.77236 4.40871 4.45871 1.72249 1.79981 1.98371 2.33297 2.31703 2.45882 
2.7082 2.65842 2.59644 2.50132 2.47947 2.54489 2.43681 2.4016 2.54125 
2.49366 2.42498 2.47162 2.3847 2.20093 4.05977 4.34031 4.51776 2.72429 
2.42806 2.21928 1.11422 1.32129 1.32129 1.99709 2.38362 2.37588 2.51175 
2.85776 2.93124 2.93124 3.01228 2.82966 2.72404 2.65233 2.46837 2.58258 
2.58258 2.68637 2.65451 2.74116 2.72833 2.50544 2.44049 2.44049 2.28352 
2.29064 2.2558 2.31956 2.32219 2.28031 2.37189 2.2863 2.38004 2.27565 
2.27933 2.21101 2.12654 2.23209 2.20605 2.11389 1.89666 2.01631 2.09807 
1.99303 2.3916 2.3253 2.48152 2.65276 2.65276 2.47912 2.71622 2.41912 
2.64291 2.60925 2.60925 2.70407 2.79828 2.68615 2.69038 2.57742 2.32971 
1.88934 1.63158 2.00927 2.18477 2.40322 2.54027 2.4898 2.57679 2.44212 
2.33207 1.90358 1.59502 1.52145 1.53243 1.50564 1.51521 1.59351 1.48982 
1.58251 1.63993 1.63993 1.6861 1.76858 1.72951 1.747 1.82325 1.82325 
1.8924 1.78964 1.75836 1.71074 1.71074 1.69026 1.90719 1.90719 2.00273 
1.94934 1.85297 1.88608 1.82956 1.98275 2.07088 2.3552 2.38079 2.31741 
2.54521 2.58717 4.04002 3.90279 4.01403 3.86976 3.63461 3.61604 3.50847 
3.22289 2.90698 3.19396 3.06356 3.69519 3.55867 3.25347 3.1704 3.39806 
3.24885 3.20216 3.18349 3.12539 3.0824 3.07103 3.30846 3.26179 3.04957 
3.11551 2.79763 2.80041 2.88653 2.71159 2.49789 1.94699 1.58782 1.75956 
2.01586 3.0011 2.91726 3.278 2.98147 3.06727 2.83412 2.77527 2.79447 
2.82232 3.81429 3.82836 3.58621 3.01799 3.06952 2.31533 2.34651 2.20903 
2.27284 2.50195 2.64587 2.61426 2.89844 3.21178 3.21833 3.22276 3.15642 
2.9936 2.96132 3.07875 3.06629 3.31648 3.24336 3.35638 3.50957 3.67404 
3.48172 2.88753 2.80197 3.03561 3.04426 3.10203 3.50042 3.32392 2.62547 
2.56835 2.54541 2.29568 1.83077 1.67635 1.70961 1.64106 1.62905 1.54193 
1.58136 1.73993 1.48298 3.63827 2.94069 2.6481 2.53857 2.22324 2.11715 
1.91152 1.80139 1.78487 1.78538 1.82778 1.94568 1.94842 1.92155 1.96907 
2.03694 1.95969 1.87606 1.87606 1.70525 1.63043 1.70374 1.7439 1.7081 
1.84079 1.90796 1.86774 2.06494 2.28119 2.33315 2.25274 2.247 1.7946 
1.34543 3.08852 2.95506 3.68316 3.54714 3.57238 3.57238 3.50248 3.46719 
3.57125 3.5606 3.54368 3.42671 3.29673 3.32014 3.29823 3.44891 3.20241 
2.53336 2.22485 2.41641 2.33508 2.1273 2.05672 2.03987 1.96137 1.75029 
1.75029 1.93694 2.29806 2.73061 3.2064 3.89385 3.4036 3.0788 2.40488 
2.21254 1.81089 1.66462 1.66462 1.70124 1.646 1.49441 1.51574 1.48839 
1.30944 1.41649 1.32939 1.40378 1.33322 1.53832 1.40067 1.50945 1.68936 
1.40984 1.60366 1.78111 1.93014 1.85851 1.78124 1.83438 1.83438 1.68515 
1.43012 1.43012 1.60138 1.57446 1.76863 1.79899 1.85044 1.68279 1.53018 
1.57882 1.58732 1.48997 1.63772 1.52875 1.68181 1.85282 1.85282 1.79127 
2.06907 1.85944 1.85072 1.776 1.93248 
rRFP 1 689 double
2688.21 2758.7 2893.32 2689.51 2756.69 3781.01 3069.15 3400.7 3493.01 
3625.35 3096.77 3694.49 2854.07 3066.68 3896.26 3405.72 3247.11 2887.14 
3395.33 3640.28 3316.85 3476.73 2988 3485.31 3807.99 3923.41 3701.51 
2744.91 2661.37 3413.79 2811.47 2736.06 3916.56 3261.53 3401.31 3451.47 
3144.88 3253.27 3000.04 3190.69 3332.05 3602.59 3032.22 2736.1 3383.46 
2968.77 3287.83 3114.52 3258.68 3299.46 3274.67 3227.4 3229.7 3210.47 
3243.58 3243.58 3166.46 3164.44 3144.28 3109.27 3109.27 3086.48 3095.89 
3070.26 3124.26 3166.78 3166.78 3180.93 3125.09 3063.57 3101.05 3110.09 
3147.8 3150.9 3130.36 3287.06 3479.2 3217.81 3436.12 3442.72 3382.6 
3302.63 3282.8 3245.1 3515.8 3538.26 3641.23 3618.83 3560.62 3421.01 
3421.01 3327.37 3205.65 3205.65 3126.31 2937.53 3012.1 3017.07 3117.23 
3132.23 3234.19 3346.62 3370.64 3432.53 3467.28 3442.01 3336.56 3293.11 
3172.14 3031.59 3148.38 2999.6 3067.2 3411.81 3712.26 3901.63 3484.67 
3439.83 3342.25 3247.12 3151.65 3034.26 3139.9 3165.53 3204.53 3388.32 
3483.11 3543.48 3654.25 3744.95 3463.2 3488.25 3513.23 3545.21 3537.14 
3537.14 3523.78 3468.54 3514.9 3608.6 3778.38 3039.84 3156.85 3426.19 
3426.19 3560.42 3593.64 3522.77 3472.1 3371.89 3371.89 3219.75 3210.36 
3187.81 3214.69 3170.7 3145.85 3643.95 3628.28 3663.81 3573.93 3638.12 
3673.48 3743.72 3774.63 3832.77 3292.67 3313.54 3309.44 3328.38 3411.15 
3431.6 3433.96 3315.14 3304.85 3221.91 3186.1 3265.94 3329.81 3367.53 
3433.96 3328.22 3468.19 3570.09 3566.81 3133.49 3431.4 3408.77 3167.2 
2961.84 3419.04 3515.96 3524.26 3144.88 3440.04 3479.72 3413.68 3385.11 
3324.63 3167.53 3090.95 3091.25 3034.88 3158.51 3158.51 3379.43 3565.07 
3542.95 3745.93 3705.02 3701.43 3584.31 3679.79 3641.15 3756.46 3583.1 
3681.57 3622.98 3468.86 3384.99 3321.95 3610.98 3589.94 3660.67 3620.41 
3572.12 3496.6 3490.31 3506.81 3413.74 3492.53 3538 3610.65 3668.62 
3614.05 3628.35 3644.41 3609.11 3609.11 3562.27 3492.68 3492.68 3448.8 
3423.91 3318.79 3276.37 3249.99 3249.99 3271.06 3268.94 3268.94 3214.91 
3214.91 3349.99 3519.36 3406.69 3557.33 3511.74 3635.23 3422.53 3435.77 
3365.74 3231.06 3157.58 3201.49 3163.59 3163.59 3136.67 3148.75 3103.63 
3097.21 3088.16 3045.43 3155.56 3226.86 3319.81 3486.46 3704.98 3739.98 
3693.36 3540.89 3483.32 3377.59 3316.64 3324.28 3347.4 3371.25 3320.04 
3327.25 3346.96 3301.89 3308.16 3227.59 3242.77 3294.7 3226.38 3186.17 
3237.69 3201.54 3204.09 3180.4 3188.6 3231.22 3304.91 3367.23 3423.83 
3612.94 3817.2 3763.12 3621.85 3662.93 3583.84 3392.53 3404.58 3336.72 
3296.21 3374.41 3361.46 3379.95 3429.19 3277.91 3284.44 3353.58 3279.88 