# vtk DataFile Version 3.0
vtk output
ASCII
DATASET POLYDATA
POINTS 530 float
0.95878 -1.12462 0.274561 1.09995 -1.0779 1.53199 2.0565 -1.03217 1.51913 
1.58543 -0.93337 1.67344 1.99969 -0.900895 0.0603778 2.32397 -0.876824 1.44965 
0.60636 -0.577685 1.77572 1.95912 -0.575514 2.1458 -0.0745056 -0.368046 -0.110655 
-0.292658 -0.312453 0.247761 -0.374755 -0.295072 0.31888 0.307898 -0.338811 1.54294 
2.93638 -0.638981 0.226955 2.95983 -0.343216 1.1553 1.13993 -0.235802 2.19468 
2.37645 -0.243961 2.03611 -0.180215 0.036614 -0.445014 1.14866 -0.0256017 2.35076 
-0.651617 0.348387 0.125581 2.85375 0.0910223 2.16494 -0.589863 0.517718 -0.29821 
-0.784935 0.611428 0.8148 0.102961 0.524236 1.86106 3.0112 0.637872 1.96847 
2.84396 0.636843 2.21873 2.25209 0.947244 2.40957 0.922606 1.14984 2.29279 
4.68176 0.627634 0.766764 3.3881 0.540113 1.16977 2.97445 0.715597 1.5845 
3.83137 0.679515 1.02293 0.143664 1.41661 -0.833747 2.52344 1.1154 2.27764 
3.0557 0.98476 0.173063 3.32998 0.989573 1.47427 -0.669391 1.55006 -0.21697 
0.0570626 1.66658 1.58561 4.77359 0.936227 1.1121 2.84193 1.48459 1.64058 
5.39384 1.1966 0.318302 5.22412 1.23656 0.53795 2.87275 1.59328 0.0332937 
-0.00903723 2.03003 -0.592809 1.68144 1.90597 2.15455 0.616142 2.06028 1.7945 
5.32739 1.42667 0.610709 -0.146518 2.26708 -0.384102 0.24642 2.42408 -0.0539489 
0.702752 2.48951 1.2508 2.26934 2.30453 0.0986715 2.49261 2.33386 1.28499 
0.719769 2.671 0.91418 1.47181 2.88119 0.823541 1.43903 2.79265 0.892408 
1.38724 2.73565 0.931615 1.31748 2.71749 0.940596 1.24881 2.72148 0.945416 
1.18988 2.73192 0.959736 1.12245 2.74303 0.961267 1.05603 2.75321 0.948739 
0.998863 2.75625 0.925315 0.926564 2.74734 0.912753 0.8344 2.71716 0.910112 
0.615827 2.53816 1.23926 0.558571 2.54592 1.21015 0.504486 2.52057 1.18076 
0.430615 2.48434 1.1681 0.348544 2.45239 1.16308 0.265148 2.4059 1.16307 
0.193564 2.33599 1.18242 0.153522 2.23318 1.24341 0.133516 2.11024 1.3171 
0.124385 1.97023 1.38608 0.0987573 1.82144 1.47377 0.707743 2.58035 1.00624 
0.710418 2.51121 1.07745 0.708073 2.4834 1.15637 0.652593 2.64656 0.8627 
0.603998 2.62948 0.818093 0.564055 2.62374 0.777442 0.519177 2.62668 0.743399 
0.463533 2.63443 0.718986 0.420643 2.63948 0.683523 0.394023 2.64108 0.633966 
0.387533 2.63843 0.566972 0.381199 2.63574 0.499842 0.35755 2.63671 0.447711 
0.332706 2.63039 0.395986 0.323984 2.6131 0.329666 0.313985 2.58853 0.263823 
0.287701 2.58251 0.213346 0.256425 2.59266 0.168452 0.233869 2.60851 0.116778 
0.227912 2.59079 0.0507563 0.231318 2.52663 -0.0115465 2.47196 2.23653 1.36668 
2.46251 2.15194 1.43993 2.47567 2.07766 1.49486 2.50018 2.01608 1.5412 
2.52878 1.9612 1.58463 2.56629 1.90443 1.62036 2.61904 1.82177 1.64098 
2.66958 1.71691 1.66149 2.70902 1.61426 1.68907 2.75692 1.53917 1.69609 
2.80077 1.5007 1.67403 2.22196 2.31053 0.0671013 2.15837 2.32751 0.0501962 
2.09462 2.35208 0.0340627 2.042 2.38184 0.00891885 1.97817 2.40643 -0.00714396 
1.91434 2.43101 -0.0232059 1.86052 2.45348 -0.0479449 1.79677 2.47805 -0.0640784 
1.7308 2.48044 -0.0801732 1.67872 2.45722 -0.110194 1.62681 2.42642 -0.140986 
1.56742 2.41231 -0.164048 1.5219 2.41036 -0.197857 1.48638 2.41385 -0.239707 
1.45961 2.41548 -0.289129 1.44285 2.415 -0.347227 1.40614 2.41119 -0.388672 
1.34828 2.39675 -0.413059 1.29678 2.35831 -0.444837 1.25146 2.311 -0.482602 
1.20862 2.27074 -0.521879 1.168 2.25265 -0.561195 1.12087 2.25104 -0.593614 
1.05472 2.26101 -0.608931 0.979762 2.27285 -0.616612 0.903607 2.27739 -0.623887 
0.833879 2.26547 -0.637988 0.779584 2.22007 -0.667976 0.730602 2.15088 -0.704455 
0.680674 2.0668 -0.741372 0.632019 1.98999 -0.778764 0.584479 1.92051 -0.816491 
0.535498 1.85133 -0.852971 0.475331 1.77066 -0.880888 0.38907 1.66912 -0.88798 
0.279632 1.54871 -0.874387 0.720058 2.45906 1.34003 0.727988 2.43187 1.41531 
0.737623 2.40109 1.4761 0.724573 2.35164 1.5398 0.689287 2.27814 1.60122 
0.654312 2.17576 1.68506 -0.179233 2.17853 -0.315158 -0.231042 2.11412 -0.274154 
-0.299126 2.06613 -0.25595 -0.369959 1.99617 -0.235549 -0.459059 1.88349 -0.225797 
-0.561846 1.72766 -0.221299 5.27635 1.33526 0.574127 0.618978 1.99765 1.89332 
0.638561 1.93779 1.95614 0.673461 1.88167 1.99591 0.722031 1.83012 2.02277 
0.759531 1.77335 2.0585 0.794338 1.69922 2.09533 0.834482 1.57798 2.12847 
0.869148 1.39249 2.19002 0.506042 1.98043 1.79193 0.413747 1.92763 1.7875 
0.340437 1.90886 1.77497 0.283153 1.90185 1.75067 0.221915 1.8856 1.72891 
0.168292 1.83745 1.69633 0.115673 1.7608 1.65018 1.7424 1.79891 2.16618 
1.80678 1.72135 2.17737 1.86847 1.67456 2.19339 1.92005 1.63746 2.21881 
1.98055 1.58337 2.23524 2.04723 1.52042 2.24569 2.11238 1.44774 2.25681 
2.1663 1.34741 2.27855 2.20307 1.17886 2.32987 0.0182841 1.99303 -0.637294 
0.032574 1.92886 -0.690462 0.051563 1.81573 -0.731223 0.0832203 1.63914 -0.772318 
2.87286 1.49156 0.0970001 2.90443 1.39073 0.134197 2.94288 1.28098 0.166227 
2.99924 1.14494 0.183825 5.23999 1.23034 0.472722 5.27209 1.22253 0.426617 
5.31182 1.21397 0.389504 5.35279 1.20529 0.353861 5.14361 1.15271 0.550579 
5.08454 1.06676 0.588461 5.03673 0.983422 0.639102 4.96483 0.899131 0.669022 
4.85802 0.77977 0.709263 4.7772 0.920091 1.0352 4.77314 0.871377 0.958283 
4.74602 0.76961 0.873214 -0.0074759 1.41397 1.67453 -0.0457032 1.18408 1.75403 
-0.0429821 0.986102 1.80661 -0.00429224 0.818304 1.83202 0.0479758 0.66778 1.8474 
-0.693328 1.3475 -0.280167 -0.702006 1.14345 -0.325383 -0.675723 0.935961 -0.329403 
-0.634046 0.726963 -0.315283 -0.659315 1.65014 -0.144899 -0.65266 1.72072 -0.072384 
-0.644519 1.75324 -0.00430148 -0.628646 1.76146 0.0551948 -0.625282 1.76478 0.124898 
-0.629292 1.76966 0.200989 -0.633303 1.77455 0.27708 -0.628663 1.78515 0.346307 
-0.610081 1.80035 0.404086 -0.592791 1.82337 0.463613 -0.566581 1.82941 0.514155 
-0.544127 1.82113 0.566691 -0.544011 1.79493 0.636689 -0.552551 1.76302 0.713559 
-0.558731 1.70793 0.786349 -0.558503 1.62868 0.849008 -0.583051 1.5159 0.911695 
-0.635974 1.37607 0.945099 -0.697383 1.20511 0.934261 -0.745968 1.01604 0.905946 
-0.765567 0.81425 0.869332 2.37714 1.03799 2.32523 3.35957 0.974589 1.42701 
3.37172 0.946489 1.36283 3.37865 0.892935 1.29878 3.39215 0.812729 1.24781 
3.39967 0.699711 1.19764 3.05191 0.839256 0.113646 3.01644 0.714105 0.0565575 
2.98416 0.611087 0.00156318 2.93324 0.519658 -0.0352354 2.86839 0.45383 -0.0579621 
2.82315 0.406514 -0.0957932 2.79272 0.378715 -0.14457 2.74104 0.355417 -0.174933 
2.6909 0.316692 -0.207893 2.64566 0.269364 -0.24573 2.6029 0.229078 -0.285078 
2.56261 0.203369 -0.325308 2.52231 0.177659 -0.365537 2.47963 0.137355 -0.404956 
2.43448 0.0824657 -0.443494 2.38669 0.0205789 -0.480378 2.33008 -0.039431 -0.509472 
2.25563 -0.0879756 -0.520078 2.18112 -0.120667 -0.516186 2.11742 -0.139437 -0.5004 
2.04522 -0.157518 -0.49724 1.97171 -0.191144 -0.507254 1.90831 -0.234476 -0.526664 
1.84117 -0.268729 -0.52916 1.77995 -0.280468 -0.514877 1.70997 -0.276365 -0.511764 
1.63346 -0.271611 -0.516181 1.55338 -0.281335 -0.521173 1.46965 -0.312948 -0.525032 
1.38599 -0.344578 -0.528807 1.3059 -0.361719 -0.532009 1.23703 -0.350297 -0.529229 
1.17802 -0.339842 -0.514839 1.10809 -0.343144 -0.509689 1.03455 -0.375768 -0.501533 
0.973753 -0.424471 -0.474747 0.914129 -0.473289 -0.446575 0.848363 -0.506666 -0.429266 
0.795964 -0.519108 -0.401645 0.751228 -0.517474 -0.368617 0.702476 -0.508027 -0.342135 
0.644005 -0.505045 -0.325292 0.599374 -0.51825 -0.288516 0.567323 -0.554938 -0.23148 
0.524364 -0.597984 -0.185482 0.470874 -0.632566 -0.153708 0.415214 -0.644688 -0.129929 
0.373733 -0.643374 -0.093066 0.31264 -0.632715 -0.0811252 0.238569 -0.620782 -0.0844789 
0.163263 -0.601302 -0.090993 0.0900212 -0.559668 -0.098543 0.014325 -0.48005 -0.106022 
2.61132 1.01991 2.27211 2.66287 0.934515 2.25125 2.70473 0.848866 2.23096 
2.7653 0.750321 2.22549 2.49922 0.854824 2.3532 2.44257 0.643515 2.40845 
2.37616 0.526014 2.44312 2.31626 0.535842 2.45494 2.28166 0.691645 2.45127 
0.0178059 1.11979 -0.841685 -0.0559605 0.853018 -0.786702 -0.0940773 0.625496 -0.709471 
-0.113304 0.420908 -0.637476 -0.142652 0.227584 -0.550329 2.95696 0.749333 2.01652 
2.92647 0.793606 2.07538 2.88768 0.746999 2.13696 2.9794 0.681286 1.84988 
2.95723 0.706485 1.77031 2.95778 0.7131 1.68802 3.1305 0.822664 1.90811 
3.20911 0.950817 1.85851 3.25213 1.00495 1.80949 3.25893 1.01655 1.75084 
3.23506 1.01772 1.70158 3.19766 1.00902 1.66041 3.14442 0.965872 1.62883 
3.06428 0.865189 1.61011 3.88734 0.706445 0.995893 3.94839 0.710618 0.980281 
3.99727 0.69374 0.955757 4.04493 0.662153 0.933428 4.10884 0.636389 0.928431 
4.17394 0.617917 0.923028 4.22526 0.608218 0.899567 4.27664 0.598513 0.87619 
4.34503 0.590817 0.871499 4.42612 0.592566 0.871088 4.53145 0.607764 0.846013 
0.763601 0.94946 2.29392 0.668766 0.786199 2.27257 0.610075 0.677409 2.23868 
0.560191 0.603684 2.20247 0.506143 0.550678 2.17164 0.441893 0.514941 2.15091 
0.386442 0.499995 2.12444 0.336984 0.49888 2.09403 0.312611 0.500008 2.04253 
0.28311 0.502222 1.99547 0.240056 0.507306 1.96015 0.184412 0.515055 1.93574 
0.14 0.520426 1.90159 1.04971 1.16985 2.36779 1.13783 1.18287 2.40506 
1.1984 1.18572 2.43188 1.26664 1.17816 2.44592 1.34177 1.16629 2.45346 
1.41825 1.15412 2.45982 1.49362 1.13464 2.46652 1.5666 1.10057 2.47402 
1.636 1.0446 2.48274 1.7042 0.98132 2.49187 1.7736 0.92535 2.50059 
1.84658 0.891277 2.5081 1.92069 0.864502 2.51512 1.99449 0.842699 2.52032 
2.06555 0.835738 2.51425 2.14248 0.873687 2.47656 2.97077 0.640972 1.49332 
2.97838 0.546175 1.43307 2.98313 0.427271 1.38149 3.0011 0.286523 1.35142 
3.02219 0.115705 1.33068 3.00574 -0.095657 1.26638 3.28956 0.318352 1.16521 
3.14286 0.0153997 1.1659 0.986222 0.810374 2.34032 1.01645 0.539953 2.3822 
1.04738 0.344014 2.3968 1.07567 0.198603 2.38278 1.10965 0.0793648 2.36619 
2.85134 0.360893 2.18947 2.9494 0.352982 2.10476 0.0985286 0.393927 1.80272 
0.111448 0.269343 1.76302 0.133212 0.158708 1.73011 0.149773 0.0485942 1.69107 
0.157808 -0.053273 1.64017 0.175706 -0.156099 1.60089 0.204881 -0.237795 1.56947 
0.246449 -0.29845 1.54721 -0.805255 0.641907 0.762302 -0.817768 0.648079 0.701155 
-0.83635 0.632873 0.643376 -0.842113 0.61497 0.574638 -0.837969 0.602647 0.50035 
-0.82475 0.596699 0.432164 -0.801615 0.582349 0.37731 -0.783011 0.553615 0.32074 
-0.75807 0.502005 0.276967 -0.732879 0.442833 0.233336 -0.706738 0.390328 0.176983 
-0.763745 0.44483 0.855214 -0.719023 0.303448 0.877761 -0.659577 0.196715 0.890555 
-0.596356 0.111686 0.899417 -0.538361 0.0419977 0.898327 -0.496728 -0.0186642 0.876143 
-0.462774 -0.071153 0.843098 -0.437782 -0.13018 0.801305 -0.423893 -0.188128 0.746432 
-0.406728 -0.238968 0.693604 -0.397009 -0.26683 0.626563 -0.391424 -0.279456 0.551027 
-0.385821 -0.284666 0.473701 -0.380288 -0.289869 0.396291 -0.558176 0.443194 -0.328486 
-0.517732 0.37523 -0.350258 -0.458671 0.320276 -0.353718 -0.397151 0.279909 -0.357905 
-0.350605 0.241006 -0.379843 -0.306253 0.187381 -0.402711 -0.247257 0.116812 -0.416722 
-0.610923 0.428027 -0.215532 -0.627207 0.367547 -0.134418 -0.637586 0.343617 -0.0544304 
-0.64477 0.341953 0.0298809 2.78965 -0.00516355 2.13904 2.71053 -0.0830724 2.12741 
2.63245 -0.1461 2.11614 2.56669 -0.196627 2.09545 2.49339 -0.230447 2.08256 
2.42503 -0.24266 2.06727 -0.57644 0.172265 0.153555 -0.522386 0.0295847 0.180217 
-0.490508 -0.0712038 0.218833 -0.463816 -0.148345 0.262126 -0.428622 -0.219727 0.298591 
1.15092 -0.127292 2.28601 -0.158146 -0.0300932 -0.362851 -0.135673 -0.0980994 -0.303073 
-0.119755 -0.172765 -0.246948 -0.10945 -0.26086 -0.178519 2.95918 -0.37401 0.98989 
2.96128 -0.395391 0.881676 2.96408 -0.406991 0.801275 2.95772 -0.418927 0.733145 
2.93032 -0.432257 0.683008 2.89427 -0.451309 0.639735 2.86798 -0.457331 0.589258 
2.86285 -0.45272 0.521723 2.86161 -0.433827 0.452213 2.85056 -0.42027 0.393118 
2.85621 -0.424475 0.334037 2.88203 -0.461173 0.290724 2.91093 -0.535403 0.25733 
1.06749 -0.384685 2.14295 1.0541 -0.482686 2.09838 1.09632 -0.489789 2.09485 
1.13477 -0.39637 2.13076 1.2246 -0.317731 2.18715 1.28394 -0.388333 2.17355 
1.34829 -0.436503 2.17243 1.42361 -0.448565 2.17715 1.50356 -0.431409 2.18018 
1.57595 -0.413511 2.1743 1.62845 -0.415908 2.15059 1.67601 -0.439902 2.12927 
1.73234 -0.463922 2.13354 1.78492 -0.486278 2.15651 1.84881 -0.511041 2.16968 
1.9114 -0.543931 2.16789 2.79298 -0.538696 1.18936 2.69121 -0.692806 1.22796 
2.61997 -0.791298 1.25977 2.55017 -0.848174 1.27843 2.49426 -0.882519 1.30735 
2.44839 -0.895601 1.34265 2.40607 -0.894206 1.37853 2.36502 -0.885515 1.41409 
0.361764 -0.414156 1.56323 0.39807 -0.478228 1.59936 0.428025 -0.525847 1.64225 
0.461481 -0.551552 1.684 0.504698 -0.564225 1.71855 0.560499 -0.572008 1.74283 
0.296299 -0.438568 1.47219 0.280666 -0.507252 1.40745 0.250791 -0.535167 1.3582 
0.215603 -0.539304 1.31543 0.180251 -0.535851 1.27344 0.146176 -0.532668 1.23034 
0.119639 -0.531081 1.18071 0.105774 -0.532178 1.12011 0.0881332 -0.532474 1.06277 
0.0757912 -0.533893 1.00085 0.0595903 -0.534495 0.942262 0.0547044 -0.537492 0.873878 
0.0498929 -0.540505 0.805429 0.0350653 -0.541397 0.745656 0.030254 -0.54441 0.677207 
0.0254427 -0.547423 0.608759 0.0106151 -0.548315 0.548986 0.00580363 -0.551328 0.480537 
0.00091726 -0.554325 0.412152 -0.015283 -0.554927 0.353569 -0.0276251 -0.556345 0.291644 
-0.0452663 -0.556642 0.234309 -0.0590487 -0.557756 0.173631 -0.0828721 -0.549192 0.122229 
-0.101676 -0.519083 0.0675202 -0.0952749 -0.456846 -0.0110778 -0.333707 -0.303763 0.283321 
1.95672 -0.951349 0.108174 1.91955 -0.980125 0.157364 1.86746 -0.977759 0.181724 
1.8199 -0.96102 0.207801 1.76872 -0.958743 0.233227 1.70402 -0.977397 0.248173 
1.64028 -1.00356 0.266059 1.5679 -1.01404 0.270138 1.49139 -1.00929 0.265721 
1.4137 -1.00442 0.259919 1.33356 -1.01414 0.254844 1.2499 -1.04576 0.251068 
1.16622 -1.0848 0.249083 1.09019 -1.11717 0.254293 1.02759 -1.12861 0.2699 
1.51167 -0.924776 1.6447 1.44556 -0.921201 1.61569 1.39658 -0.926333 1.58216 
1.34669 -0.944349 1.55058 1.28227 -0.980044 1.53013 1.22039 -1.0237 1.50941 
1.15459 -1.05809 1.50831 1.66189 -0.948665 1.65712 1.73087 -0.966501 1.64058 
1.78946 -0.980783 1.62383 1.85672 -0.993909 1.61944 1.92302 -1.00508 1.61363 
1.97302 -1.01465 1.58862 2.01538 -1.02347 1.55461 
LINES 52 637
12 52 53 54 55 56 57 58 59 60 61 62 51 
13 48 63 64 65 66 67 68 69 70 71 72 73 36 
5 51 74 75 76 48 
20 51 77 78 79 80 81 82 83 84 85 86 87 88 89 90 91 92 93 94 47 
13 50 95 96 97 98 99 100 101 102 103 104 105 38 
38 49 106 107 108 109 110 111 112 113 114 115 116 117 118 119 120 121 122 123 124 125 126 127 128 129 130 131 132 133 134 135 136 137 138 139 140 141 31 
8 48 142 143 144 145 146 147 44 
8 46 148 149 150 151 152 153 35 
3 45 154 40 
10 44 155 156 157 158 159 160 161 162 26 
9 44 163 164 165 166 167 168 169 36 
11 43 170 171 172 173 174 175 176 177 178 25 
6 42 179 180 181 182 31 
6 40 187 188 189 190 39 
7 40 191 192 193 194 195 27 
5 37 196 197 198 27 
7 36 199 200 201 202 203 22 
6 35 204 205 206 207 20 
23 35 208 209 210 211 212 213 214 215 216 217 218 219 220 221 222 223 224 225 226 227 228 21 
3 25 229 32 
6 32 288 289 290 291 24 
7 32 292 293 294 295 296 25 
7 31 297 298 299 300 301 16 
5 23 302 303 304 24 
5 23 305 306 307 29 
10 23 308 309 310 311 312 313 314 315 29 
13 30 316 317 318 319 320 321 322 323 324 325 326 27 
15 26 327 328 329 330 331 332 333 334 335 336 337 338 339 22 
18 26 340 341 342 343 344 345 346 347 348 349 350 351 352 353 354 355 25 
8 29 356 357 358 359 360 361 13 
3 24 369 19 
3 23 370 19 
10 22 371 372 373 374 375 376 377 378 11 
13 21 379 380 381 382 383 384 385 386 387 388 389 18 
16 21 390 391 392 393 394 395 396 397 398 399 400 401 402 403 10 
9 20 404 405 406 407 408 409 410 16 
6 20 411 412 413 414 18 
8 19 415 416 417 418 419 420 15 
7 18 421 422 423 424 425 10 
6 16 427 428 429 430 8 
15 13 431 432 433 434 435 436 437 438 439 440 441 442 443 12 
6 14 444 445 446 447 14 
14 14 448 449 450 451 452 453 454 455 456 457 458 459 7 
10 13 460 461 462 463 464 465 466 467 5 
8 11 468 469 470 471 472 473 6 
28 11 474 475 476 477 478 479 480 481 482 483 484 485 486 487 488 489 490 491 492 493 494 495 496 497 498 499 8 
3 10 500 9 
17 4 501 502 503 504 505 506 507 508 509 510 511 512 513 514 515 0 
60 41 183 184 185 186 33 235 236 237 238 239 240 241 242 243 244 245 246 247 248 249 250 251 252 253 254 255 256 257 258 259 260 261 262 263 264 265 266 267 268 269 270 271 272 273 274 275 276 277 278 279 280 281 282 283 284 285 286 287 8 
10 34 230 231 232 233 234 28 362 363 13 
9 26 364 365 366 367 368 17 426 14 
17 1 522 521 520 519 518 517 516 3 523 524 525 526 527 528 529 2 

POINT_DATA 530
SCALARS DY_raw double
LOOKUP_TABLE default
166.659 112.158 111.555 124.026 131.195 51.0483 148.778 238.186 106.735 
120.385 116.374 127.891 207.543 108.903 148.125 181.997 126.471 115.686 
75.245 106.809 116.382 138.485 110.786 161.817 116.668 113.937 166.742 
168.24 120.337 115.433 0 103.099 81.8745 127.989 67.9949 124.692 
126.874 75.2677 115.901 169.862 81.758 76.709 86.0484 115.119 103.518 
23.0194 82.6307 191.846 133.5 108.538 79.1147 129.577 95.9646 87.3435 
99.9495 94.5709 89.4491 105.426 112.017 120.94 125.428 128.629 135.688 
110.683 107.463 102.003 94.0672 77.7881 62.2829 81.4113 85.9231 97.9525 
117.336 137.155 156.863 149.457 147.947 146.175 141.46 118.473 110.824 
111.308 107.687 107.687 112.579 102.819 101.72 89.3546 96.6725 99.2738 
99.5978 106.32 112.847 129.954 147.943 100.024 109.654 125.462 108.041 
97.1387 105.695 99.5156 114.446 121.386 120.618 127.714 108.538 95.8897 
115.789 100.485 108.98 107.434 97.0379 102.198 94.0205 94.0205 90.162 
90.162 91.5474 96.788 96.788 101.312 114.503 128.817 139.613 154.409 
150.446 143.946 143.946 115.569 106.909 99.8012 91.2604 97.51 115.229 
98.2775 121.707 131.486 111.475 114.048 119.669 118.704 122.258 131.728 
116.388 106.941 104.572 106.526 99.2086 101.659 93.7929 98.3061 102.561 
104.364 41.0357 89.9881 103.691 91.1345 75.2401 79.1112 84.3578 110.045 
152.416 116.744 114.984 99.5809 63.7803 58.6573 74.0964 99.0443 113.685 
123.175 151.738 113.076 112.179 134.355 105.982 116.97 139.361 92.8783 
107.216 122.037 119.858 93.8237 98.5492 109.128 113.099 90.9769 103.131 
122.027 150.881 97.565 138.865 123.498 142.947 182.871 122.956 135.772 
147.637 131.291 122.41 148.354 142.643 149.698 125.748 126.401 117.247 
122.77 100.213 85.863 83.6481 79.8907 79.3791 118.147 117.789 115.495 
113.59 113.59 96.1875 97.8656 88.3214 100.487 104.086 104.166 124.625 
119.375 119.34 122.447 131.9 126.295 67.9949 68.5107 68.1377 87.5488 
104.957 134.625 142.606 142.39 125.618 134.327 119.338 114.869 125.19 
116.462 128.978 110.119 96.6303 96.6303 104.825 105.408 111.795 127.518 
127.398 121.718 144.389 123.024 126.092 103.014 101.136 88.1981 112.437 
96.0943 103.9 98.6847 95.9958 109.813 81.799 81.9293 97.6446 87.6611 
102.161 138.965 98.2158 112.225 99.7231 90.1614 90.1614 81.6503 88.6177 
102.178 95.0297 95.0297 102.002 92.0345 103.261 102.253 125.795 128.576 
80.9772 123.774 118.642 137.432 133.164 155.858 145.048 145.048 143.771 
103.621 110.377 114.523 112.577 111.24 140.652 131.187 132.433 141.975 
138.342 112.96 127.028 102.844 62.6253 67.9202 76.6312 82.9311 92.3318 
105.767 47.14 47.14 73.227 108.857 111.117 123.916 130.534 111.13 
103.641 88.7213 104.563 127.415 122.919 135.672 148.04 164.888 162.945 
123.558 123.558 132.605 123.811 123.811 106.552 106.552 98.2644 82.2591 
85.9435 100.926 117.139 112.249 146.92 125.312 126.848 195.39 166.36 
166.36 164.974 148.439 132.931 103.145 124.572 132.929 130.761 93.5367 
86.6077 102.842 117.281 110.245 146.978 161.277 157.107 144.846 127.889 
86.7013 118.539 138.112 137.382 123.589 139.181 129.676 122.043 118.396 
130.527 131.899 131.899 131.301 118.794 99.8974 96.8045 87.8793 80.1144 
73.7779 74.2437 66.333 137.441 157.651 144.867 134.947 114.689 110.364 
99.0645 97.5459 106.116 100.889 88.0066 83.8367 83.8367 91.9446 147.608 
164.521 151.245 131.001 105.322 91.4055 110.16 128.579 97.5435 97.2666 
84.8914 128.205 132.317 142.512 140.97 158.829 154.513 95.0455 101.157 
123.481 110.35 91.2536 123.675 117.372 109.561 88.189 96.0832 95.5862 
78.6646 88.7054 75.5371 75.2051 80.5147 108.578 114.529 114.529 119.78 
124.465 126.086 144.329 180.513 189.415 198.25 159.122 130.242 134.774 
128.489 128.737 119.753 97.8902 89.8044 99.554 118.387 132.461 164.978 
185.748 91.8059 101.792 111.093 105.523 65.4564 65.4564 55.3668 51.0483 
110.788 113.573 140.218 133.709 154.353 150.372 144.022 155.605 134.211 
154.382 118.477 103.673 103.673 76.0663 80.1432 80.1432 80.8402 87.8614 
85.3058 95.9052 95.9052 104.636 127.337 127.337 108.189 103.702 103.702 
104.254 104.254 113.171 121.275 127.842 116.374 127.481 126.233 121.074 
128.115 115.011 113.539 140.041 143.629 167.644 154.546 159.505 159.505 
137.483 152.47 178.78 131.358 126.162 116.141 106.598 93.8739 98.0476 
98.1195 125.03 123.158 105.709 96.2884 87.9826 90.1334 90.1334 
FIELD FieldData 7
DY_minmax 1 530 double
0.699702 0.470882 0.468354 0.520711 0.550811 0.214321 0.62463 1 0.448116 
0.505426 0.488587 0.536938 0.871351 0.457218 0.62189 0.764098 0.530977 0.485698 
0.315909 0.448428 0.488617 0.581418 0.465123 0.679373 0.48982 0.478352 0.700052 
0.706338 0.505224 0.484632 0 0.432852 0.343742 0.53735 0.28547 0.523506 
0.532667 0.316004 0.486597 0.713149 0.343253 0.322055 0.361266 0.483314 0.434611 
0.0966449 0.346917 0.805447 0.560489 0.455685 0.332155 0.544016 0.402898 0.366703 
0.419628 0.397047 0.375543 0.442619 0.470291 0.507754 0.526597 0.540037 0.569675 
0.464692 0.451173 0.42825 0.394932 0.326586 0.261489 0.341797 0.36074 0.411244 
0.492624 0.575832 0.658575 0.627483 0.621141 0.613701 0.593905 0.497398 0.465282 
0.467316 0.452112 0.452112 0.472651 0.431676 0.427063 0.375147 0.40587 0.416792 
0.418152 0.446373 0.473777 0.545601 0.621126 0.419939 0.460371 0.526741 0.453598 
0.407827 0.443751 0.417807 0.480489 0.509628 0.506404 0.536194 0.455685 0.402584 
0.486128 0.421877 0.457542 0.451049 0.407404 0.42907 0.394736 0.394736 0.378536 
0.378536 0.384353 0.406355 0.406355 0.425349 0.480731 0.540827 0.586153 0.648272 
0.631632 0.604345 0.604345 0.485206 0.448849 0.419005 0.383148 0.409386 0.48378 
0.412609 0.510976 0.55203 0.468016 0.47882 0.502417 0.498369 0.513287 0.553046 
0.488644 0.44898 0.439036 0.447238 0.416518 0.426804 0.39378 0.412729 0.430592 
0.438161 0.172285 0.377806 0.435338 0.382619 0.315888 0.332141 0.354168 0.462013 
0.639902 0.490137 0.48275 0.418081 0.267775 0.246267 0.311086 0.415828 0.477294 
0.517138 0.637056 0.47474 0.470975 0.564078 0.444956 0.491089 0.585092 0.389941 
0.450137 0.512361 0.503213 0.39391 0.413749 0.458162 0.474837 0.381958 0.432985 
0.51232 0.63346 0.409617 0.583012 0.518495 0.600148 0.767766 0.516219 0.570025 
0.619838 0.551212 0.513926 0.622848 0.598874 0.628494 0.527942 0.530681 0.492252 
0.515439 0.420736 0.360487 0.351189 0.335413 0.333265 0.49603 0.494525 0.484894 
0.476896 0.476896 0.403834 0.410879 0.370809 0.421884 0.436997 0.437331 0.523224 
0.501183 0.501038 0.514083 0.55377 0.530237 0.28547 0.287635 0.286069 0.367565 
0.440652 0.565211 0.598718 0.597811 0.527395 0.56396 0.501029 0.482267 0.525598 
0.488952 0.5415 0.462324 0.405693 0.405693 0.440098 0.442543 0.469362 0.535374 
0.534868 0.511021 0.606205 0.516505 0.529385 0.432492 0.42461 0.370291 0.472056 
0.403442 0.436213 0.414318 0.403029 0.461038 0.343425 0.343972 0.409951 0.368037 
0.428912 0.58343 0.412349 0.471166 0.418678 0.378534 0.378534 0.342801 0.372053 
0.428985 0.398973 0.398973 0.428246 0.386398 0.43353 0.429298 0.528139 0.539815 
0.339975 0.519653 0.498108 0.576995 0.559078 0.654354 0.608968 0.608968 0.603608 
0.435042 0.463406 0.480815 0.472643 0.46703 0.590516 0.550775 0.556007 0.596067 
0.580815 0.474251 0.533313 0.43178 0.262926 0.285156 0.321729 0.348178 0.387646 
0.444051 0.197913 0.197913 0.307436 0.457026 0.466516 0.520249 0.548033 0.466568 
0.435127 0.372488 0.438996 0.534939 0.516062 0.569607 0.621533 0.692267 0.684109 
0.518745 0.518745 0.556729 0.519808 0.519808 0.447349 0.447349 0.412554 0.345357 
0.360825 0.423729 0.491797 0.471268 0.616828 0.526109 0.532557 0.820327 0.698447 
0.698447 0.692628 0.623207 0.558097 0.433045 0.523004 0.558091 0.548987 0.392705 
0.363614 0.431774 0.492394 0.462851 0.617073 0.677106 0.659599 0.60812 0.53693 
0.364007 0.497673 0.579851 0.576784 0.518878 0.584338 0.544433 0.512384 0.497073 
0.548006 0.553763 0.553763 0.551254 0.498743 0.41941 0.406425 0.368953 0.336353 
0.30975 0.311705 0.278493 0.577032 0.661881 0.608211 0.566564 0.481509 0.463353 
0.415913 0.409537 0.445518 0.423572 0.369487 0.35198 0.35198 0.386021 0.619716 
0.690724 0.634986 0.549995 0.442185 0.383757 0.462495 0.539828 0.409527 0.408364 
0.356408 0.538258 0.555521 0.598323 0.591849 0.666826 0.648707 0.399039 0.424698 
0.518422 0.463292 0.383119 0.519239 0.492773 0.459983 0.370253 0.403396 0.401309 
0.330266 0.372421 0.317135 0.315741 0.338033 0.455853 0.480841 0.480841 0.502885 
0.522553 0.529361 0.605951 0.757867 0.795239 0.832332 0.668059 0.546809 0.565837 
0.53945 0.540488 0.502772 0.410983 0.377035 0.417968 0.497038 0.556126 0.692645 
0.779844 0.385438 0.427363 0.466413 0.443026 0.274813 0.274813 0.232452 0.214321 
0.465131 0.476827 0.588692 0.561363 0.648036 0.631323 0.604664 0.653292 0.563471 
0.648157 0.497415 0.43526 0.43526 0.319357 0.336473 0.336473 0.3394 0.368878 
0.358148 0.402649 0.402649 0.439306 0.534614 0.534614 0.454223 0.435384 0.435384 
0.437698 0.437698 0.475139 0.50916 0.536731 0.488587 0.535216 0.529977 0.508319 
0.537877 0.482864 0.476681 0.587947 0.603012 0.703837 0.648846 0.669667 0.669667 
0.577208 0.64013 0.75059 0.551496 0.529678 0.487608 0.447541 0.39412 0.411643 
0.411945 0.524926 0.517068 0.44381 0.404257 0.369386 0.378416 0.378416 
WidthEq 1 530 double
3.43114 3.36179 2.45035 3.25771 3.67544 1.93895 2.64858 1.36045 4.44831 
3.23603 3.68492 3.95587 1.89705 4.76792 3.4194 3.01367 5.09151 4.9578 
5.75693 5.3502 6.06487 5.42425 5.1828 3.35317 3.92086 5.99473 4.00486 
4.27289 4.40986 6.11015 1 9.48116 3.78396 8.11248 3.8419 7.17241 
7.25793 2.764 6.57038 1.78527 3.95607 6.02211 5.81533 3.84204 7.43348 
3.05438 5.40138 3.93399 5.98372 5.03032 2.96481 6.40291 5.46629 7.45516 
7.01754 8.45842 8.89444 8.12952 7.64198 7.24533 6.75017 6.3638 6.08947 
5.80486 5.48067 5.15357 5.36074 5.85809 6.95648 7.01303 7.51509 7.23585 
7.09186 6.6734 5.82667 5.50023 5.54266 6.05884 5.98014 6.57787 6.50846 
6.47895 6.46198 6.46198 6.35253 6.5479 6.55818 7.34624 7.2576 7.30142 
7.47346 7.23506 7.20383 6.51767 5.54955 4.19871 5.78702 5.42737 5.89177 
6.03179 5.83111 6.88807 6.85618 7.57549 7.47863 6.61957 5.03032 5.42571 
5.06301 5.32766 5.37016 5.64581 5.66232 6.06898 6.447 6.447 6.50607 
6.50607 6.73837 6.77192 6.77192 6.69614 5.97345 5.99407 5.83204 5.57421 
5.92293 5.95402 5.95402 6.4352 6.48512 6.66425 6.40497 6.07548 6.2747 
6.91816 6.99851 6.93726 7.20881 7.14304 6.87315 7.49003 6.25474 6.58456 
6.92141 7.20277 7.22545 7.29532 5.4458 6.58695 6.96364 7.08298 7.09948 
7.27053 3.19161 7.60612 6.70403 6.43467 5.59901 5.19699 4.73922 4.45063 
3.9076 6.97014 6.07641 5.41941 5.20349 5.66988 6.32177 7.10843 5.10139 
5.76448 5.48617 6.2257 6.07428 5.3028 6.31852 5.92731 5.19925 6.87706 
8.07078 8.36434 8.94456 6.47 6.76058 7.43057 8.16274 4.00101 3.81254 
2.97204 2.39884 4.10086 3.64872 4.30452 4.51825 3.80312 4.34635 5.34205 
5.62062 7.33981 7.57496 5.95416 5.20501 4.97848 6.45138 5.77695 6.53763 
6.42492 8.15631 7.73022 7.06077 5.9694 4.85418 4.20593 3.99147 4.27084 
4.82023 4.82023 5.30194 5.36777 5.73485 5.64562 5.7973 6.14999 6.49334 
7.22975 6.91704 7.24998 6.23737 4.8671 3.8419 4.36969 5.32275 5.41172 
5.12944 7.66015 6.25043 6.04564 5.78484 5.56023 5.51057 5.32693 5.29763 
4.67047 4.65337 4.80598 5.45574 5.45574 5.68957 5.88136 5.86804 5.25367 
4.96688 4.90602 4.48226 4.60291 4.57951 5.08409 5.02383 5.22324 4.63984 
4.67988 4.11233 3.99332 3.93319 3.7839 3.50665 3.0209 3.03376 3.00088 
3.01632 2.77315 3.7945 3.73152 4.0453 4.33766 4.33766 4.53483 4.70978 
4.59032 4.94235 4.94235 4.70627 3.80803 3.07891 2.77215 2.96156 3.47124 
3.75526 3.61126 4.15257 4.13288 4.11604 4.76832 5.93095 5.93095 5.84722 
8.72333 8.42461 6.92314 5.09065 5.27157 4.0042 4.2361 4.22954 3.90654 
4.22808 5.76303 4.09171 3.94287 3.43823 3.55226 4.17232 4.58899 5.34172 
5.82263 1.85787 1.85787 2.3236 2.59037 2.73098 2.65196 2.30232 2.69054 
2.57552 2.57187 3.21912 3.99883 3.74597 3.57089 3.19035 2.9668 2.71773 
2.82095 2.82095 3.12485 3.58401 3.58401 4.80366 4.80366 5.03835 5.25546 
5.20481 4.83522 4.40118 4.24644 3.83455 3.90833 3.91344 3.59522 3.98239 
3.98239 4.35232 5.47451 6.10889 6.47776 5.51183 4.82527 5.06864 6.38733 
6.62355 5.92499 4.68532 6.02887 4.37936 3.75652 3.85304 4.28615 4.7481 
4.46522 4.03708 5.29663 5.37102 5.02721 4.78118 4.36942 3.98656 3.85748 
3.86471 4.95335 4.95335 4.21429 3.97682 3.95726 3.87399 4.0575 4.64236 
4.88832 5.19586 5.71887 5.00805 3.82294 3.62525 3.6157 3.97476 3.90462 
3.92855 3.95322 3.92458 3.87585 4.11299 4.1879 4.1879 4.16218 4.46217 
4.08508 3.50273 4.04623 4.28058 5.2662 5.28596 5.32932 5.16252 5.14946 
5.50739 5.52582 5.11551 4.86114 4.17962 3.61484 3.69406 4.89482 4.06665 
3.48848 3.63055 4.24498 4.30644 4.84828 4.74784 4.62042 4.70925 3.47854 
2.97694 2.49026 2.89434 3.28608 3.50631 4.04033 4.80505 4.80505 4.98146 
4.61962 4.1106 3.83846 2.61914 1.89552 2.25816 2.51725 3.7243 3.25804 
2.76241 2.36351 2.65229 2.77096 2.82592 2.74796 2.4473 2.30218 1.92947 
1.87835 4.05127 3.86259 3.35629 3.21912 3.00857 3.00857 2.54701 1.93895 
4.23928 4.17246 3.91483 3.70858 3.48079 3.31777 3.89773 3.36782 3.13015 
3.08255 2.89288 2.92517 2.92517 3.2164 3.46667 3.46667 3.54762 3.33593 
3.56306 3.71409 3.71409 3.48311 3.21932 3.21932 3.51115 3.59548 3.59548 
3.80975 3.80975 4.11968 3.92564 3.90303 3.68492 4.07261 4.98206 5.14097 
4.82209 4.67206 4.39296 4.14222 3.65031 3.37047 3.54225 3.65336 3.65336 
4.29683 4.35384 3.80093 3.14102 3.18266 3.34111 3.82878 3.94029 3.87088 
3.48218 3.19651 2.97098 3.15753 2.60893 3.08368 2.47933 2.47933 
rRFP 1 530 double