# vtk DataFile Version 3.0
vtk output
ASCII
DATASET POLYDATA
POINTS 782 float
1.73386 -0.349173 1.27297 1.60118 -0.202598 1.28828 0.0964071 0.292284 1.09383 
1.25542 0.221797 1.34157 1.25157 0.438295 1.40894 0.855688 -0.671417 0.401901 
1.27782 -0.73635 0.829832 1.47109 -0.631468 0.907922 1.28609 -0.469562 0.915886 
1.36263 -0.384309 0.960597 1.50359 -0.264096 1.03134 1.94627 -0.286158 1.12749 
1.68148 0.706776 1.37892 0.122478 1.28311 1.05432 0.262949 -0.421312 0.477965 
0.745822 -0.508997 0.562789 2.3679 -0.284466 1.01142 -0.0458804 0.853742 0.808098 
-0.114808 1.25477 0.799158 0.287261 1.38427 1.05299 1.71331 1.41498 1.39484 
2.49166 -0.356994 0.80255 -0.58615 0.814306 0.455 0.571624 1.87466 0.930149 
0.783406 -0.849127 -0.206026 2.36984 -0.519075 0.508246 -0.563165 0.555942 0.164063 
2.84502 -0.173765 0.727817 -0.545662 1.0354 0.319328 -0.470085 1.17477 0.380882 
1.29738 2.0028 1.05368 -0.294951 1.61422 -0.131944 -0.172871 1.58983 0.366172 
1.23422 2.15831 0.72997 1.76892 2.19112 0.715015 -0.621449 0.883274 -0.247544 
-0.689052 1.15797 -0.565387 0.369692 2.20805 0.401067 2.01114 2.2771 0.661965 
0.686958 -0.7873 -0.97081 1.05777 -0.871815 -0.767878 0.180682 -0.560901 -0.874135 
1.74222 2.58241 0.194352 -0.302855 -0.132381 -1.06646 -0.668417 0.674717 -0.897099 
-0.388008 1.79078 -0.866529 -0.547927 1.51847 -0.81779 1.83278 -0.855377 -1.58466 
0.144942 -0.264714 -1.64834 -0.610414 1.2489 -1.34699 0.239769 2.45347 -0.769119 
2.58202 2.41308 -0.236283 -0.387815 1.42833 -1.59659 3.75458 0.417868 -0.80714 
2.66943 2.18967 -0.501191 2.70578 2.34055 -0.445149 1.27749 -0.604202 -1.91327 
3.8343 0.62746 -0.9373 0.484493 2.56635 -1.17777 3.36999 -0.0265061 -1.46649 
3.44384 1.67481 -0.912802 3.17847 1.96796 -0.882175 3.27067 0.211389 -1.77264 
3.16647 0.427355 -1.74671 3.79604 0.458472 -1.42914 3.34626 1.61331 -1.16975 
3.13319 1.89113 -1.13177 0.313919 0.527483 -2.43328 3.18308 0.117288 -1.89432 
3.04409 0.886549 -1.77005 3.75903 0.648433 -1.59268 0.734118 2.50419 -1.71208 
1.31115 2.7299 -1.50649 0.992657 -0.0307643 -2.66603 0.229029 1.21606 -2.45074 
3.36364 1.02829 -1.96798 3.54146 1.48359 -1.59483 3.21294 1.66961 -1.61269 
2.80276 2.05905 -1.58542 3.39156 1.43742 -1.85912 2.64438 1.8597 -1.97161 
5.41615 1.62127 -1.61599 1.6283 1.18602 -2.90007 4.81462 1.75545 -1.857 
5.03596 1.74442 -1.80893 6.20902 1.48962 -2.04568 5.40338 1.74333 -2.36815 
6.65749 1.01645 -2.52006 5.23628 1.50442 -2.91205 6.14587 1.56088 -2.68237 
6.1204 1.10135 -3.04803 5.99982 1.29822 -3.01404 5.87032 1.56913 -3.1736 
5.90453 1.49668 -3.15665 5.93771 1.42891 -3.12255 5.97104 1.37074 -3.06948 
6.03359 1.2239 -2.99779 6.07378 1.15827 -3.00912 6.01004 1.28822 -2.83182 
5.98992 1.29505 -2.67522 5.93925 1.32142 -2.55141 5.88353 1.36249 -2.46392 
5.83243 1.41014 -2.39714 5.79394 1.4594 -2.34284 5.76665 1.50007 -2.27272 
5.7201 1.53835 -2.18398 5.65614 1.56767 -2.06498 5.58309 1.58321 -1.92858 
5.50082 1.58805 -1.77913 6.16692 1.53713 -2.47014 6.18797 1.51337 -2.25791 
5.26157 1.55085 -2.89151 5.29803 1.59136 -2.86229 5.31861 1.63124 -2.82105 
5.3345 1.66191 -2.75199 5.36773 1.67955 -2.65912 5.39766 1.69288 -2.55248 
5.40528 1.71539 -2.45608 6.60825 1.04454 -2.52267 6.56078 1.08442 -2.5132 
6.50936 1.1169 -2.49107 6.45698 1.15844 -2.44243 6.40696 1.20654 -2.38322 
6.36854 1.25566 -2.32894 6.35112 1.30667 -2.29305 6.33039 1.3613 -2.26473 
6.31136 1.41014 -2.22194 6.26816 1.45283 -2.14694 5.35513 1.79798 -2.32237 
5.2984 1.83989 -2.24281 5.22738 1.85391 -2.11967 5.13815 1.81933 -1.96836 
5.41565 1.70116 -2.13725 5.4187 1.64915 -1.89038 6.17398 1.5405 -1.99801 
6.14516 1.57888 -1.92102 6.09337 1.60886 -1.81223 6.02623 1.62639 -1.69504 
5.95138 1.61956 -1.58734 5.87664 1.60465 -1.49806 5.80125 1.58257 -1.41915 
5.73074 1.56281 -1.3702 5.67315 1.57415 -1.34821 5.6245 1.5912 -1.37803 
5.58561 1.63393 -1.424 5.54344 1.66125 -1.48357 5.48672 1.65083 -1.5478 
1.72283 1.20391 -2.92214 1.79392 1.19932 -2.93687 1.85062 1.18733 -2.93938 
1.90344 1.17254 -2.93373 1.95577 1.15731 -2.92634 2.0085 1.14374 -2.91833 
2.06181 1.13704 -2.90007 2.11485 1.13827 -2.86346 2.15795 1.11167 -2.81408 
2.19607 1.06892 -2.76298 2.24168 1.05273 -2.70973 2.28874 1.02911 -2.68235 
2.33388 0.98852 -2.67667 2.38358 0.962381 -2.67334 2.43549 0.945377 -2.66661 
2.48819 0.93172 -2.65864 2.54313 0.927288 -2.64724 2.6014 0.93672 -2.63069 
2.65472 0.930113 -2.6124 2.70266 0.910124 -2.58367 2.7458 0.883713 -2.53422 
2.78833 0.863749 -2.46695 2.83512 0.866403 -2.38361 2.8828 0.880464 -2.29646 
2.92053 0.897742 -2.20584 2.94123 0.912714 -2.09764 2.97955 0.909295 -1.95135 
5.06141 1.69399 -1.68364 5.09385 1.65911 -1.5757 5.13927 1.65114 -1.50398 
5.19319 1.64521 -1.48799 5.25564 1.64225 -1.51681 5.32859 1.63761 -1.56493 
4.99177 1.79345 -1.80376 4.93944 1.80868 -1.81114 4.87855 1.78835 -1.83174 
1.54159 1.13062 -2.88403 1.48015 1.07631 -2.88166 1.45344 1.02763 -2.89925 
1.44115 0.983264 -2.934 1.4192 0.938501 -2.96119 1.37973 0.89358 -2.97659 
1.34985 0.837915 -2.96928 1.32786 0.77729 -2.95374 1.3044 0.711807 -2.92416 
1.28104 0.64629 -2.89456 1.25768 0.580776 -2.86497 1.23593 0.517438 -2.84228 
1.21086 0.44978 -2.8058 1.18084 0.378277 -2.75577 1.13811 0.305215 -2.69329 
1.08418 0.240723 -2.64662 1.04948 0.178532 -2.61862 1.03071 0.122255 -2.61688 
1.01689 0.0698186 -2.62867 1.00477 0.0195272 -2.64735 2.57838 1.88914 -2.04664 
2.52711 1.91638 -2.1057 2.48024 1.93455 -2.15597 2.4348 1.94875 -2.21511 
2.39443 1.98215 -2.26969 2.34755 1.99305 -2.3249 2.29476 1.9929 -2.36111 
2.23462 1.97121 -2.38992 2.17062 1.93802 -2.41529 2.10785 1.90543 -2.44814 
2.0487 1.87886 -2.49417 1.99536 1.86745 -2.54998 1.94598 1.87694 -2.59031 
1.89057 1.8794 -2.60244 1.82541 1.85932 -2.59213 1.75939 1.8402 -2.57375 
1.69325 1.81158 -2.57431 1.6307 1.78888 -2.58808 1.57489 1.78968 -2.60083 
1.51906 1.79037 -2.61362 1.45769 1.76808 -2.63494 1.39374 1.73509 -2.66024 
1.32977 1.70199 -2.68558 1.26797 1.67793 -2.70756 1.20954 1.66782 -2.72435 
1.14819 1.64563 -2.74564 1.08564 1.62294 -2.75941 1.02501 1.6172 -2.75147 
0.959542 1.60485 -2.72288 0.886951 1.56744 -2.69589 0.813767 1.52306 -2.67919 
0.747177 1.49258 -2.68045 0.687113 1.4802 -2.69038 0.623734 1.45406 -2.70543 
0.555344 1.41611 -2.70946 0.48233 1.37694 -2.68313 0.406201 1.34281 -2.6241 
0.320311 1.28613 -2.54264 2.68079 1.91686 -1.91062 2.71891 1.95806 -1.85693 
2.73763 1.99496 -1.79849 2.75625 2.02778 -1.70955 2.68757 1.77111 -1.955 
2.7294 1.70623 -1.94185 2.77696 1.67432 -1.93023 2.82775 1.65451 -1.92199 
2.87512 1.62686 -1.91967 2.90695 1.57735 -1.92787 2.92 1.52168 -1.94239 
2.93754 1.4628 -1.95687 2.94843 1.40312 -1.96519 2.97053 1.33487 -1.9577 
2.9862 1.25792 -1.92262 2.98336 1.1794 -1.87166 2.98565 1.09538 -1.81488 
2.9964 1.00524 -1.78193 3.38139 1.38656 -1.87753 3.38071 1.33291 -1.8946 
3.39619 1.27454 -1.9094 3.4063 1.21699 -1.92321 3.42 1.15636 -1.93515 
3.40992 1.09437 -1.95109 3.345 1.4944 -1.82017 3.29612 1.54803 -1.76691 
3.2495 1.60341 -1.69665 3.4351 1.44411 -1.74343 3.48507 1.4595 -1.65534 
3.27781 0.979635 -1.95438 3.17626 0.941707 -1.8814 2.88218 2.04639 -1.57092 
2.94124 2.02004 -1.56547 2.98638 1.9692 -1.57099 3.02972 1.91636 -1.57756 
3.07592 1.87554 -1.57966 3.11924 1.82 -1.58709 3.16322 1.75065 -1.59871 
2.75305 2.14008 -1.57145 2.70906 2.20944 -1.55983 2.66574 2.26497 -1.5524 
2.61956 2.30588 -1.55026 2.57672 2.3605 -1.54302 2.53565 2.4225 -1.53303 
2.49078 2.47317 -1.51955 2.43876 2.49869 -1.50771 2.38471 2.52027 -1.48963 
2.33681 2.55837 -1.48081 2.28916 2.58855 -1.49035 2.2447 2.62298 -1.51372 
2.20117 2.66574 -1.52628 2.15047 2.68324 -1.54053 2.0926 2.67549 -1.55645 
2.03724 2.67815 -1.56851 1.98146 2.67904 -1.58122 1.92054 2.65862 -1.60185 
1.85962 2.6382 -1.62248 1.80384 2.63909 -1.63519 1.74848 2.64175 -1.64725 
1.69061 2.634 -1.66317 1.6383 2.64933 -1.67052 1.59156 2.68774 -1.6693 
1.54059 2.71342 -1.66511 1.48332 2.73187 -1.64081 1.41174 2.7467 -1.5812 
3.26914 1.65941 -1.42778 3.31139 1.6442 -1.27951 3.56741 1.42591 -1.50353 
3.58647 1.35889 -1.45657 3.59805 1.29836 -1.45706 3.62829 1.24105 -1.48399 
3.65852 1.18364 -1.51097 3.67598 1.12997 -1.53974 3.70781 1.07474 -1.57362 
3.74275 1.02388 -1.62129 3.76319 0.977275 -1.67101 3.78197 0.923221 -1.6996 
3.77819 0.865194 -1.70286 3.76021 0.800749 -1.67964 3.74853 0.729166 -1.64128 
3.48072 1.5182 -1.48668 3.43098 1.55222 -1.38409 3.39575 1.582 -1.27947 
0.231476 1.18531 -2.53147 0.234152 1.15185 -2.60505 0.243248 1.10856 -2.65636 
0.268317 1.04737 -2.66981 0.287192 0.974774 -2.64854 0.290193 0.901531 -2.61523 
0.307566 0.826725 -2.58704 0.328045 0.756298 -2.57265 0.332424 0.687943 -2.5534 
0.333642 0.609937 -2.50612 0.17891 1.25844 -2.41722 0.118863 1.27309 -2.3709 
0.0540182 1.28131 -2.30384 -0.0101073 1.30599 -2.20757 -0.0716303 1.34148 -2.10727 
-0.134952 1.37579 -1.99716 -0.201366 1.4072 -1.88073 -0.2829 1.42563 -1.74274 
0.89597 -0.100802 -2.5356 0.810676 -0.146015 -2.43447 0.734288 -0.181223 -2.37584 
0.668088 -0.192115 -2.33901 0.602527 -0.195855 -2.29181 0.534584 -0.200499 -2.22953 
0.464449 -0.200763 -2.14252 0.398217 -0.180328 -2.04011 0.326746 -0.168169 -1.91767 
0.242312 -0.196332 -1.78709 1.00904 -0.118818 -2.55472 1.03377 -0.181207 -2.44929 
1.06533 -0.233233 -2.37083 1.10041 -0.288639 -2.32444 1.14525 -0.321493 -2.30049 
1.19349 -0.344704 -2.28065 1.23674 -0.379848 -2.24983 1.26726 -0.443646 -2.18328 
1.28788 -0.518003 -2.06667 1.2452 2.7884 -1.42385 1.17854 2.81312 -1.34406 
1.113 2.83031 -1.25843 1.04681 2.83311 -1.1934 0.980632 2.82232 -1.15653 
0.914916 2.79546 -1.15644 0.851964 2.7711 -1.17082 0.793529 2.76099 -1.18762 
0.730609 2.73543 -1.20503 0.661383 2.69538 -1.21257 0.580917 2.64031 -1.20094 
1.2524 2.71495 -1.62833 1.19702 2.69663 -1.71861 1.13823 2.66993 -1.77254 
1.07539 2.63722 -1.80545 1.01139 2.60403 -1.83083 0.948016 2.57789 -1.84587 
0.883581 2.56085 -1.83443 0.810382 2.52989 -1.78964 0.671635 2.46866 -1.73784 
0.618559 2.43037 -1.76227 0.579881 2.38786 -1.78468 0.526796 2.34958 -1.80912 
[...]
POINT_DATA 782
SCALARS DY_raw double
LOOKUP_TABLE default
94.0895 65.3006 89.2899 105.201 73.1211 130.471 157.212 98.5624 118.998 
86.4562 72.8177 69.5177 100.43 84.7868 141.722 113.905 71.7612 82.9854 
83.2398 65.2188 0 88.759 103.655 84.7612 128.485 35.8366 135.331 
88.2983 88.0867 89.7993 161.006 72.2947 89.5584 109.389 107.563 91.8544 
126.8 87.1677 105.2 145.161 100.221 149.351 87.8637 136.186 116.142 
101.48 108.125 84.6401 151.225 126.072 109.855 96.0315 90.8038 87.5901 
116.857 102.907 93.5643 55.3565 83.2388 78.4955 84.2759 92.6398 78.7183 
93.3234 73.8114 109.357 114.065 99.6719 65.3705 112.269 54.7826 67.9036 
74.9713 94.761 108.393 94.8185 46.1232 102.594 134.62 58.2483 124.461 
136.999 103.636 136.616 90.3204 100.266 107.036 95.8269 143.028 28.2541 
81.3869 154.324 112.603 126.295 142.662 148.425 119.669 99.1964 101.899 
106.716 125.543 115.666 98.7311 98.0024 81.0337 102.253 100.719 114.503 
123.204 36.3609 89.5877 115.377 115.377 82.1039 71.6212 92.8833 70.6422 
89.3008 88.6002 90.6404 80.5465 79.2538 80.2533 75.1855 103.038 75.41 
90.6818 119.236 100.181 96.2902 81.7982 97.1582 113.857 109.286 87.8298 
97.8933 92.1725 91.7154 103.679 121.972 129.57 134.122 141.366 141.366 
127.607 108.5 116.134 86.6082 76.1833 83.0944 85.8305 85.8305 81.8797 
81.8797 91.6642 97.196 108.211 127.691 139.608 139.608 125.26 122.246 
122.246 114.503 114.503 109.332 79.3482 88.5238 93.6152 91.3839 83.1617 
79.9061 92.4912 93.9261 89.3505 96.9246 111.612 149.69 156.733 149.828 
100.245 100.245 136.616 106.917 97.3486 85.8719 89.6391 81.1884 76.7436 
85.4022 66.1899 86.8856 97.0198 102.572 109.504 105.984 92.726 104.2 
101.738 103.808 111.658 101.058 101.058 114.651 104.019 97.3702 84.7135 
75.9123 64.8795 86.3206 106.767 115.241 111.019 97.7627 96.2872 73.52 
79.6644 90.8339 92.7478 109.668 99.0242 97.6631 99.9781 107.584 114.735 
114.549 126.869 137.878 129.722 92.7743 90.0301 90.7164 104.403 111.752 
107.988 99.6962 84.8515 84.8515 82.2654 69.332 82.783 127.418 124.1 
97.5125 106.395 133.24 129.712 121.237 114.955 93.2361 85.9922 85.6034 
85.6034 84.4682 121.351 127.869 119.375 117.214 107.734 65.028 65.028 
64.8947 69.5091 76.5397 85.32 61.6833 62.5673 88.5206 75.3554 68.3536 
101.078 93.1616 127.475 117.415 129.646 137.646 143.608 121.588 103.185 
126.034 112.833 104.243 99.0198 109.789 109.789 104.716 126.526 116.678 
112.609 93.7286 86.8722 94.3284 94.3284 95.4539 78.519 78.519 72.4039 
73.7252 73.7252 76.7547 75.9583 75.9583 66.8459 65.5635 56.6586 69.0503 
124.668 115.626 81.6295 101.237 110.621 90.9358 98.353 84.3571 62.7142 
63.1193 46.4261 48.459 56.7435 66.0295 57.0112 71.9743 75.6215 89.4054 
102.854 76.3846 95.2002 85.3861 85.3861 67.4866 64.7337 68.211 59.1738 
85.9168 88.9283 93.4752 99.1581 84.4609 78.2624 90.6591 87.5839 91.2066 
129.628 124.215 133.751 111.767 111.447 104.998 92.2292 104.51 101.103 
116.787 109.416 117.492 105.983 117.254 88.7766 86.2076 83.9366 80.9386 
90.7819 71.6311 65.3255 73.7931 64.3347 67.6739 71.7091 57.368 52.0948 
52.9929 58.1092 71.0394 74.7103 75.8196 82.9511 75.6829 76.2196 72.4452 
55.5194 60.375 82.0668 81.0007 84.1701 82.9359 79.3352 95.5351 90.6853 
96.5844 91.0095 98.5804 115.144 105.001 68.1972 77.6346 78.7487 85.3945 
103.539 114.654 114.654 113.267 99.4959 97.5633 68.5324 128.244 130.244 
122.629 115.307 95.6899 93.547 80.1411 63.4847 69.2947 71.1813 74.745 
79.8823 82.6319 86.4219 81.3453 75.4514 71.4353 73.1919 87.2457 100.593 
97.5896 96.1914 89.3141 78.0839 73.4301 62.4165 71.476 70.6886 69.5762 
79.128 82.4508 75.1985 103.828 111.725 101.836 73.8876 73.8114 78.949 
60.39 60.39 59.9112 65.5909 65.5909 71.7868 72.6704 97.1984 114.416 
83.0271 83.4336 91.5544 114.737 120.515 110.159 103.894 88.0385 61.9145 
73.2803 73.1528 71.796 74.2839 87.9735 66.3995 75.7229 70.7064 72.5235 
115.062 87.6988 105.142 109.221 99.8966 112.728 117.013 126.313 131.869 
141.167 129.855 126.184 131.673 86.919 89.1976 78.0549 66.1178 66.1178 
67.9878 48.4145 62.0058 74.7964 70.8587 70.8587 87.6181 90.0525 95.7979 
95.7979 93.3238 91.5854 83.1667 74.2403 80.2441 78.333 78.9317 81.4542 
78.4265 80.4288 82.5586 92.956 100.464 97.1908 106.169 104.852 84.2056 
87.5687 100.022 95.484 91.2454 87.7642 81.8289 94.1796 80.7397 79.2649 
112.585 105.423 117.227 119.88 104.816 109.582 109.688 102.907 122.62 
107.582 94.6987 106.562 99.613 95.4161 101.618 102.173 98.1365 104.044 
99.2725 89.4992 90.0921 90.3458 99.2702 104.439 102.5 97.6053 89.8109 
114.565 103.307 107.228 92.9264 92.9264 86.8671 88.1986 98.2982 74.8214 
81.3396 94.8083 101.186 88.0686 94.5522 100.824 115.679 114.057 127.649 
112.498 113.975 79.3008 77.4956 65.9559 65.5065 71.9617 83.487 99.8842 
103.547 103.266 101.306 92.5282 86.0838 92.2674 89.1852 96.1715 94.7232 
120.646 112.291 118.191 115.517 124.545 124.36 111.059 138.877 147.012 
149.989 147.993 132.248 136.228 149.276 134.521 140.959 127.355 116.882 
134.123 136.098 132.271 118.799 131.542 141.545 112.018 108.643 108.643 
99.4589 111.972 107.139 95.7309 105.506 100.355 116.133 83.3803 94.3701 
101.564 110.033 113.926 85.6311 121.199 121.199 125.518 112.752 112.142 
125.742 117.203 127.155 138.949 133.573 124.779 139.568 127.202 100.133 
115.15 114.62 84.1716 75.5935 83.8432 146.958 131.143 125.585 138.368 
140.325 148.96 134.187 135.643 111.502 124.864 145.591 132.915 141.832 
124.188 129.785 150.301 150.301 158.432 107.685 121.246 138.708 116.565 
121.893 118.409 117.855 105.866 108.382 124.255 143.197 112.418 81.3965 
60.813 63.3282 71.7196 85.3643 77.1408 91.7457 99.5394 100.231 103.673 
101.444 96.9611 91.2959 81.2129 75.9114 69.3106 81.5969 81.5969 93.9364 
103.826 103.893 92.9725 104.703 95.9905 106.998 136.057 108.332 95.1476 
78.1376 111.171 106.026 103.202 111.424 127.625 92.6026 80.7714 84.1248 
93.1323 96.1027 109.906 98.8729 88.759 114.098 107.137 108.182 118.407 
119.503 141.451 106.415 124.489 155.903 152.83 113.276 120.383 120.887 
106.87 108.539 99.9133 104.842 111.455 123.137 40.5613 57.4052 69.6714 
69.6714 62.5563 64.3727 76.8441 73.705 72.2844 68.166 61.5629 22.8526 
50.6183 88.4527 88.4527 92.2875 119.788 133.123 137.218 123.41 140.863 
126.331 82.5953 72.9263 79.1403 82.3993 78.718 82.2302 75.2112 88.8393 
103.846 96.3744 101.512 88.704 120.836 123.456 86.9091 94.218 80.3017 
77.9968 65.3006 94.7751 138.415 147.165 84.7388 97.7871 97.7871 
FIELD FieldData 7
DY_minmax 1 782 double
0.584385 0.405579 0.554576 0.653396 0.454152 0.810348 0.976435 0.612166 0.73909 
0.536976 0.452267 0.431771 0.623766 0.526607 0.880231 0.707461 0.445705 0.515418 
0.516999 0.405071 0 0.551278 0.643797 0.526448 0.798015 0.22258 0.840533 
0.548416 0.547102 0.557739 1 0.449019 0.556243 0.679408 0.668067 0.570504 
0.787548 0.541395 0.653391 0.901589 0.622468 0.927612 0.545718 0.845844 0.721355 
0.63029 0.671559 0.525696 0.93925 0.783025 0.682302 0.596447 0.563978 0.544018 
0.725794 0.639151 0.581124 0.343817 0.516992 0.487532 0.523434 0.575382 0.488916 
0.579628 0.458439 0.679213 0.708455 0.619058 0.406013 0.697295 0.340252 0.421746 
0.465644 0.588556 0.673223 0.588913 0.286469 0.637205 0.83612 0.361777 0.77302 
0.850893 0.643676 0.848515 0.560976 0.622745 0.664797 0.595177 0.888342 0.175485 
0.50549 0.958501 0.69937 0.784414 0.886069 0.921862 0.74326 0.616105 0.632887 
0.662811 0.77974 0.718395 0.613215 0.608688 0.503297 0.635088 0.62556 0.711174 
0.765217 0.225836 0.556425 0.716601 0.716601 0.509943 0.444836 0.576894 0.438755 
0.554643 0.550292 0.562963 0.500271 0.492242 0.498449 0.466974 0.639963 0.468368 
0.563221 0.740569 0.622221 0.598054 0.508045 0.603445 0.70716 0.678769 0.545507 
0.608011 0.572479 0.56964 0.643947 0.757563 0.804754 0.833027 0.878017 0.878017 
0.792559 0.673887 0.721304 0.537919 0.473171 0.516096 0.53309 0.53309 0.508551 
0.508551 0.569322 0.60368 0.672095 0.793083 0.867098 0.867098 0.777984 0.759266 
0.759266 0.711171 0.711171 0.679059 0.492828 0.549818 0.58144 0.567581 0.516514 
0.496293 0.574459 0.58337 0.554952 0.601994 0.693216 0.929717 0.973459 0.930574 
0.622617 0.622617 0.848515 0.664057 0.604628 0.533347 0.556744 0.504257 0.476651 
0.530429 0.411102 0.539642 0.602586 0.637072 0.680124 0.65826 0.575917 0.647182 
0.631893 0.644746 0.693505 0.627665 0.627665 0.712093 0.646055 0.604762 0.526152 
0.471488 0.402964 0.536133 0.663127 0.715756 0.689532 0.6072 0.598035 0.45663 
0.494792 0.564165 0.576052 0.681141 0.615035 0.606581 0.62096 0.668201 0.712612 
0.711459 0.787975 0.856351 0.8057 0.576217 0.559173 0.563435 0.648442 0.694084 
0.670709 0.619209 0.527009 0.527009 0.510947 0.430618 0.514161 0.791384 0.77078 
0.605646 0.660817 0.827548 0.805635 0.753 0.713981 0.579085 0.534094 0.531679 
0.531679 0.524628 0.753703 0.794185 0.741432 0.728008 0.669133 0.403886 0.403886 
0.403058 0.431718 0.475384 0.529919 0.383112 0.388603 0.549798 0.468029 0.424541 
0.627788 0.578622 0.791739 0.729259 0.805227 0.854916 0.891944 0.755175 0.64088 
0.782792 0.700798 0.647446 0.615007 0.681897 0.681897 0.650385 0.785845 0.72468 
0.69941 0.582144 0.539559 0.585869 0.585869 0.59286 0.487678 0.487678 0.449698 
0.457904 0.457904 0.47672 0.471774 0.471774 0.415177 0.407212 0.351904 0.428868 
0.774307 0.718149 0.506997 0.628779 0.687061 0.564798 0.610866 0.523938 0.389515 
0.392031 0.28835 0.300977 0.352431 0.410106 0.354094 0.447029 0.469682 0.555293 
0.638821 0.474421 0.591284 0.530329 0.530329 0.419156 0.402058 0.423655 0.367526 
0.533625 0.55233 0.58057 0.615867 0.524583 0.486084 0.563079 0.54398 0.56648 
0.805111 0.771491 0.830721 0.694177 0.692191 0.65214 0.572831 0.649106 0.627947 
0.725356 0.679579 0.729738 0.658254 0.728262 0.551387 0.535432 0.521326 0.502706 
0.563843 0.444897 0.405733 0.458326 0.39958 0.42032 0.445382 0.35631 0.323558 
0.329137 0.360913 0.441222 0.464022 0.470912 0.515206 0.470063 0.473396 0.449954 
0.344829 0.374987 0.509713 0.503092 0.522777 0.515111 0.492748 0.593364 0.563242 
0.599881 0.565256 0.612278 0.715154 0.652159 0.423569 0.482185 0.489104 0.530381 
0.643076 0.71211 0.71211 0.703493 0.617965 0.605961 0.425652 0.796517 0.808937 
0.761645 0.716166 0.594325 0.581016 0.497753 0.394301 0.430386 0.442104 0.464237 
0.496145 0.513223 0.536762 0.505232 0.468625 0.443681 0.454591 0.541879 0.624779 
0.606124 0.59744 0.554726 0.484975 0.456071 0.387666 0.443934 0.439044 0.432135 
0.49146 0.512098 0.467054 0.644874 0.693918 0.632496 0.458912 0.458439 0.490349 
0.375079 0.375079 0.372106 0.407382 0.407382 0.445865 0.451353 0.603695 0.710632 
0.515677 0.518202 0.56864 0.712627 0.748513 0.684193 0.645279 0.546803 0.384548 
0.455141 0.454348 0.445922 0.461374 0.546399 0.412404 0.470311 0.439154 0.45044 
0.714642 0.544693 0.65303 0.678366 0.620453 0.700148 0.726762 0.784523 0.819031 
0.876779 0.806525 0.78372 0.817814 0.53985 0.554002 0.484796 0.410655 0.410655 
0.422269 0.3007 0.385115 0.464557 0.4401 0.4401 0.544192 0.559312 0.594996 
0.594996 0.57963 0.568833 0.516544 0.461103 0.498393 0.486523 0.490241 0.505908 
0.487104 0.499539 0.512768 0.577346 0.623977 0.603648 0.65941 0.651233 0.522997 
0.543885 0.621234 0.593047 0.566721 0.545099 0.508235 0.584945 0.501471 0.492311 
0.699262 0.654775 0.728091 0.744571 0.65101 0.680608 0.681267 0.639151 0.761587 
0.668185 0.588169 0.661852 0.618692 0.592625 0.631147 0.634589 0.609521 0.646215 
0.616577 0.555876 0.559558 0.561133 0.616562 0.648664 0.636625 0.606222 0.557812 
0.711555 0.641632 0.665988 0.577162 0.577162 0.539528 0.547798 0.610526 0.464712 
0.505196 0.58885 0.628463 0.54699 0.587259 0.626215 0.71848 0.708401 0.792824 
0.698721 0.707892 0.492534 0.481321 0.409649 0.406858 0.446951 0.518534 0.620376 
0.643126 0.64138 0.629206 0.574688 0.534663 0.573069 0.553925 0.597317 0.588322 
0.749329 0.697434 0.734077 0.717474 0.773542 0.772396 0.689782 0.862557 0.913084 
0.931575 0.919176 0.821388 0.846103 0.927145 0.835503 0.875492 0.790993 0.725951 
0.833034 0.845301 0.821532 0.737853 0.817001 0.879132 0.695739 0.674779 0.674779 
0.617735 0.69545 0.665437 0.59458 0.655294 0.623303 0.721295 0.517872 0.586129 
0.63081 0.683411 0.707589 0.531851 0.752761 0.752761 0.779583 0.700299 0.696511 
0.780976 0.727942 0.789751 0.863004 0.829616 0.774995 0.866851 0.790043 0.621924 
0.715191 0.711897 0.522786 0.469508 0.520747 0.912749 0.814521 0.78 0.859395 
0.871551 0.925181 0.833431 0.842473 0.692534 0.775525 0.90426 0.825528 0.880914 
0.771325 0.806089 0.933515 0.933515 0.984011 0.668825 0.753055 0.861507 0.723978 
0.757069 0.735432 0.731989 0.657527 0.673157 0.771744 0.889391 0.698222 0.50555 
0.377707 0.393329 0.445447 0.530194 0.479118 0.569828 0.618234 0.622528 0.643907 
0.630062 0.602221 0.567035 0.50441 0.471482 0.430485 0.506794 0.506794 0.583435 
0.644857 0.645273 0.577448 0.650305 0.596192 0.664557 0.845042 0.672847 0.590957 
0.485309 0.69048 0.658525 0.64098 0.69205 0.792672 0.575151 0.501668 0.522495 
0.57844 0.59689 0.682622 0.614095 0.551278 0.708655 0.665423 0.671916 0.735423 
0.742225 0.878544 0.660939 0.773193 0.968304 0.949219 0.703554 0.747694 0.750821 
0.663767 0.674128 0.620557 0.651166 0.692245 0.764797 0.251925 0.356541 0.432726 
0.432726 0.388535 0.399816 0.477275 0.457778 0.448955 0.423376 0.382364 0.141936 
0.314388 0.549376 0.549376 0.573193 0.743998 0.826818 0.852254 0.766492 0.874894 
0.784636 0.512996 0.452942 0.491537 0.511778 0.488914 0.510728 0.467133 0.551777 
0.644984 0.598577 0.630489 0.550937 0.750504 0.766782 0.539788 0.585184 0.49875 
0.484435 0.405579 0.588644 0.859687 0.914035 0.526309 0.607351 0.607351 
WidthEq 1 782 double
1.96207 2.26123 1.95229 1.7036 1.53307 3.12775 1.73708 1.97753 2.25441 
2.07041 2.03096 1.96741 1 2.74878 2.31262 2.39743 2.02073 3.27997 
3.48956 2.59695 1.0083 2.67522 2.83768 2.73144 3.26201 1.97759 3.05829 
3.18772 3.06289 2.89123 2.28147 3.40219 3.12701 3.50155 3.86984 4.82633 
3.83226 4.73868 3.68271 4.13768 3.83402 4.0747 5.48713 3.73159 4.62011 
4.19697 3.25309 8.01205 5.22924 4.8248 5.93466 4.22226 7.41775 6.10195 
1.51091 3.71306 7.38797 3.65684 6.79515 5.10106 3.83965 3.84187 5.79255 
7.37392 5.59371 3.92969 3.24217 5.53767 4.66984 6.09405 6.26622 5.56421 
6.16209 7.41508 5.89015 5.27249 3.25172 3.12758 3.65309 3.34671 4.33799 
4.77858 6.4114 3.62359 4.2047 3.73279 4.2878 4.77705 1.14222 3.259 
5.79602 4.87726 5.22776 4.90881 5.44285 5.53727 6.04925 5.82188 6.4367 
5.80398 4.58975 4.60862 4.52137 4.12 4.50022 4.10795 4.59021 4.93559 
5.02466 3.74359 3.74103 2.68164 2.68164 3.89348 4.73561 4.6047 5.10276 
4.60936 5.22662 5.37299 5.36435 5.10373 4.78273 4.52228 4.05327 3.97255 
3.89053 3.63951 4.0859 3.26025 3.63223 3.80339 3.89252 4.28189 4.37688 
4.4668 5.0566 5.11691 4.80212 4.56736 4.42093 4.14473 4.21311 4.21311 
4.85743 5.15688 5.26709 6.66992 6.48501 6.17442 5.37151 5.37151 5.08099 
5.08099 4.71503 4.77756 4.53677 4.47385 4.29553 4.29553 4.54598 4.7019 
4.7019 5.14949 5.14949 5.48026 6.78327 6.7636 6.87484 6.31676 6.30999 
6.19352 6.05852 5.62464 3.92253 3.90252 3.45465 3.24945 3.57328 4.12273 
4.99686 4.99686 3.62359 6.06068 5.78169 5.99719 5.44751 6.36803 6.76565 
6.62149 7.06316 6.19148 6.03794 6.56385 6.64889 7.32783 8.19684 8.081 
8.67813 8.54097 8.20037 7.76773 7.76773 4.27575 3.98255 3.81225 3.95982 
3.98381 4.14183 4.09624 3.94578 3.83545 3.85557 4.51256 4.74778 5.3074 
5.38823 5.17285 5.75884 5.1874 5.69285 5.7597 5.75856 5.70325 5.36611 
5.51004 4.58498 4.28416 4.24784 4.949 5.1043 5.42438 5.90664 5.71007 
6.01168 6.06733 6.27214 6.27214 6.45472 6.75172 6.71455 4.35545 4.26632 
4.4622 4.17565 4.04525 3.70914 3.76064 3.45039 3.6739 3.70266 3.75149 
3.75149 3.67606 3.03254 3.25616 3.54606 3.82959 4.88971 3.57061 3.57061 
3.64729 4.31008 4.6001 4.98453 3.30965 3.15964 3.13611 3.26878 3.21944 
5.26863 5.83138 3.56675 3.37001 2.74917 2.58365 2.51845 2.85161 3.13116 
3.63013 3.25633 3.12962 3.18391 3.34313 3.34313 3.7491 3.84318 4.19026 
4.41172 4.65376 4.78427 4.2122 4.2122 3.7329 3.3155 3.3155 3.21654 
3.58005 3.58005 4.04366 4.4477 4.4477 5.23981 5.61776 6.11258 6.04226 
3.11507 3.39741 3.08063 2.77339 2.66948 2.56819 3.03407 2.90657 2.9982 
3.65292 3.63826 4.13813 4.56616 4.92416 5.94427 3.36967 3.63018 4.19259 
5.38521 5.5612 3.63445 3.61757 3.61757 4.54638 5.10816 5.746 7.21147 
6.37337 6.86126 6.77196 6.31113 6.59796 6.45125 6.1086 6.585 7.16264 
6.12184 5.95131 5.92033 5.28494 5.41631 5.42199 5.66318 5.75458 6.08586 
6.06619 7.05481 7.06873 6.44011 6.12753 6.14475 5.97337 6.12974 6.48825 
7.08522 6.30243 6.29953 6.05409 5.86184 5.86474 5.61463 5.41835 5.53414 
6.08308 6.50792 7.01132 5.96825 5.29625 4.36823 3.76399 3.81595 4.15252 
5.02238 5.59138 5.4424 5.34156 5.0948 5.13397 4.92177 5.64305 5.95808 
5.91897 5.98695 5.95433 5.45439 5.28165 4.8568 5.8349 5.78448 5.69006 
5.17757 5.15403 5.15403 6.00725 6.89315 7.05737 6.2029 5.89049 5.9695 
6.49013 6.62883 5.71576 5.67511 6.11309 6.35444 6.03538 6.53936 6.9119 
6.9879 7.24006 6.60654 6.59694 6.07 5.78061 5.29034 4.80814 4.80968 
5.02369 4.64023 5.72138 6.2228 5.79068 7.22164 6.61621 8.31138 9.33853 
8.88282 6.651 5.28375 3.66065 3.50934 3.93566 4.07254 5.59371 5.34332 
5.17768 5.17768 5.22423 5.09918 5.09918 5.04842 5.28096 5.73713 5.32854 
5.73451 5.39579 3.30197 3.11678 2.94511 3.49649 3.60802 4.07356 4.31418 
4.32367 4.02104 3.36746 2.92459 2.803 3.394 3.43965 4.19594 4.27461 
3.6324 4.02149 3.6195 3.45511 3.65338 3.21881 3.11649 3.04419 2.8225 
2.54033 2.15016 1.92228 1.78085 1.60816 1.4469 1.57991 1.56871 1.56871 
1.68354 2.03142 1.88095 2.36509 2.49793 2.49793 3.14935 4.70992 4.58162 
4.58162 4.15468 4.0311 3.98898 4.23005 4.07606 4.38091 5.60548 5.37345 
5.41653 4.74283 4.12677 3.43948 3.26963 2.86786 2.81966 2.67681 3.36177 
3.27492 4.32833 4.94963 5.50373 6.54618 7.6071 6.61831 5.30222 5.33099 
6.3574 6.50809 6.09518 5.80671 5.84985 5.54261 5.03756 3.71306 2.20519 
4.01592 6.3815 5.96479 5.0636 4.98868 4.00262 3.52531 3.19789 3.09512 
2.78123 2.91891 3.05709 6.41225 5.92585 5.2696 4.65501 4.20049 4.1437 
3.64258 3.71738 3.64718 4.19816 4.19816 4.5108 4.52705 4.39632 4.97344 
5.63908 5.67102 4.19998 4.27939 4.08737 3.9065 3.50814 3.66844 4.91973 
4.06833 4.09459 3.75507 3.53543 3.84545 3.88694 3.85483 4.04099 4.18935 
4.34112 5.79397 5.48725 5.13141 5.02557 5.09497 4.6649 4.54001 4.75966 
4.42923 3.40651 3.59977 3.56777 3.28316 3.71767 4.46492 5.23327 4.29639 
4.0743 4.12466 5.84257 5.12914 4.27598 4.42303 3.90786 3.64008 5.86838 
4.25489 3.8384 3.54702 3.65804 3.49052 3.31067 3.44016 3.59415 3.59415 
5.60503 4.94661 3.96101 4.03872 3.56567 4.15314 4.02746 4.3202 3.94288 
3.63377 3.77104 3.89411 3.88189 4.64591 4.64591 4.19663 4.70492 4.31844 
3.57868 3.82209 3.54026 3.29345 3.42015 3.55237 3.34819 3.72142 4.11142 
4.06435 4.12347 4.89096 4.97265 4.99277 3.64587 4.09249 4.10409 3.90764 
3.88484 3.55197 3.73068 3.60262 4.52512 4.3754 4.00217 4.326 4.17542 
4.14211 4.10255 3.92571 3.92571 3.86836 4.98464 4.02792 4.45981 4.3991 
3.40259 3.89979 3.94987 4.4838 3.00593 2.30711 1.82923 1.81644 2.22491 
2.70978 2.91197 4.82434 4.08578 3.44954 2.80863 3.9069 3.45772 2.86314 
2.55511 2.60218 2.80966 3.23052 3.39264 3.53395 3.38849 3.38849 3.19812 
3.17214 3.83704 3.048 4.03542 3.53264 3.28447 3.02117 2.92027 3.02856 
3.33642 3.93384 4.20282 4.09567 3.77019 3.37058 2.91601 3.25957 3.23365 
3.23325 2.85257 2.57984 2.69659 2.67522 3.56379 3.78366 3.72602 3.55544 
3.49808 3.06545 3.13969 2.88918 2.52857 2.58314 2.74497 2.6414 2.58962 
2.67988 2.68835 2.71495 2.69273 2.71893 2.60434 1.96912 1.99146 2.40357 
2.40357 2.9284 2.83552 2.85331 2.59331 2.53277 2.48144 2.17745 1.3609 
1.4639 2.03272 2.03272 2.04426 2.19387 2.23065 2.07655 1.99174 1.969 
1.43678 2.55329 2.4906 2.59109 3.08 3.47557 3.49422 3.2071 3.09705 
2.72769 2.46746 2.05768 1.97094 2.54056 2.8291 1.98736 1.95133 2.04006 
2.1397 2.26123 1.94882 1.96417 1.99851 2.01431 2.16409 2.16409 
rRFP 1 782 double
2602.53 2655.16 2600.81 2557.06 2527.06 2807.6 2562.95 2605.25 2653.96 
2621.59 2614.65 2603.47 2433.28 2740.93 2664.2 2679.12 2612.85 2834.38 
2871.25 2714.22 2434.74 2727.99 2756.57 2737.88 2831.22 2605.26 2795.38 
2818.15 2796.19 2765.99 2658.72 2855.88 2807.47 2873.36 2938.15 3106.42 