# vtk DataFile Version 3.0
vtk output
ASCII
DATASET POLYDATA
POINTS 768 float
0.704683 -0.901418 1.55202 2.51609 -0.140189 1.32732 1.88765 -0.0528606 1.48307 
1.68977 -0.0404813 1.48695 1.63063 -1.63414 1.21607 1.82165 0.165568 1.31797 
0.431331 -0.289956 1.25283 0.367061 -1.26545 1.08727 2.56002 0.529578 1.17047 
3.23588 -0.11548 1.05457 2.57485 0.233396 1.05226 1.39259 0.830496 0.980429 
2.9758 -1.60534 0.600277 2.49143 0.476918 0.959228 3.24696 -0.273587 0.824655 
1.40438 0.680547 1.00363 2.3783 -2.16822 0.50976 -0.186995 -0.409276 0.764633 
3.52786 -1.36279 0.433759 3.30685 -1.46951 0.41756 3.05639 -1.82836 0.223432 
2.11199 -2.2973 -0.0750236 1.62519 -2.3514 -0.0219166 -0.0639844 0.553018 0.589273 
1.14982 1.17361 0.481216 0.430187 -1.6295 0.0102725 1.48354 1.15827 0.137478 
0.303367 1.09005 0.0687842 0.299042 -1.7896 -0.320152 -0.471351 0.545493 -0.152281 
-0.666095 -0.342575 -0.234159 1.86104 -2.37596 -0.961492 0.149932 -1.68017 -0.521856 
1.35247 1.38219 -0.296623 3.79659 -0.925948 -0.508687 1.46539 1.0639 -0.487094 
1.39203 0.91558 -0.376443 5.64993 -0.164015 -0.936536 3.98426 -0.143265 -1.03646 
3.1223 -1.99225 -1.09003 3.56054 -1.42642 -1.33573 3.81782 -0.130358 -1.18493 
0.0842979 -1.23576 -1.47505 -0.458479 -1.00812 -1.29617 5.87966 -0.557405 -1.47899 
1.00457 -1.9402 -1.67088 0.873505 -1.84159 -1.65291 5.96669 0.477463 -1.64167 
2.96368 0.71334 -1.43938 3.67038 -0.159689 -1.59439 3.10754 -1.51087 -1.81946 
-0.364327 0.0776462 -1.51787 0.982247 -1.75465 -1.84197 6.04063 0.614595 -1.68661 
0.0913365 -0.369476 -1.80098 -0.139953 -0.400216 -1.80415 3.13112 -0.43075 -2.24439 
2.48724 -1.52569 -2.22221 1.03324 -1.20647 -2.2901 5.78563 0.0328159 -2.47849 
5.05619 -0.459116 -2.46933 2.47862 0.319979 -2.31359 1.69561 0.327081 -2.50826 
0.930582 -0.0888853 -2.77514 0.966286 -0.058244 -2.70261 1.01123 -0.0333578 -2.63866 
1.07609 -0.02107 -2.59207 1.1422 -0.00614519 -2.56757 1.19616 0.0203218 -2.55603 
1.25277 0.0459762 -2.55217 1.29736 0.0806851 -2.54666 1.34331 0.114366 -2.54133 
1.40787 0.13405 -2.53856 1.47379 0.152705 -2.53597 1.52767 0.180416 -2.53173 
1.58421 0.206136 -2.52786 1.62717 0.242064 -2.52213 1.66211 0.284029 -2.51529 
1.67613 0.407129 -2.58462 1.64882 0.469107 -2.61891 1.62902 0.530145 -2.59331 
1.60223 0.576864 -2.54003 1.55091 0.591918 -2.49192 1.50148 0.612062 -2.45799 
1.45695 0.638533 -2.42302 1.41358 0.663858 -2.37324 1.37029 0.687937 -2.31614 
1.32582 0.711835 -2.2666 1.27509 0.731632 -2.24023 1.21502 0.74203 -2.2304 
1.16409 0.765557 -2.22594 1.11916 0.79683 -2.22021 1.07424 0.828102 -2.21449 
1.02337 0.850385 -2.20272 0.963439 0.858304 -2.17829 0.912897 0.874363 -2.13002 
0.868495 0.897016 -2.07316 0.825066 0.922254 -2.02339 0.780467 0.948639 -1.98844 
0.729734 0.967105 -1.95479 0.668756 0.969695 -1.90872 0.609864 0.972321 -1.84763 
0.540663 0.960313 -1.78142 0.465414 0.940322 -1.71652 0.39044 0.91906 -1.65936 
0.323291 0.894162 -1.61791 0.269433 0.862847 -1.60022 0.211426 0.837043 -1.59658 
0.158992 0.808239 -1.60102 0.10254 0.782459 -1.6049 0.0595748 0.746531 -1.61064 
0.0246321 0.704566 -1.61747 -0.00886458 0.661513 -1.62451 -0.0422739 0.618395 -1.63155 
-0.0756836 0.575277 -1.63859 -0.109093 0.532159 -1.64564 -0.14235 0.48773 -1.64539 
-0.17403 0.439728 -1.63074 -0.19758 0.382025 -1.59528 -0.209022 0.314016 -1.55415 
-0.232571 0.256313 -1.51868 -0.264252 0.208311 -1.50403 -0.297509 0.163883 -1.50378 
-0.330918 0.120765 -1.51083 1.76423 0.326383 -2.50899 1.82364 0.313801 -2.51167 
1.88618 0.305271 -2.51368 1.94449 0.291262 -2.51658 2.00703 0.282732 -2.5186 
2.06651 0.270235 -2.52126 2.1363 0.271051 -2.52174 2.2122 0.278606 -2.51362 
2.28789 0.286189 -2.49046 2.35591 0.296099 -2.4443 2.41194 0.312642 -2.38187 
2.97066 -0.443405 -2.3428 2.87414 -0.456954 -2.41186 2.82497 -0.487651 -2.44671 
2.78972 -0.528417 -2.46085 2.75785 -0.572695 -2.46811 2.7356 -0.62407 -2.47666 
2.73616 -0.691275 -2.48059 2.7546 -0.757398 -2.46948 2.79618 -0.800784 -2.43216 
2.84835 -0.833327 -2.37805 2.88342 -0.889269 -2.32026 2.92287 -0.939566 -2.26155 
2.97437 -0.972803 -2.20755 3.0416 -0.979763 -2.16426 3.10503 -0.965349 -2.13983 
3.14006 -0.92478 -2.12572 3.1535 -0.866636 -2.11593 3.1759 -0.815234 -2.10738 
3.19653 -0.761219 -2.10588 3.1953 -0.685571 -2.12305 3.17454 -0.57948 -2.17241 
5.03737 -0.392826 -2.46539 5.00921 -0.335935 -2.47799 4.98414 -0.27124 -2.51183 
4.95732 -0.21044 -2.55384 4.9489 -0.14361 -2.58746 4.96029 -0.0827408 -2.59974 
4.96891 -0.0199075 -2.59663 4.98321 0.0375911 -2.58697 4.99213 0.0991353 -2.57657 
5.00812 0.155354 -2.56714 5.0296 0.207456 -2.55846 5.08604 0.233241 -2.55457 
5.15998 0.245861 -2.55308 5.23684 0.256152 -2.55202 5.3127 0.264799 -2.55122 
5.38131 0.264102 -2.55196 5.43348 0.242174 -2.55616 5.47847 0.210988 -2.56187 
5.5234 0.179715 -2.5676 5.57439 0.154944 -2.56476 5.6347 0.140116 -2.54903 
5.6862 0.109195 -2.5172 5.73343 0.0670105 -2.49098 5.84164 0.0527911 -2.48686 
5.88387 0.0947266 -2.49137 5.91873 0.13656 -2.47704 5.95251 0.174092 -2.43714 
5.98622 0.209814 -2.38627 6.0184 0.246691 -2.33519 6.04118 0.288118 -2.26822 
6.04152 0.340224 -2.17419 6.02609 0.385439 -2.0361 5.99636 0.420598 -1.85702 
0.937554 -1.20471 -2.25388 0.874395 -1.18861 -2.213 0.819861 -1.17373 -2.17491 
0.752516 -1.17614 -2.14717 0.684166 -1.18041 -2.11722 0.623972 -1.17681 -2.07099 
0.554705 -1.18757 -2.01209 0.480541 -1.20599 -1.94693 0.411407 -1.21791 -1.88071 
0.352581 -1.21652 -1.81232 0.291679 -1.2182 -1.74192 0.238754 -1.20987 -1.66239 
0.176985 -1.20879 -1.57148 1.1249 -1.16496 -2.34647 1.18904 -1.12155 -2.4148 
1.25722 -1.08952 -2.49511 1.33088 -1.06426 -2.58414 1.39999 -1.05218 -2.65034 
1.45914 -1.05978 -2.68222 1.52071 -1.07356 -2.66257 1.57216 -1.10438 -2.62319 
1.61859 -1.14169 -2.58488 1.66984 -1.16877 -2.56741 1.73122 -1.18014 -2.56238 
1.78939 -1.19433 -2.56531 1.85076 -1.2057 -2.56028 1.90202 -1.23278 -2.54281 
1.94844 -1.27009 -2.5045 1.99989 -1.30224 -2.45783 2.06042 -1.32134 -2.41654 
2.11155 -1.3486 -2.3991 2.15654 -1.38111 -2.39752 2.20146 -1.41239 -2.40325 
2.25246 -1.43716 -2.40041 2.31285 -1.45245 -2.38101 2.36542 -1.48183 -2.3414 
2.41922 -1.51227 -2.28695 1.05492 -1.30033 -2.24116 1.08296 -1.36885 -2.20799 
1.10077 -1.44094 -2.19287 1.11084 -1.5188 -2.17867 1.11047 -1.595 -2.13904 
1.08725 -1.65892 -2.06707 1.04544 -1.71363 -1.9633 2.53337 -1.49214 -2.21691 
2.59946 -1.47361 -2.21435 2.675 -1.46338 -2.20576 2.75221 -1.4568 -2.18279 
2.82963 -1.4541 -2.13794 2.90607 -1.45532 -2.07872 2.97658 -1.46685 -2.00617 
3.03795 -1.49284 -1.92097 2.49961 -1.61624 -2.14005 2.51811 -1.70021 -2.04932 
2.54698 -1.77079 -1.9564 2.57384 -1.84265 -1.87119 2.61107 -1.90112 -1.78379 
2.65456 -1.95283 -1.68779 2.70034 -2.0016 -1.59131 2.75335 -2.03969 -1.50058 
2.82267 -2.05524 -1.41368 2.89778 -2.06037 -1.32505 2.9659 -2.05545 -1.24968 
3.0204 -2.03776 -1.18704 3.07741 -2.01956 -1.13936 3.19595 -0.313898 -2.12738 
3.22472 -0.239095 -2.03976 3.26084 -0.200471 -1.9809 3.31632 -0.18201 -1.92566 
3.36913 -0.161853 -1.87009 3.42753 -0.144839 -1.82263 3.48067 -0.123742 -1.78945 
3.5413 -0.121869 -1.7521 3.60094 -0.142968 -1.68861 -0.0881616 -0.419317 -1.80787 
-0.0289522 -0.412812 -1.80729 0.0253157 -0.38792 -1.80353 6.00528 0.55461 -1.66395 
0.992189 -1.82891 -1.84719 1.00046 -1.89694 -1.79122 0.91863 -1.79056 -1.74982 
3.18462 -1.5018 -1.81109 3.26029 -1.49406 -1.78791 3.32677 -1.48299 -1.74154 
3.37343 -1.45975 -1.67538 3.42017 -1.43936 -1.58716 3.48637 -1.4331 -1.47397 
3.11989 -1.6026 -1.73 3.1369 -1.68916 -1.61714 3.15392 -1.76052 -1.47916 
3.14178 -1.82873 -1.34038 3.12341 -1.90347 -1.21017 3.71571 -0.142263 -1.48663 
3.77197 -0.137835 -1.35111 3.68005 -0.225664 -1.66582 3.68847 -0.294282 -1.71516 
3.68928 -0.363149 -1.7269 3.67831 -0.427928 -1.70777 3.67944 -0.503012 -1.68299 
3.68836 -0.582757 -1.6666 3.69728 -0.662502 -1.6502 3.69839 -0.738764 -1.61812 
3.68608 -0.806121 -1.57687 3.67773 -0.875258 -1.54349 3.66369 -0.937731 -1.52394 
3.65521 -1.00438 -1.50516 3.64275 -1.07043 -1.47121 3.64231 -1.14671 -1.43159 
3.64039 -1.22118 -1.39667 3.61852 -1.27984 -1.3739 3.58872 -1.34192 -1.35415 
2.89481 0.719012 -1.46786 2.83507 0.739134 -1.50898 2.77317 0.757805 -1.55785 
2.72061 0.787192 -1.59746 2.66838 0.813016 -1.61514 2.60916 0.828502 -1.627 
2.56416 0.862339 -1.63586 2.52844 0.908149 -1.64277 2.47673 0.929326 -1.63119 
2.43448 0.958745 -1.59574 2.40638 1.00643 -1.55731 2.36994 1.046 -1.53522 
2.32625 1.07887 -1.52924 2.27546 1.10124 -1.51745 2.21526 1.1128 -1.51495 
2.16309 1.13605 -1.51804 2.11079 1.16179 -1.53573 2.05052 1.17459 -1.54052 
1.99973 1.19563 -1.52145 1.95526 1.21953 -1.4719 1.91196 1.24228 -1.40753 
1.86762 1.26236 -1.33608 1.81611 1.27186 -1.25886 1.74827 1.25763 -1.1705 
1.67352 1.22861 -1.05204 1.59855 1.19056 -0.897537 1.52775 1.1376 -0.703035 
5.88522 0.432086 -1.50841 5.83399 0.376339 -1.3897 5.7911 0.320801 -1.28105 
5.7465 0.269728 -1.18665 5.72759 0.200177 -1.10065 5.71377 0.130367 -1.03726 
5.71326 0.0536542 -0.995217 5.7109 -0.0196942 -0.975124 5.68682 -0.0860757 -0.956156 
-0.0116442 -1.22769 -1.47532 -0.0736352 -1.20876 -1.44148 -0.119422 -1.1879 -1.3724 
-0.161316 -1.16809 -1.28099 -0.197109 -1.13831 -1.20045 -0.223956 -1.093 -1.13989 
-0.261511 -1.05487 -1.11803 -0.312702 -1.0277 -1.13549 -0.381839 -1.01572 -1.20046 
0.910602 -1.89359 -1.60199 0.946131 -1.93699 -1.60969 0.798564 -1.86632 -1.55876 
0.730535 -1.87681 -1.49232 0.678627 -1.86119 -1.45162 0.63279 -1.8364 -1.41693 
0.582185 -1.82175 -1.36138 0.521595 -1.8253 -1.27879 0.464471 -1.83102 -1.15902 
0.404403 -1.84451 -1.01801 0.35495 -1.84772 -0.856555 0.314196 -1.84193 -0.689892 
0.290111 -1.82621 -0.510406 1.02666 -2.01821 -1.58667 1.06982 -2.06371 -1.52718 
1.13015 -2.08042 -1.50051 1.18839 -2.09584 -1.49614 1.25087 -2.10445 -1.49817 
1.30917 -2.11846 -1.50108 1.37172 -2.12699 -1.50309 1.43113 -2.13957 -1.50576 
1.49974 -2.14027 -1.5065 1.56836 -2.14097 -1.50723 1.62803 -2.15735 -1.48876 
1.69279 -2.18407 -1.40672 1.76337 -2.25513 -1.22333 5.88112 -0.50603 -1.37257 
[...]
POINT_DATA 768
SCALARS DY_raw double
LOOKUP_TABLE default
395.364 441.92 365.83 335.409 235.941 342.119 163.803 50.9409 662.775 
734.824 455.043 387.462 391.176 377.889 630.886 331.847 640.431 513.888 
564.084 400.944 383.588 473.811 502.754 360.342 385.168 554.159 481.779 
348.079 511.755 391.437 344.232 350.71 376.818 381.96 321.091 327.306 
265.502 504.132 455.665 396.512 448.599 478.101 347.914 338.581 291.546 
350.624 404.307 386.377 405.254 581.541 428.109 253.435 409.909 380.687 
613.741 423.678 455.767 363.285 396.72 455.446 464.733 426.298 372.954 
219.902 237.094 251.884 302.72 329.621 367.456 384.131 405.351 374.274 
398.779 377.313 340.29 340.29 336.047 361.217 280.299 255.149 267.528 
249.609 290.148 328.834 295.151 348.203 332.293 351.79 351.79 332.885 
308.547 308.547 254.947 254.947 282.023 312.552 352.571 299.074 266.962 
266.962 276.017 249.322 304.801 335.982 374.752 360.927 308.233 308.233 
295.829 295.829 318.295 325.185 325.185 301.605 258.988 258.988 242.208 
277.828 317.243 327.085 311.838 343.777 284.496 284.496 392.269 412.57 
400.924 410.749 384.797 335.107 334.291 302.29 291.696 300.108 334.391 
513.974 446.312 387.945 324.897 324.897 294.606 295.016 314.225 364.72 
409.538 450.181 408.864 457.563 478.618 468.926 517.098 517.098 513.991 
497.19 497.804 472.327 464.733 476.943 428.033 418.557 384.32 392.588 
392.588 422.755 422.755 407.436 448.657 477.082 520.102 520.102 529.147 
530.724 518.204 479.315 479.315 481.755 468.54 469.134 438.644 455.446 
413.694 467.885 496.74 457.282 514.76 550.396 526.895 480.743 409.799 
399.737 399.707 402.724 370.108 330.198 349.583 314.771 358.875 350.268 
370.365 371.625 339.421 361.229 428.548 462.841 443.889 466.875 405.604 
439.369 429.386 423.542 506.226 457.389 380.515 398.751 371.206 417.477 
479.778 477.413 446.244 486.058 390.254 430.651 385.743 297.313 345.431 
341.4 402.826 383.555 359.04 309.792 367.67 354.169 367.604 385.611 
427.026 417.094 361.524 385.362 363.574 402.663 429.065 394.031 390.131 
335.957 362.757 386.33 420.253 411.003 384.879 432.396 434.025 381.675 
349.765 396.512 404.132 432.981 469.186 461.679 478.266 517.72 474.785 
485.163 508.037 423.678 474.804 549.745 418.385 409.909 366.76 462.668 
428.109 409.673 400.209 348.032 348.66 382.026 425.992 378.244 392.626 
408.523 412.943 560.744 542.234 542.193 512.239 530.008 657.177 684.279 
591.808 622.738 550.723 551.159 595.909 574.895 519.827 659.458 555.243 
560.16 481.094 481.773 375.15 391.892 359.02 342.281 335.979 335.979 
337.461 325.885 325.885 287.18 295.244 295.244 285.273 285.273 290.256 
284.297 284.297 262.277 299.464 334.142 313.495 350.99 394.658 367.861 
334.387 335.001 338.417 370.607 368.544 340.737 313.631 391.302 405.682 
409.119 470.294 499.697 320.604 319.458 357.652 393.739 420.786 398.167 
423.774 395.627 373.877 399.842 399.842 430.224 391.133 411.177 378.47 
341.366 320.074 310.612 329.642 439.012 434.023 465.972 282.799 312.587 
302.423 297.651 297.651 294.232 276.938 297.175 277.453 259.677 268.946 
271.301 341.507 399.902 462.015 527.874 542.977 514.251 513.508 537.35 
507.107 456.078 397.482 369.04 381.86 483.231 460.768 439.479 390.218 
336.529 318.287 310.742 304.69 290.262 305.406 311.25 341.645 378.104 
349.427 324.229 378.673 400.436 442.481 434.681 448.566 460.544 461.957 
451.41 466.183 461.158 511.858 506.332 497.356 449.894 478.118 475.104 
475.104 450.519 496.49 483.723 480.222 302.935 336.481 341.945 365.761 
294.751 261.953 243.488 241.417 233.783 231.488 260.663 267.817 302.201 
309.808 347.231 299.605 324.01 372.504 361.943 367.179 491.357 521.163 
487.974 416.273 364.18 362.141 357.531 348.039 372.787 441.463 514.375 
545.125 447.36 452.547 437.059 407.062 386.841 382.951 475.904 411.734 
434.892 412.193 347.876 429.065 341.449 339.046 333.794 328.529 398.848 
419.58 467.951 331.978 313.633 344.474 407.946 368.432 425.737 469.314 
469.314 467.684 412.752 421.309 441.05 390.851 411.99 404.769 383.622 
390.032 334.241 346.591 346.591 361.204 384.165 354.557 272.785 304.383 
296.883 298.36 328.838 464.752 481.142 389.315 500.392 490.393 338.064 
347.272 368.875 388.281 397.432 411.725 399.418 384.587 387.869 382.093 
404.459 444.418 449.927 453.263 458.313 429.698 430.121 413.602 392.703 
414.203 478.69 442.04 491.539 509.312 528.825 470.887 414.907 399.264 
418.176 421.727 361.763 379.462 375.18 375.653 361.058 280.117 306.926 
264.72 288.97 288.97 330.358 511.5 521.787 534.599 492.054 482.214 
458.522 446.896 446.896 455.715 464.831 509.834 479.135 459.112 491.196 
383.964 383.964 346.959 356.459 356.459 388.416 405.009 386.671 407.671 
410.956 480.98 317.686 290.528 299.637 323.729 323.729 341.347 362.642 
362.642 360.342 495.128 493.446 470.819 436.861 393.727 383.725 374.293 
349.911 356.195 391.828 349.861 393.672 385.36 342.728 340.368 366.029 
366.029 374.361 374.361 393.946 321.513 321.513 313.619 290.771 333.624 
377.062 416.073 451.589 420.063 426.501 449.916 420.617 473.182 395.449 
387.535 389.991 333.986 428.876 513.627 440.753 396.695 420.178 419.361 
460.05 444.66 407.757 407.757 415.813 407.945 406.551 399.377 381.66 
385.469 401.874 432.167 420.152 421.923 446.559 435.275 351.011 361.477 
342.677 286.935 312.491 356.951 376.638 376.638 497.885 523.786 552.831 
593.117 421.102 370.56 370.51 357.821 367.112 441.938 419.458 538.926 
566.027 574.994 632.926 560.018 471.226 446.203 517.839 563.987 565.09 
333.84 463.305 519.407 535.374 468.382 440.144 407.313 361.122 387.676 
388.947 345.125 345.523 365.352 413.49 352.574 343.671 297.238 325.858 
386.11 434.91 507.226 491.719 415.426 372.121 328.766 375.774 582.897 
488.622 396.806 340.096 315.978 327.379 383.842 446.98 414.472 421.349 
407.393 388.036 693.348 448.204 396.538 433.86 341.552 318.992 298.896 
291.867 348.599 415.041 403.353 378.797 331.415 379.423 420.582 428.384 
466.027 396.702 480.534 407.521 403.792 83.8227 197.075 244.158 244.158 
247.015 253.67 282.966 291.764 323.908 258.655 340.573 366.022 389.032 
369.732 402.544 403.997 427.517 458.575 462.157 451.25 451.25 500.52 
541.304 577.358 540.248 495.444 435.325 358.584 360.919 390.946 386.482 
380.861 341.902 365.83 420.454 420.454 457.203 435.455 435.455 410.005 
388.018 411.408 427.04 
FIELD FieldData 7
DY_minmax 1 768 double
0.503629 0.571704 0.460443 0.41596 0.270514 0.425772 0.165031 0 0.894648 
1 0.590894 0.492074 0.497505 0.478076 0.848018 0.410751 0.861975 0.676939 
0.750337 0.511788 0.486409 0.618337 0.660658 0.452418 0.488719 0.735825 0.629988 
0.434487 0.67382 0.497886 0.428862 0.438334 0.476511 0.484029 0.395024 0.404111 
0.31374 0.662674 0.591804 0.505307 0.581472 0.624611 0.434245 0.420599 0.351822 
0.438209 0.516705 0.490488 0.51809 0.775863 0.551509 0.296094 0.524897 0.482168 
0.822948 0.54503 0.591953 0.456721 0.505612 0.591482 0.605062 0.548862 0.47086 
0.247062 0.2722 0.293826 0.368161 0.407497 0.46282 0.487203 0.518233 0.47279 
0.508623 0.477234 0.423097 0.423097 0.416893 0.453697 0.335377 0.2986 0.316702 
0.2905 0.349777 0.406346 0.357093 0.434668 0.411404 0.439913 0.439913 0.41227 
0.376681 0.376681 0.298305 0.298305 0.337898 0.382538 0.441055 0.36283 0.315874 
0.315874 0.329116 0.290081 0.371205 0.416798 0.47349 0.453273 0.376223 0.376223 
0.358085 0.358085 0.390936 0.40101 0.40101 0.366531 0.304214 0.304214 0.279679 
0.331763 0.389397 0.403788 0.381494 0.428196 0.341513 0.341513 0.499104 0.528788 
0.511758 0.526126 0.488177 0.415518 0.414326 0.367533 0.352041 0.364341 0.414472 
0.677065 0.578127 0.49278 0.40059 0.40059 0.356297 0.356896 0.384985 0.45882 
0.524354 0.583785 0.52337 0.594578 0.625366 0.611194 0.681633 0.681633 0.67709 
0.652523 0.65342 0.616167 0.605062 0.622916 0.551398 0.537543 0.48748 0.499569 
0.499569 0.543681 0.543681 0.521281 0.581556 0.62312 0.686025 0.686025 0.699252 
0.701558 0.68325 0.626385 0.626385 0.629953 0.61063 0.611498 0.566915 0.591482 
0.530431 0.609671 0.651864 0.594167 0.678214 0.730323 0.695959 0.628473 0.524737 
0.510024 0.509979 0.514391 0.466699 0.40834 0.436686 0.385783 0.450273 0.437688 
0.467074 0.468917 0.421827 0.453716 0.552152 0.602296 0.574584 0.608194 0.518603 
0.567974 0.553377 0.544832 0.665735 0.594325 0.481916 0.508581 0.468304 0.535963 
0.627062 0.623604 0.578028 0.636246 0.496157 0.555227 0.48956 0.360255 0.430615 
0.424721 0.51454 0.486361 0.450514 0.378503 0.463133 0.443392 0.463038 0.489368 
0.549926 0.535404 0.454147 0.489003 0.457145 0.514302 0.552908 0.50168 0.495977 
0.416761 0.45595 0.490418 0.540023 0.526497 0.488298 0.557779 0.560161 0.483612 
0.436953 0.505307 0.516449 0.558633 0.611575 0.600598 0.624852 0.682542 0.619762 
0.634936 0.668383 0.54503 0.61979 0.729371 0.537291 0.524897 0.461804 0.602044 
0.551509 0.524552 0.510714 0.434419 0.435336 0.484126 0.548414 0.478596 0.499626 
0.522871 0.529333 0.745454 0.718387 0.718327 0.674528 0.700511 0.886463 0.926092 
0.790877 0.836104 0.730801 0.731438 0.796874 0.766146 0.685624 0.889797 0.73741 
0.7446 0.628986 0.62998 0.474072 0.498552 0.450485 0.426009 0.416793 0.416793 
0.418961 0.402034 0.402034 0.345438 0.357229 0.357229 0.34265 0.34265 0.349935 
0.341223 0.341223 0.309024 0.3634 0.414108 0.383918 0.438743 0.502596 0.463413 
0.414467 0.415364 0.420358 0.467429 0.464411 0.423751 0.384116 0.49769 0.518716 
0.523742 0.613195 0.656189 0.394311 0.392636 0.448485 0.501253 0.540801 0.507727 
0.545172 0.504013 0.472209 0.510177 0.510177 0.554602 0.497442 0.526751 0.478926 
0.424671 0.393538 0.379701 0.407528 0.567453 0.560157 0.606875 0.339033 0.382589 
0.367728 0.360749 0.360749 0.355749 0.330462 0.360054 0.331215 0.305222 0.318776 
0.322219 0.424876 0.510265 0.601089 0.69739 0.719474 0.677471 0.676383 0.711247 
0.667024 0.592407 0.506726 0.465137 0.483882 0.632111 0.599265 0.568136 0.496104 
0.417598 0.390923 0.379891 0.371042 0.349944 0.372089 0.380635 0.42508 0.47839 
0.436458 0.399613 0.479222 0.511045 0.572525 0.561119 0.581423 0.598938 0.601004 
0.585582 0.607183 0.599836 0.673972 0.665891 0.652765 0.583365 0.624635 0.620227 
0.620227 0.584279 0.6515 0.632831 0.627711 0.368475 0.417528 0.425517 0.460342 
0.356509 0.30855 0.28155 0.278522 0.267358 0.264003 0.306663 0.317125 0.367402 
0.378525 0.433247 0.363607 0.399292 0.470202 0.454759 0.462416 0.643993 0.687577 
0.639047 0.534204 0.458031 0.455049 0.448308 0.434428 0.470616 0.571036 0.677651 
0.722616 0.579659 0.587244 0.564597 0.520734 0.491167 0.485478 0.621397 0.527566 
0.561429 0.528237 0.43419 0.552908 0.424792 0.421278 0.413598 0.4059 0.508724 
0.539038 0.609768 0.410943 0.384118 0.429216 0.522026 0.464247 0.548041 0.611762 
0.611762 0.609378 0.529054 0.541566 0.570433 0.49703 0.52794 0.517381 0.48646 
0.495833 0.414253 0.432311 0.432311 0.453679 0.487253 0.443959 0.32439 0.370593 
0.359626 0.361785 0.406352 0.60509 0.629057 0.494784 0.657206 0.642584 0.419842 
0.433308 0.464896 0.493272 0.506652 0.527552 0.509557 0.48787 0.49267 0.484223 
0.516928 0.575358 0.583413 0.58829 0.595676 0.553834 0.554452 0.530297 0.499737 
0.531176 0.625472 0.571881 0.644259 0.670248 0.698781 0.614062 0.532206 0.509332 
0.536986 0.542178 0.454496 0.480377 0.474116 0.474806 0.453465 0.33511 0.374311 
0.312596 0.348056 0.348056 0.408575 0.673448 0.688489 0.707223 0.645013 0.630625 
0.595982 0.578981 0.578981 0.591876 0.605206 0.671011 0.626123 0.596843 0.643758 
0.486959 0.486959 0.432849 0.446741 0.446741 0.49347 0.517732 0.490917 0.521624 
0.526427 0.628819 0.390044 0.350334 0.363653 0.398882 0.398882 0.424644 0.455782 
0.455782 0.452418 0.649508 0.647047 0.613961 0.564307 0.501235 0.48661 0.472818 
0.437166 0.446354 0.498458 0.437092 0.501154 0.489001 0.426663 0.423212 0.460735 
0.460735 0.472918 0.472918 0.501555 0.395641 0.395641 0.384098 0.350689 0.413351 
0.476867 0.53391 0.585844 0.539745 0.549158 0.583397 0.540555 0.617418 0.503754 
0.492181 0.495772 0.41388 0.552631 0.676558 0.569999 0.505575 0.539913 0.538718 
0.598215 0.575712 0.52175 0.52175 0.53353 0.522025 0.519986 0.509497 0.48359 
0.489161 0.513148 0.557443 0.539875 0.542465 0.578487 0.561989 0.438774 0.454078 
0.426587 0.34508 0.382449 0.44746 0.476247 0.476247 0.653538 0.691412 0.733884 
0.792791 0.541264 0.46736 0.467287 0.448732 0.462318 0.571732 0.53886 0.713551 
0.75318 0.766291 0.851001 0.744392 0.614557 0.577968 0.682717 0.750196 0.751808 
0.413666 0.602975 0.685009 0.708357 0.610399 0.569108 0.521101 0.45356 0.492388 
0.494246 0.430167 0.430749 0.459745 0.530133 0.441059 0.428042 0.360146 0.401995 
0.490098 0.561455 0.667198 0.644523 0.532965 0.469642 0.406247 0.474984 0.777847 
0.639995 0.505737 0.422814 0.387548 0.404218 0.486781 0.579104 0.53157 0.541625 
0.521218 0.492914 0.939353 0.580893 0.505346 0.559919 0.424943 0.391955 0.36257 
0.352292 0.435247 0.532401 0.51531 0.479404 0.41012 0.48032 0.540503 0.551912 
0.606955 0.505586 0.628168 0.521405 0.515953 0.0480811 0.213683 0.282529 0.282529 
0.286707 0.296438 0.339276 0.352141 0.399143 0.303728 0.423512 0.460723 0.494371 
0.466148 0.514127 0.516253 0.550645 0.596058 0.601296 0.585348 0.585348 0.657392 
0.717029 0.769747 0.715484 0.64997 0.562062 0.449848 0.453263 0.497169 0.490641 
0.482422 0.425455 0.460443 0.540316 0.540316 0.594053 0.562252 0.562252 0.525037 
0.492888 0.527088 0.549947 
WidthEq 1 768 double
1.21009 1.66871 1.72967 1.82591 1.84443 1.95089 1.3223 1.10473 1.05803 
1.13693 1.74914 2.67475 1.97665 1.92656 1.62558 2.39251 1.16451 1.67483 
1.21017 1.88614 1.91439 2.96976 2.24668 1.81363 2.85384 1.35255 2.97088 
2.50597 2.67387 2.9456 2.58101 2.94299 3.53323 3.46617 2.23113 3.88693 
3.13875 1.9712 1.64056 3.25101 2.98288 1.77215 3.80027 3.89802 1 
3.07887 3.31552 3.65003 2.52226 2.14657 2.88491 3.24346 2.66297 3.12508 
1.6763 3.0389 2.69819 2.91539 2.61904 2.80773 2.04388 2.18093 2.55141 
2.01269 1.96241 2.77392 2.8809 2.72433 2.73251 2.6671 2.44703 2.38821 
2.19303 2.23143 2.3121 2.3121 2.45834 2.66307 2.86592 2.77692 2.68557 
2.43055 2.38932 2.27773 2.34069 2.2199 2.39619 2.37734 2.37734 2.50268 
2.51011 2.51011 2.50019 2.50019 2.5329 2.55524 2.46389 2.69323 2.89309 
2.89309 2.88716 2.84097 2.56585 2.29872 2.23603 2.17021 2.31985 2.31985 
2.42693 2.42693 2.38843 2.23779 2.23779 2.20681 2.27615 2.27615 2.46815 
2.60732 2.57584 2.81021 2.94145 2.88561 3.22158 3.22158 2.57692 2.48978 
2.24264 2.31559 2.28036 2.39394 2.53876 2.73947 2.78977 2.75796 2.61671 
2.59131 2.69333 2.94691 3.1648 3.1648 3.12466 2.91597 2.68214 2.59146 
2.56329 2.42999 2.4578 2.4072 2.40124 2.34908 2.28439 2.28439 2.34861 
2.36185 2.4159 2.55225 2.04388 2.39948 2.48903 2.54908 2.59288 2.6366 
2.6366 2.60888 2.60888 2.6598 2.63548 2.53163 2.23892 2.23892 2.10695 
2.16566 2.21642 2.42057 2.42057 2.46905 2.53162 2.60349 2.69324 2.80773 
3.07758 3.03151 2.78519 2.9754 2.83691 2.61922 2.63979 2.62622 3.15148 
2.64233 2.48554 2.36598 2.36119 2.35839 2.40125 2.71968 2.60536 2.89828 
3.27147 3.41405 3.68329 3.73393 2.38745 2.11316 2.00612 2.11919 2.38902 
2.38651 2.44905 2.36242 2.25114 2.28929 2.30161 2.3496 2.45523 2.42319 
2.32782 2.39201 2.42508 2.31113 2.36255 2.41712 2.44833 2.56426 2.58438 
2.73291 2.85658 2.89598 2.81817 2.82769 2.61791 2.62853 2.5955 2.87265 
2.61077 2.55752 2.71123 2.70371 2.84081 2.97282 2.9206 2.87687 2.80579 
2.9685 3.07124 3.36898 3.42405 3.50162 3.25932 3.1382 2.8833 2.85601 
2.90674 3.25101 2.59897 2.45666 2.3526 2.30191 2.31004 2.20236 2.31346 
2.32414 2.26963 3.0389 2.70148 2.09349 3.30274 2.66297 2.66803 2.77861 
2.88491 2.47655 2.4601 2.57788 2.88633 3.0947 2.85218 2.92926 2.92796 
2.92817 3.18445 2.05219 1.99041 2.18055 2.1166 1.92891 1.70416 1.5611 
1.66097 1.57253 1.71258 1.77629 1.73544 1.95604 2.15421 1.90128 2.36993 
2.57629 2.88935 2.88037 2.62987 2.84812 3.00236 3.08383 2.92029 2.92029 
2.63054 2.60321 2.60321 2.88219 3.00096 3.00096 3.10238 3.10238 2.94005 
2.57521 2.57521 2.46387 2.25338 2.22802 2.15555 2.19789 2.14955 2.38078 
2.37454 2.63323 3.2758 3.81017 3.56527 3.36261 2.79643 2.60169 2.18205 
2.09936 1.96015 1.94507 3.65363 3.46989 3.18146 3.1314 3.13111 3.54268 
3.39609 3.81275 3.72833 3.19993 3.19993 3.27747 3.31766 3.47084 3.39566 
3.70279 3.57884 3.35401 2.93654 2.39958 2.34664 2.50132 2.92991 2.94157 
2.83026 2.59373 2.59373 2.38131 2.27458 2.24156 2.15671 2.25706 2.45022 
2.72438 2.83112 1.22677 1.61546 1.77496 1.83928 1.91098 1.89938 1.9035 
1.95579 3.22453 2.88679 3.0327 3.38228 1.70857 1.7428 1.48919 1.48857 
1.56164 1.54576 1.5152 1.53778 1.5192 1.51469 1.61624 1.7648 1.73116 
1.82692 1.8191 1.84316 1.75847 1.68018 1.56666 1.2848 1.1999 1.17553 
1.35224 1.60312 1.88978 2.53145 2.50959 2.65357 3.11852 2.9511 2.9697 
2.9697 2.92322 2.61843 2.86332 3.06814 3.67316 3.82401 3.47061 3.44003 
3.6797 3.62823 3.33168 3.1126 2.69514 2.38646 2.1619 2.00706 1.8707 
1.88416 1.80872 1.83684 1.83456 1.84233 2.01279 2.18472 2.09265 2.30144 
2.45098 2.66093 2.83092 2.7493 2.56416 2.29232 2.10521 1.85557 1.73839 
1.69399 1.66532 1.71259 1.80382 1.82637 1.92109 2.12992 1.79905 2.2485 
2.2141 2.2905 2.01783 3.31716 3.62528 3.4351 3.09552 3.34859 2.80426 
3.44856 3.34851 2.49753 2.41899 2.36121 2.2434 2.32772 2.25904 2.25181 
2.25181 2.28936 2.40582 2.65695 2.74245 2.95119 2.97989 2.86469 2.77629 
2.58131 2.29333 2.16453 2.16453 2.04556 2.01727 2.10764 2.40308 2.24748 
2.49572 2.58083 2.58415 3.05635 3.00567 3.75898 3.179 3.07467 2.63553 
2.55496 2.46855 2.53302 2.76897 2.76798 2.90254 2.97004 2.99412 2.79339 
2.54027 2.43169 2.10055 2.0896 1.82625 1.62862 1.77996 1.71272 1.70935 
1.75271 1.74247 2.41939 2.16798 2.05545 1.97641 1.87486 2.58327 2.21506 
2.10329 1.96823 1.95202 2.2829 2.08744 1.81023 1.56046 1.39076 1.48373 
1.77125 2.40878 2.40878 2.78375 2.52378 2.20258 1.82115 2.35419 2.11584 
1.98925 1.61133 1.61133 1.50174 1.37826 1.2756 1.29476 1.31756 1.23192 
1.44158 1.44158 1.54337 1.8113 1.8113 1.95328 2.14449 2.20295 2.35601 
2.45911 2.27468 2.15895 1.92042 1.79556 1.62798 1.62798 1.74246 1.73784 
1.73784 1.81363 2.79973 2.6342 2.38921 2.21594 2.12161 1.97052 1.87601 
1.83611 1.83935 1.7306 1.80748 1.73715 1.72401 1.75633 1.72374 1.7175 
1.7175 1.77058 1.77058 1.84943 2.0395 2.0395 2.08749 2.29654 2.22632 
2.20987 2.15327 2.10892 2.25584 2.36008 2.23365 2.25532 2.21994 2.30711 
2.1119 1.95496 1.75668 1.61304 2.58872 2.95752 3.06338 2.84388 2.88987 
2.58467 2.65172 2.65704 2.65704 2.50537 2.29334 2.33276 2.05572 2.00085 
1.9402 2.69723 2.58082 2.64134 2.63917 2.60635 1.7365 1.88679 1.83737 
1.96581 1.79304 1.7656 1.36519 1.27347 1.27347 1.06908 1.1025 1.29735 
1.48343 1.8338 1.96936 1.96933 2.03668 2.15491 2.0529 2.13072 2.1087 
1.869 1.81439 1.77639 2.03509 2.40565 2.72478 2.2525 1.87975 1.5922 
2.01688 1.94538 1.54891 1.31913 1.84532 1.87624 2.0206 1.77202 1.57084 
1.48284 1.48565 1.39819 1.32069 1.26972 1.25873 1.26023 1.27543 1.40477 
1.43826 1.56691 1.71751 1.7781 2.04413 2.16278 1.97346 2.49002 1.69311 
1.73731 1.70911 1.70606 1.74713 1.67468 1.5828 1.50648 1.46074 1.54769 
1.58946 1.63551 1.43555 1.75243 1.85822 1.84552 1.95676 1.85881 1.88328 
1.77692 1.72472 1.70021 1.87597 2.12543 2.39454 2.32404 2.28017 2.1412 
1.99046 1.95642 1.55439 1.52028 1.58628 1.03905 1.58704 1.78616 1.78616 
1.97881 2.17825 2.11858 1.77457 1.68896 1.75119 1.96788 2.02006 2.15128 
2.22555 2.19411 2.12384 2.04061 1.96606 1.85947 1.85021 1.85021 1.73243 
1.67744 1.57307 1.54345 1.53694 1.50914 1.7547 1.77881 1.89138 1.82007 
1.77331 1.71536 1.72967 1.56941 1.56941 1.51621 1.44264 1.44264 1.47046 
1.5278 1.6117 1.67779 
rRFP 1 768 double
3501.72 3969.27 4031.42 4129.53 4148.41 4256.94 3616.11 3394.31 3346.7 
3427.14 4051.27 4994.9 4283.2 4232.14 3925.3 4707.16 3455.25 3975.51 
3501.8 4190.93 4219.73 5295.65 4558.49 4117.01 5177.47 3646.95 5296.79 
4822.83 4994 5271.02 4899.33 5268.36 5870.09 5801.72 4542.64 6230.68 
5467.93 4277.65 3940.57 5582.38 5309.02 4074.72 6142.33 6241.98 3287.54 
5406.88 5648.14 5989.16 4839.44 4456.43 5209.15 5574.68 4982.89 5453.99 
3977.01 5366.14 5018.79 5240.22 4938.1 5130.46 4351.74 4491.46 4869.15 
4319.95 4268.69 5096 5205.06 5045.44 5053.78 4987.1 4762.74 4702.78 
4503.8 4542.94 4625.19 4625.19 4774.27 4982.99 5189.79 5099.05 5005.93 