# vtk DataFile Version 3.0
vtk output
ASCII
DATASET POLYDATA
POINTS 740 float
1.64608 0.625349 0.682125 1.08837 -0.552308 0.934971 0.334174 -0.145758 0.786121 
0.425635 0.476244 0.497376 4.98073 0.661722 0.78693 5.63466 0.744171 0.645516 
5.40019 0.240831 0.628124 5.17451 0.657386 0.60615 2.50566 -0.54324 0.484981 
-0.319287 0.05384 0.0696889 -0.419022 0.403042 0.00460636 5.53451 0.0710455 0.533841 
2.36944 -1.10241 0.187621 1.95536 1.07468 -0.0303013 5.29105 0.972068 0.163862 
5.0891 0.785486 0.169405 4.77879 0.368996 0.129981 6.89784 -0.0570447 0.127837 
4.9429 0.452319 0.000216271 4.78442 0.202914 0.0203904 3.03922 -0.0315365 -0.143461 
-0.722175 -0.177074 -0.55189 4.76851 0.843404 -0.283492 4.09572 0.075192 -0.446141 
-0.34937 -0.986972 -0.58838 5.17019 1.15374 -0.488816 2.90692 -1.06064 -0.398327 
2.41398 0.94671 -0.908427 4.83037 0.918935 -0.763177 4.34467 0.504518 -0.755123 
3.33341 -0.290239 -0.680934 3.09212 -0.829291 -0.693618 1.57724 -1.64801 -0.673427 
1.50295 1.13528 -1.27933 -0.176562 -0.95867 -0.980217 -0.810688 0.367958 -1.2567 
7.26407 0.281098 -0.742801 7.28256 0.497616 -0.553342 3.27414 -0.74905 -0.820859 
-0.70126 0.21213 -1.42386 7.06363 -0.412394 -0.777976 7.09795 0.835123 -0.829988 
7.12861 0.995858 -0.851175 2.62926 0.663795 -1.31546 4.39792 -0.386443 -1.15515 
4.304 -0.249923 -1.25477 4.22147 0.141983 -1.25656 2.157 -1.40906 -1.39797 
2.41657 0.56343 -1.52804 1.31981 0.918286 -1.70818 5.76753 1.12225 -1.43376 
1.56749 -1.41954 -1.52421 1.77231 0.814967 -1.97987 -0.0584945 -0.641533 -1.82999 
6.99932 0.164453 -1.34915 6.91239 0.290097 -1.37841 6.14989 -0.621827 -1.57827 
5.0666 0.497231 -1.62164 2.97035 -0.0272473 -1.78113 1.96579 -1.51443 -1.66765 
6.8301 0.0012648 -1.54709 5.30188 -0.454101 -1.7879 5.19647 0.448559 -1.80292 
3.09 -0.129497 -1.95535 2.07522 -1.67026 -1.83481 1.95741 0.618896 -2.20007 
1.03979 -0.993933 -2.05733 0.293234 -0.256669 -2.25612 5.93228 -0.202488 -1.82225 
5.79166 -0.0675997 -1.85908 5.4108 -0.610744 -1.81924 6.4201 -0.700159 -1.89354 
6.3586 -0.652039 -1.79862 6.28901 -0.650035 -1.70885 6.21676 -0.648596 -1.63061 
5.37339 -0.389138 -1.82238 5.4195 -0.335364 -1.84799 5.47379 -0.289305 -1.8589 
5.53614 -0.244957 -1.86109 5.59994 -0.200604 -1.8606 5.66385 -0.156269 -1.86009 
5.72776 -0.111934 -1.85959 5.35954 -0.537024 -1.80376 5.84238 -0.0924396 -1.84946 
5.88842 -0.14176 -1.8366 5.73758 0.00971825 -1.77911 5.6906 0.0819164 -1.7277 
5.67096 0.144534 -1.7094 5.70478 0.195024 -1.70575 5.75117 0.242374 -1.70771 
5.77753 0.292199 -1.71989 5.80399 0.340059 -1.74684 5.84771 0.381912 -1.79352 
5.88868 0.421434 -1.84769 5.94358 0.449257 -1.89093 6.00234 0.460324 -1.90853 
6.05992 0.466619 -1.91045 6.11127 0.439619 -1.90796 6.163 0.403681 -1.91914 
6.21291 0.347202 -1.94246 6.26045 0.283776 -1.95743 6.30651 0.234562 -1.94459 
6.35391 0.214301 -1.90588 6.40083 0.197038 -1.86015 6.44695 0.164573 -1.82725 
6.49721 0.142838 -1.81061 6.54796 0.118212 -1.80101 6.59438 0.0708791 -1.78842 
6.64082 0.0236531 -1.77585 6.6911 0.00202506 -1.75922 6.74108 -0.00473432 -1.72229 
6.78724 -0.00402411 -1.64923 0.365397 -0.240369 -2.34841 0.431734 -0.232671 -2.40988 
0.496379 -0.206416 -2.43668 0.558185 -0.178581 -2.44142 0.614806 -0.172443 -2.43588 
0.671089 -0.168078 -2.4301 0.729827 -0.150844 -2.42602 0.785708 -0.148584 -2.41997 
0.839374 -0.157935 -2.41239 0.890487 -0.18067 -2.40304 0.93644 -0.229875 -2.39021 
0.978401 -0.290386 -2.37611 1.01014 -0.351079 -2.36315 1.02529 -0.409026 -2.35251 
1.04538 -0.467823 -2.34117 1.05864 -0.525445 -2.3308 1.07863 -0.584224 -2.31948 
1.09178 -0.641827 -2.30912 1.10988 -0.700281 -2.29807 1.1114 -0.755882 -2.28935 
1.10317 -0.809803 -2.282 1.094 -0.862588 -2.2674 1.0901 -0.913357 -2.22988 
1.08538 -0.959113 -2.15551 1.90192 0.680963 -2.13551 1.83974 0.735891 -2.06057 
2.02009 -1.59179 -1.7476 3.0276 -0.0891142 -1.86312 5.13196 0.472337 -1.71591 
5.20592 -0.481552 -1.72931 5.13442 -0.483931 -1.69188 5.07363 -0.484621 -1.67108 
5.01176 -0.497783 -1.64849 4.95086 -0.493444 -1.61088 4.89098 -0.478253 -1.56727 
4.83227 -0.46241 -1.53118 4.77525 -0.448695 -1.50965 4.71907 -0.436097 -1.4954 
4.66205 -0.422382 -1.47386 4.60418 -0.407655 -1.44504 4.54261 -0.390337 -1.38687 
4.47468 -0.378945 -1.29081 6.09184 -0.645329 -1.53983 6.0317 -0.688047 -1.52884 
5.96996 -0.720371 -1.5234 5.9094 -0.733717 -1.50943 5.84576 -0.749238 -1.47662 
5.78393 -0.760734 -1.45176 5.7218 -0.790245 -1.44681 5.6617 -0.82011 -1.45664 
5.60497 -0.821361 -1.45541 5.54976 -0.798128 -1.43513 5.49654 -0.759009 -1.40952 
5.43998 -0.748399 -1.39501 5.3774 -0.774804 -1.38303 5.31213 -0.809823 -1.3625 
5.24803 -0.82223 -1.32268 5.18978 -0.793054 -1.2735 5.12857 -0.773856 -1.21558 
5.06491 -0.767526 -1.15596 5.00739 -0.734473 -1.10729 4.95054 -0.708898 -1.07248 
4.89434 -0.696408 -1.05821 4.83679 -0.696432 -1.04971 4.77557 -0.710215 -1.03198 
4.71467 -0.705876 -0.994371 4.65479 -0.690686 -0.950759 4.59611 -0.674735 -0.914683 
4.54113 -0.661268 -0.907959 4.49171 -0.640661 -0.931875 4.45075 -0.598164 -0.988345 
4.41473 -0.545498 -1.05337 4.38987 -0.491836 -1.10971 4.38896 -0.439265 -1.14052 
6.87356 -0.0615574 -1.53246 6.91705 -0.124273 -1.51784 6.96087 -0.185214 -1.50346 
7.00561 -0.235288 -1.48309 7.04879 -0.266916 -1.44312 7.07236 -0.304291 -1.35674 
7.06339 -0.338953 -1.21417 7.05069 -0.371305 -1.01455 6.88984 0.0511897 -1.51021 
6.94625 0.105584 -1.44423 1.68462 0.759588 -2.01409 1.61595 0.722668 -2.03891 
1.55885 0.719386 -2.04746 1.50389 0.742434 -2.02964 1.44726 0.791106 -1.96819 
1.3842 0.844469 -1.85539 2.01605 -1.45372 -1.53547 2.07798 -1.41689 -1.44353 
1.90814 -1.45466 -1.58539 1.84732 -1.43347 -1.52774 1.78565 -1.44413 -1.50299 
1.72893 -1.44529 -1.50176 1.67488 -1.43792 -1.50909 1.62118 -1.42879 -1.51664 
2.95621 0.0431938 -1.69552 2.9323 0.111418 -1.64087 2.92555 0.171816 -1.62075 
2.91859 0.230303 -1.61545 2.88615 0.294149 -1.60635 2.83895 0.364435 -1.56976 
2.78915 0.438095 -1.51136 2.7473 0.51222 -1.43704 2.72155 0.579684 -1.37493 
2.68131 0.634826 -1.33522 2.90927 -0.0730434 -1.78863 2.85951 -0.122627 -1.80933 
2.82742 -0.176233 -1.85002 2.78357 -0.216799 -1.90161 2.73503 -0.229196 -1.95806 
2.68643 -0.226785 -2.00925 2.64077 -0.213862 -2.06926 2.59795 -0.186064 -2.13123 
2.55149 -0.171808 -2.184 2.50102 -0.162158 -2.21389 2.45041 -0.142312 -2.23027 
2.40177 -0.106591 -2.24133 2.35066 -0.0838456 -2.25068 2.29955 -0.0610998 -2.26003 
2.25177 -0.026399 -2.27838 2.2023 -0.00599632 -2.30226 2.15335 0.0116125 -2.3332 
2.10369 0.0364846 -2.35025 2.04857 0.0437095 -2.35013 1.99558 0.0730527 -2.33809 
1.94246 0.0962511 -2.33265 1.89048 0.119901 -2.3347 1.84146 0.153635 -2.34549 
1.78744 0.161096 -2.35283 1.72722 0.136117 -2.35589 1.66767 0.120109 -2.3527 
1.61358 0.143695 -2.3399 1.55451 0.157659 -2.30355 1.49031 0.15014 -2.25696 
1.43028 0.153566 -2.22665 1.37661 0.162917 -2.23423 1.32966 0.180064 -2.27995 
1.28942 0.221354 -2.3437 1.25021 0.273602 -2.40147 1.20618 0.322469 -2.42911 
1.15622 0.361112 -2.42569 1.10859 0.419479 -2.38732 1.08181 0.48723 -2.32537 
1.09679 0.551571 -2.24304 1.12185 0.61234 -2.17408 1.16536 0.667982 -2.11731 
1.20991 0.722472 -2.06779 1.23812 0.783671 -1.991 1.27623 0.849014 -1.86845 
6.95669 0.226157 -1.37105 7.04553 0.165377 -1.27611 7.09208 0.168074 -1.20332 
7.13952 0.181888 -1.1227 7.18816 0.214125 -1.02026 7.23355 0.239605 -0.885107 
-0.128635 -0.67505 -1.75745 -0.188807 -0.708334 -1.66872 -0.223161 -0.743141 -1.55418 
-0.235079 -0.780836 -1.42907 -0.217952 -0.824507 -1.30727 -0.189301 -0.87211 -1.19862 
-0.170304 -0.918051 -1.09133 1.83862 0.900099 -1.85212 1.89365 0.95582 -1.74125 
1.94113 0.974437 -1.65068 1.98722 0.978157 -1.57306 2.03462 0.979844 -1.50755 
2.08552 0.988918 -1.45786 2.14091 1.01053 -1.42467 2.19347 1.01737 -1.38953 
2.2425 1.01661 -1.33855 2.28893 1.01483 -1.27011 2.33137 1.00519 -1.17829 
2.37029 0.976472 -1.05629 2.23124 -1.36804 -1.38822 2.29668 -1.33135 -1.39391 
2.35757 -1.31441 -1.40463 2.42178 -1.28497 -1.42442 2.48782 -1.24586 -1.44549 
2.55504 -1.20611 -1.47407 2.62395 -1.16848 -1.51721 2.69358 -1.13195 -1.56765 
2.75967 -1.09287 -1.60379 2.81004 -1.0462 -1.6052 2.83162 -0.989707 -1.5737 
2.84974 -0.930666 -1.52789 2.88347 -0.8754 -1.48728 2.91525 -0.823688 -1.46141 
2.96063 -0.785448 -1.42438 3.00578 -0.770865 -1.341 3.04131 -0.770505 -1.18865 
3.06688 -0.79247 -0.963631 4.34886 -0.196285 -1.41374 4.37331 -0.147554 -1.50894 
4.37053 -0.0900448 -1.51558 4.33297 -0.0190745 -1.4604 4.279 0.0601738 -1.36562 
5.71347 1.12951 -1.44107 5.65673 1.12826 -1.43983 5.59468 1.11559 -1.41482 
5.53045 1.1244 -1.34811 5.46222 1.15067 -1.23174 5.38902 1.18345 -1.07169 
5.31215 1.20659 -0.887958 5.23564 1.1955 -0.691375 1.37918 0.968711 -1.66765 
1.43441 1.02423 -1.58689 1.4825 1.08224 -1.45076 2.46952 0.572257 -1.49316 
2.52364 0.598185 -1.4457 2.57545 0.622998 -1.38324 4.1608 0.111757 -1.14573 
4.12091 0.085751 -0.980379 4.09685 0.0727121 -0.739778 4.18739 0.212933 -1.19595 
4.18805 0.279596 -1.11812 4.22503 0.34423 -1.01319 4.2789 0.416154 -0.889864 
4.20477 -0.154086 -1.00682 4.13374 -0.0461915 -0.73739 4.35388 -0.322411 -1.20272 
7.0351 -0.503817 -0.897933 6.99081 -0.560518 -0.984799 6.93934 -0.586321 -1.02695 
6.88961 -0.6215 -1.02975 6.85002 -0.665045 -1.00497 6.79313 -0.702689 -0.960454 
6.72751 -0.727803 -0.911307 6.6641 -0.737189 -0.871878 6.60214 -0.754839 -0.853637 
6.54315 -0.767915 -0.850839 6.48288 -0.787694 -0.847158 6.42222 -0.798534 -0.829815 
6.35779 -0.812724 -0.789765 6.29297 -0.817975 -0.736044 6.22603 -0.82881 -0.674162 
6.16039 -0.832835 -0.613178 6.09465 -0.842908 -0.558821 6.03287 -0.837665 -0.513908 
5.97347 -0.825475 -0.477336 5.91253 -0.82135 -0.43969 5.85012 -0.835894 -0.414434 
5.792 -0.849874 -0.418942 5.73626 -0.873362 -0.451887 5.6845 -0.881427 -0.494289 
5.63212 -0.8763 -0.516165 5.57675 -0.864927 -0.509165 5.51808 -0.848869 -0.473103 
5.45809 -0.828802 -0.422719 5.39912 -0.797884 -0.366341 5.34298 -0.752102 -0.311922 
[...]
POINT_DATA 740
SCALARS DY_raw double
LOOKUP_TABLE default
586.933 614.768 592.909 613.334 1116.94 748.406 1043.9 1022.78 497.44 
675.029 711.475 1555.96 597.379 445.417 732.787 662.687 786.247 740.171 
762.289 629.507 495.096 569.022 664.985 763.301 914.743 538.008 631.237 
657.741 621.037 745.949 590.878 584.258 1035.48 567.753 721.41 643.914 
704.804 702.544 701.629 442.999 855.033 702.908 570.252 539.725 865.164 
713.442 631.758 861.64 523.832 621.937 745.177 653.759 519.488 648.611 
668.967 687.887 637.697 844.44 489.033 636.589 836.999 676.457 871.307 
568.913 933.265 1038.89 865.556 722.36 1023.98 674.754 777.62 845.654 
746.935 710.285 706.463 731.454 775.835 810.336 698.926 628.727 769.751 
637.689 753.651 815.372 870.809 747.336 644.514 632.976 663.944 651.286 
651.286 657.518 654.509 690.561 720.602 753.543 753.543 938.342 995.382 
1160.75 1100.62 995.272 964.517 885.532 846.782 926.59 933.758 880.455 
967.348 909.793 777.309 890.625 616.882 618.551 578.658 628.841 801.663 
753.524 753.524 762.163 714.661 714.661 765.898 827.106 796.022 871.299 
809.381 840.118 705.732 687.824 687.824 546.537 581.187 544.359 579.053 
642.995 615.205 525.813 686.261 614.897 951.711 655.96 632.928 666.685 
602.392 629.422 593.867 657.2 657.2 682.408 682.408 704.566 710.536 
765.734 588.423 595.918 613.337 665.725 706.716 758.328 739.464 834.213 
775.441 732.858 738.758 662.59 708.791 721.121 790.501 854.93 839.756 
773.576 798.227 721.307 712.818 755.021 789.572 805.6 846.346 795.032 
795.032 780.547 706.004 753.501 805.962 805.962 794.288 794.288 827.337 
757.795 673.18 645.095 602.742 648.56 648.765 700.998 505.429 544.872 
516.559 554.48 615.743 640.932 832.811 797.629 648.353 662.228 706.115 
646.594 646.594 642.93 545.972 536.403 559.18 559.18 587.263 598.566 
708.512 698.767 668.443 539.725 634.207 604.349 647.243 701.778 667.514 
630.158 732.025 720.604 764.829 877.003 877.003 984.893 968.199 925.776 
900.399 903.455 838.212 942.966 942.966 1037.25 895.789 895.789 889.037 
898.239 898.239 876.24 703.306 638.342 658.645 653.605 666.563 709.566 
685.08 785.622 728.152 744.214 690.086 614.56 592.57 658.433 840.411 
687.158 800.93 772.414 687.887 661.296 658.135 629.613 643.011 623.192 
700.144 654.022 675.392 756.389 731.078 730.781 756.562 592.619 601.819 
699.91 643.051 676.652 659.926 659.926 644.837 673.141 555.854 529.124 
557.219 829.962 847.449 837.155 850.768 865.792 695.277 856.882 780.241 
623.258 548.382 581.875 517.434 517.434 598.755 698.95 828.901 850.775 
618.702 696.437 628.708 592.456 540.571 490.161 745.177 610.613 564.973 
626.26 680.501 745.657 580.687 487.684 644.201 644.079 620.924 514.063 
545.604 512.975 706.253 821.657 761.872 632.875 709.178 766.564 782.84 
842.187 851.767 775.298 844.978 821.776 813.301 817.487 715.032 741.812 
803.766 1016.34 806.791 911.902 911.902 871.659 807.501 991.532 751.527 
718.774 776.792 562.66 607.274 645.31 649.71 789.945 814.996 805.411 
806.755 768.245 771.999 710.16 760.313 815.16 728.408 780.569 725.603 
765.286 757.217 810.61 740.663 788.269 838.206 726.327 1006.85 940.369 
1056.48 961.235 891.551 875.481 1000.56 958.747 433.465 489.847 611.057 
611.057 762.252 587.627 541.578 612.968 680.612 621.061 723.793 538.808 
498.43 471.939 502.557 567.79 632.774 817.262 795.106 829.044 905.825 
857.7 851.993 661.55 576.997 576.997 512.185 534.237 571.887 491.445 
564.216 580.616 636.329 684.889 665.09 612.838 670.797 845.45 825.204 
740.96 694.386 711.362 650.182 626.855 602.366 439.351 483.503 466.694 
465.778 533.928 516.216 510.445 473.291 589.255 623.539 702.827 712.404 
667.379 609.992 548.382 605.177 756.746 740.602 623.916 650.094 658.012 
613.249 588.827 588.827 597.87 580.666 585.469 579.04 613.018 572.448 
589.342 586.17 616.762 616.762 652.304 667.544 662.468 662.468 639.759 
664.672 664.672 703.03 676.771 588.837 510.498 518.021 542.909 554.496 
554.496 636.855 686.461 686.461 770.295 1035.48 784.496 589.234 638.706 
569.31 569.213 512.637 481.911 736.633 736.328 780.778 798.097 820.322 
689.691 664.985 605.943 632.395 618.415 553.768 720.133 698.223 597.289 
560.524 571.541 514.831 505.553 584.735 568.169 616.286 637.18 601.442 
673.756 663.42 759.097 781.84 802.23 871.942 708.792 772.979 726.18 
770.518 703.807 749.944 710.761 812.804 756.626 780.799 895.387 896.981 
812.632 848.933 798.616 663.79 629.638 649.032 544.078 564.243 612.74 
624.68 626.297 626.297 692.527 778.708 814.932 876.389 982.129 912.553 
974.963 971.113 867.748 867.748 787.759 794.141 506.199 551.257 622.343 
700.744 727.476 744.294 738.482 724.416 756.479 659.159 698.667 716.089 
680.134 680.134 665.937 700.166 742.169 703.002 691.971 775.95 610.398 
624.213 625.597 610.485 580.51 520.529 611.071 588.647 557.021 597.424 
551.832 566.08 612.646 700.437 566.733 533.791 734.551 772.392 739.238 
760.718 796.5 766.742 833.487 786.533 755.065 645.862 622.586 636.614 
628.926 664.752 639.92 708.25 832.266 671.191 727.807 672.27 672.27 
792.037 776.288 776.288 690.683 716.793 723.036 680.208 719.864 782.617 
758.89 736.061 674.77 708.276 721.386 780.944 815.633 815.633 845.773 
841.729 662.687 628.243 688.759 753.582 785.913 609.797 596.686 577.672 
571.183 630.331 572.493 572.493 497.44 853.687 777.102 836.333 776.379 
722.686 927.91 1215.34 711.475 666.791 682.563 766.935 771.826 709.146 
782.178 716.076 718.537 608.707 608.707 589.52 622.545 677.796 652.11 
569.365 569.15 663.912 695.104 678.38 653.586 668.065 623.806 570.744 
586.718 580.855 541.995 569.571 585.869 566.785 644.078 588.141 635.312 
688.519 656.783 716.133 652.74 615.622 673.045 707.941 688.823 721.761 
736.944 790.16 790.16 791.123 845.842 813.895 813.895 771.743 792.344 
763.525 693.712 1129.41 1108.24 699.867 772.848 772.848 690.267 660.772 
594.514 657.454 637.151 746.933 676.951 746.744 934.646 867.255 867.255 
892.075 909.696 847.688 699.857 671.056 609.234 579.932 579.932 618.768 
625.24 583.598 621.369 591.057 645.063 645.063 717.89 678.777 710.862 
710.862 643.477 
FIELD FieldData 7
DY_minmax 1 740 double
0.136721 0.161518 0.142044 0.160241 0.608889 0.280572 0.543819 0.525 0.0569933 
0.215202 0.247671 1 0.146026 0.0106479 0.266658 0.204207 0.314283 0.273236 
0.29294 0.174648 0.0549055 0.120764 0.206255 0.293842 0.428756 0.0931342 0.176189 
0.199801 0.167103 0.278383 0.140234 0.134337 0.536317 0.119633 0.256522 0.187483 
0.241728 0.239715 0.2389 0.00849403 0.375563 0.240039 0.12186 0.0946643 0.384588 
0.249424 0.176654 0.381449 0.0805054 0.167905 0.277696 0.196253 0.0766355 0.191667 
0.209802 0.226658 0.181945 0.366126 0.0495039 0.180958 0.359497 0.216475 0.390061 
0.120667 0.445258 0.539359 0.384937 0.257369 0.52607 0.214958 0.306598 0.367208 
0.279262 0.246611 0.243207 0.26547 0.305008 0.335744 0.236492 0.173954 0.299588 
0.181937 0.285244 0.34023 0.389618 0.279619 0.188017 0.177738 0.205327 0.194051 
0.194051 0.199603 0.196922 0.22904 0.255803 0.285149 0.285149 0.449781 0.500596 
0.647921 0.594348 0.500498 0.473099 0.402734 0.368213 0.439311 0.445697 0.39821 
0.475622 0.424347 0.306321 0.407271 0.163401 0.164888 0.129348 0.174055 0.328017 
0.285132 0.285132 0.292828 0.25051 0.25051 0.296155 0.350683 0.322992 0.390054 
0.334893 0.362276 0.242555 0.226601 0.226601 0.100732 0.131601 0.0987923 0.129701 
0.186665 0.161907 0.0822706 0.225209 0.161633 0.461691 0.198214 0.177696 0.207769 
0.150493 0.174572 0.142897 0.199319 0.199319 0.221776 0.221776 0.241517 0.246834 
0.296009 0.138048 0.144725 0.160243 0.206914 0.243431 0.289411 0.272606 0.357015 
0.304657 0.266721 0.271977 0.204121 0.24528 0.256264 0.318073 0.375471 0.361954 
0.302996 0.324956 0.256431 0.248868 0.286466 0.317246 0.331525 0.367824 0.322109 
0.322109 0.309206 0.242798 0.285111 0.331847 0.331847 0.321447 0.321447 0.35089 
0.288936 0.213555 0.188536 0.150804 0.191622 0.191805 0.238338 0.0641109 0.0992494 
0.0740259 0.107809 0.162386 0.184827 0.355766 0.324424 0.191438 0.203799 0.242897 
0.189871 0.189871 0.186606 0.10023 0.0917051 0.111996 0.111996 0.137014 0.147084 
0.245031 0.23635 0.209335 0.0946643 0.178835 0.152236 0.190449 0.239032 0.208507 
0.175229 0.265979 0.255804 0.295203 0.395135 0.395135 0.491252 0.476379 0.438586 
0.415978 0.4187 0.360577 0.4539 0.4539 0.537899 0.411871 0.411871 0.405856 
0.414054 0.414054 0.394456 0.240394 0.182519 0.200607 0.196116 0.207661 0.245971 
0.224157 0.313727 0.262528 0.276838 0.228616 0.161333 0.141742 0.200417 0.362537 
0.226008 0.327364 0.30196 0.226658 0.202968 0.200152 0.174743 0.186678 0.169023 
0.237577 0.196488 0.215526 0.287684 0.265135 0.264871 0.287838 0.141786 0.149982 
0.237368 0.186714 0.216649 0.201748 0.201748 0.188305 0.213521 0.109033 0.0852196 
0.110249 0.353228 0.368807 0.359636 0.371763 0.385148 0.233241 0.37721 0.308933 
0.169081 0.102376 0.132214 0.0748055 0.0748055 0.147252 0.236513 0.352282 0.37177 
0.165023 0.234274 0.173936 0.14164 0.0954176 0.0505089 0.277696 0.157816 0.117157 
0.171756 0.220077 0.278123 0.131156 0.0483021 0.187738 0.187631 0.167002 0.0718028 
0.0999019 0.0708338 0.243019 0.34583 0.292569 0.177649 0.245625 0.296748 0.311248 
0.364119 0.372653 0.304529 0.366606 0.345935 0.338385 0.342114 0.25084 0.274698 
0.329891 0.519267 0.332586 0.426226 0.426226 0.390374 0.333218 0.497166 0.283352 
0.254174 0.305861 0.115097 0.154841 0.188727 0.192646 0.317578 0.339895 0.331356 
0.332553 0.298246 0.30159 0.2465 0.291179 0.340042 0.262757 0.309225 0.260258 
0.29561 0.288422 0.335988 0.273674 0.316085 0.360572 0.260902 0.510812 0.451587 
0.555029 0.470175 0.408096 0.393779 0.505205 0.467959 0 0.0502291 0.158212 
0.158212 0.292907 0.137339 0.0963146 0.159914 0.220176 0.167124 0.258645 0.0938472 
0.0578756 0.0342754 0.0615523 0.119666 0.177559 0.341914 0.322176 0.35241 0.420813 
0.377939 0.372855 0.203194 0.127869 0.127869 0.0701293 0.0897748 0.123316 0.0516532 
0.116482 0.131092 0.180725 0.223987 0.206348 0.159799 0.211432 0.367026 0.348989 
0.273939 0.232447 0.247571 0.193067 0.172286 0.150469 0.00524361 0.0445774 0.0296033 
0.0287867 0.0894996 0.0737204 0.0685793 0.0354803 0.138789 0.169332 0.239967 0.248498 
0.208387 0.157263 0.102376 0.152974 0.288002 0.27362 0.169667 0.192989 0.200043 
0.160165 0.138407 0.138407 0.146464 0.131138 0.135416 0.129689 0.159959 0.123816 
0.138866 0.136041 0.163294 0.163294 0.194957 0.208534 0.204013 0.204013 0.183781 
0.205976 0.205976 0.240148 0.216754 0.138417 0.0686264 0.0753288 0.0975008 0.107823 
0.107823 0.181194 0.225387 0.225387 0.300072 0.536317 0.312724 0.138771 0.182844 
0.12102 0.120934 0.0705325 0.0431593 0.270083 0.269812 0.309412 0.32484 0.34464 
0.228264 0.206255 0.153656 0.177221 0.164767 0.107175 0.255384 0.235866 0.145946 
0.113193 0.123008 0.0724865 0.0642211 0.134762 0.120004 0.162871 0.181484 0.149646 
0.214068 0.20486 0.290097 0.310358 0.328522 0.390626 0.245281 0.302463 0.260772 
0.300271 0.24084 0.281942 0.247035 0.337942 0.287895 0.30943 0.411513 0.412933 
0.337789 0.370129 0.325303 0.20519 0.174765 0.192043 0.0985423 0.116506 0.159711 
0.170348 0.171788 0.171788 0.230791 0.307567 0.339838 0.394588 0.488789 0.426806 
0.482405 0.478975 0.38689 0.38689 0.31563 0.321316 0.0647964 0.104937 0.168266 
0.238111 0.261926 0.276909 0.271731 0.2592 0.287764 0.201064 0.236261 0.251782 
0.21975 0.21975 0.207103 0.237597 0.275016 0.240123 0.230295 0.30511 0.157625 
0.169932 0.171165 0.157702 0.130998 0.0775631 0.158224 0.138247 0.110073 0.146067 
0.10545 0.118143 0.159627 0.237838 0.118724 0.0893782 0.268229 0.301941 0.272404 
0.29154 0.323418 0.296907 0.356368 0.314539 0.286505 0.189219 0.168482 0.180979 
0.17413 0.206047 0.183925 0.244798 0.35528 0.211783 0.262221 0.212745 0.212745 
0.319442 0.305411 0.305411 0.229148 0.252409 0.257971 0.219817 0.255144 0.311049 
0.289912 0.269575 0.214972 0.244821 0.2565 0.309559 0.340463 0.340463 0.367313 
0.363711 0.204207 0.173522 0.227435 0.285183 0.313986 0.157089 0.145409 0.12847 
0.12269 0.175382 0.123856 0.123856 0.0569933 0.374364 0.306137 0.358904 0.305492 
0.257658 0.440487 0.696549 0.247671 0.207863 0.221914 0.297079 0.301436 0.245596 
0.310659 0.25177 0.253963 0.156118 0.156118 0.139025 0.168446 0.217668 0.194785 
0.121069 0.120878 0.205299 0.233087 0.218188 0.196099 0.208999 0.16957 0.122298 
0.136529 0.131305 0.0966866 0.121253 0.135772 0.118771 0.187629 0.137796 0.17982 
0.22722 0.198948 0.251821 0.195346 0.162279 0.213435 0.244523 0.227491 0.256835 
0.270361 0.317769 0.317769 0.318628 0.367375 0.338914 0.338914 0.301362 0.319715 
0.294041 0.231847 0.619998 0.601136 0.23733 0.302347 0.302347 0.228777 0.202501 
0.143474 0.199546 0.181458 0.27926 0.216915 0.279091 0.446488 0.386452 0.386452 
0.408563 0.424261 0.369019 0.237321 0.211663 0.156587 0.130484 0.130484 0.165081 
0.170847 0.133749 0.167398 0.140394 0.188506 0.188506 0.253386 0.218542 0.247125 
0.247125 0.187094 
WidthEq 1 740 double
3.51949 3.18799 2.85318 3.16944 1.58035 3.30361 2.69283 2.95886 4.12799 
2.8332 2.77961 1.09539 4.15791 4.94729 3.30947 3.59056 3.08115 5.65156 
2.15015 2.70544 5.02025 3.02734 3.96136 3.7472 1.04744 5.24934 2.92024 
3.34821 4.79555 3.68603 4.12592 3.21713 1.81667 4.3854 2.00134 1.2154 
4.64114 4.52182 2.1901 2.69688 3.36323 3.51247 3.81078 4.3817 3.39039 
3.90966 4.68815 2.08592 1.78365 3.62159 2.79227 2.40967 4.24107 1.26503 
3.79438 3.31442 3.42027 3.3761 3.6661 2.18175 2.71745 3.14865 2.76773 
2.79752 1 1.17455 1.72567 1.86716 2.37227 4.33194 2.47739 1.59438 
2.24179 2.83036 3.05545 2.80355 2.5968 2.55956 3.17486 3.56206 3.50335 
4.30771 2.86385 3.48591 3.17426 3.98417 3.93682 3.70002 3.5482 3.15467 
3.15467 3.22574 3.29109 3.2365 3.11034 2.87388 2.87388 2.19733 2.24123 
1.89562 1.73011 1.82868 1.81878 1.93005 2.16948 2.10551 2.2464 2.46223 
2.41178 2.6107 2.92201 2.62443 2.34709 2.48548 2.56163 2.56442 2.09935 
2.20891 2.20891 2.18648 2.27348 2.27348 2.03504 1.8403 1.84629 1.70583 
1.72985 1.7091 1.86118 1.99299 1.99299 2.41187 2.45492 2.64152 2.49684 
2.30555 2.63812 3.70825 1.87625 2.94297 2.59925 3.32367 3.36289 3.3504 
3.57575 3.51264 3.62508 3.4851 3.4851 3.38669 3.38669 3.40843 3.59465 
3.57097 3.63593 3.32815 2.97539 2.58806 2.5609 2.25613 2.321 2.26715 
2.60575 2.8017 2.80699 3.23422 3.12523 3.18214 2.75064 2.63184 2.66386 
2.88675 2.83523 3.2882 3.35768 3.24778 3.16117 3.0898 2.94224 3.0505 
3.0505 3.05773 3.41592 3.36956 3.36358 3.36358 2.94263 2.94263 2.8812 
3.02553 3.10698 3.14619 3.56641 3.95335 3.57549 3.32044 4.56878 4.40947 
4.43405 4.19708 3.65676 3.54734 2.04232 2.22019 2.58207 2.72839 2.65095 
2.89338 2.89338 2.69907 3.72908 3.49844 3.38295 3.38295 3.07177 3.15024 
2.91921 3.19953 3.61996 4.3817 3.2749 3.36 3.16729 2.92903 2.90182 
2.96579 2.3408 2.33301 2.1105 1.72326 1.72326 1.48569 1.43468 1.59266 
1.65693 1.63338 1.81151 1.64819 1.64819 1.51057 1.76489 1.76489 1.81775 
1.91959 1.91959 2.0013 2.62374 2.89941 2.83953 2.82399 2.62327 2.3869 
2.39241 1.95679 2.16199 2.24158 2.53924 2.66614 2.69395 2.68487 2.28372 
2.55 2.4776 2.81065 3.31442 3.95305 3.8967 4.03053 4.27331 4.55595 
1.26142 1.85137 2.36921 2.36684 2.42564 2.27438 2.18743 3.54291 3.217 
2.83915 2.92584 2.80557 2.77298 2.77298 2.56442 2.59236 2.975 3.29595 
3.43869 2.15747 2.11576 2.13323 2.02708 1.91542 1.96479 1.62576 1.66033 
1.90612 2.26216 2.29681 2.9697 2.9697 3.00474 2.79136 2.42577 2.41587 
2.93363 4.02111 4.46108 4.88031 5.19187 5.18998 2.79227 3.65724 4.29144 
4.14977 3.76662 3.09828 3.73248 4.95615 3.69761 3.86455 4.11805 2.87565 
2.92885 4.21976 4.45497 4.01047 3.8874 4.54106 3.62168 3.30727 3.43275 
3.35802 3.49508 3.76055 2.9239 2.46064 2.2504 2.09354 2.22135 2.31764 
2.38058 2.06178 2.58444 2.47145 2.47145 2.70247 3.02519 2.64316 3.7562 
4.12584 3.95563 5.32859 4.98947 4.81841 4.73391 3.70377 3.58823 3.6231 
3.83489 4.12851 4.16359 4.78479 4.63856 4.40051 4.51756 4.28549 4.23268 
3.68393 3.59473 3.42827 3.5451 3.41911 3.41988 3.60304 2.79446 2.8131 
2.55125 2.79476 3.10762 3.30387 3.05933 3.12252 4.77424 4.4888 3.98873 
3.98873 4.05937 6.0766 2.69072 2.71134 2.46959 2.55612 2.23065 2.70437 
2.79093 2.74109 2.67764 2.65022 2.37515 2.00431 2.00784 1.97233 1.91542 
2.06053 2.13069 2.76455 3.33956 3.33956 3.99265 3.90393 3.67523 3.98426 
3.52194 3.42703 3.24137 3.03556 3.06815 3.16014 3.07392 2.77793 2.92756 
3.12054 3.4201 3.78306 4.26143 4.33698 4.47438 3.135 3.11029 3.56736 
3.60154 3.43886 3.49215 3.73377 3.87014 2.1953 2.80376 3.57261 3.28484 
3.58944 4.31335 4.58501 4.55372 3.89722 3.74307 4.48278 5.03157 5.04315 
2.45121 2.51333 2.51333 2.75925 2.85258 2.91026 3.07246 2.96837 3.05588 
2.95498 3.03135 2.91663 2.91663 2.84431 2.70058 2.66093 2.66093 2.676 
2.5677 2.5677 2.52964 2.78977 3.2845 3.65711 3.83175 3.97858 3.95834 
3.95834 3.52345 3.26986 3.26986 2.85748 1.81667 1.61732 3.36069 3.02696 
3.16832 4.61312 5.18223 5.18865 3.7367 3.82602 3.49616 3.34524 3.16178 
3.67897 3.96136 4.92649 4.42682 4.07698 4.78169 4.04375 2.85322 3.02355 
3.53146 4.04017 4.5934 4.84178 3.03402 3.16285 3.12687 3.35368 3.74238 
3.78534 3.95352 3.6284 3.29698 3.07159 2.72262 3.05506 2.90957 3.20814 
3.17998 3.47369 3.29251 4.26901 3.33956 3.28631 3.48398 3.01219 2.88426 
2.89597 2.79382 2.9406 5.55424 5.65294 5.26682 5.69891 5.37895 5.09627 
4.70265 4.38355 4.38355 3.6349 3.14288 3.10087 2.89894 2.59068 2.89644 
2.87203 3.04986 3.56852 3.56852 3.5123 3.152 4.62517 4.14835 3.30249 
2.79218 2.7902 2.88637 2.90359 3.01172 3.02876 3.3783 3.2811 3.25992 
3.53193 3.53193 3.54441 3.33663 3.19961 3.06466 3.17008 2.70097 3.52775 
3.4442 3.60989 3.69047 3.70127 4.53697 3.90355 3.54415 3.39237 3.27942 
3.50524 3.56891 3.67428 3.42363 4.08068 4.27689 2.96557 2.73566 5.76611 
5.15025 4.48131 4.06213 3.75233 3.76623 4.01727 4.36956 4.34714 4.14323 
4.36156 4.27693 4.32949 4.02782 3.47933 4.0143 3.56434 3.57114 3.57114 
3.09114 3.12583 3.12583 3.36022 3.3167 3.28153 3.33594 3.39711 3.33306 
3.39328 3.79864 4.0719 3.93583 3.73481 3.33977 3.04667 3.04667 2.87888 
2.99656 3.59056 3.78956 3.60102 3.38962 3.52457 4.0208 3.89631 3.80682 
3.67265 3.37064 3.61686 3.61686 4.12799 3.09523 3.11641 2.87096 3.12299 
3.48187 3.10108 2.16737 2.77961 2.73962 2.66993 2.42926 2.36809 2.53851 
2.30998 2.60166 2.6098 2.84892 2.84892 2.74565 2.67716 2.57501 2.68319 
3.18756 3.26788 3.1214 2.9468 3.11438 2.86476 2.85369 2.99398 3.24055 
3.26108 3.37602 3.42255 3.27116 3.08317 3.00681 2.85193 2.99222 3.02334 
3.55263 3.80359 3.59413 3.88878 3.9261 3.51988 3.35359 3.16539 3.07435 
2.66283 2.32931 2.32931 2.07809 1.8403 1.86161 1.86161 2.25109 2.34872 
2.67406 3.08929 2.4024 1.86316 2.93462 2.7311 2.7311 2.87104 2.92192 
3.0722 2.92687 2.9221 2.72163 2.85856 2.76709 2.34554 2.41497 2.41497 
2.27365 2.05076 2.11778 2.61707 2.87978 3.26104 3.08016 3.08016 2.99252 
2.82326 2.7243 2.66817 2.76416 2.79791 2.79791 2.74759 3.15502 3.18321 
3.18321 3.38019 
rRFP 1 740 double
3058.68 2981.67 2903.89 2977.36 2608.2 3008.53 2866.64 2928.44 3200.04 
2899.25 2886.8 2495.54 3206.99 3390.37 3009.89 3075.19 2956.85 3553.98 
2740.57 2869.57 3407.32 2944.35 3161.33 3111.58 2484.4 3460.54 2919.47 
3018.89 3355.12 3097.37 3199.56 2988.44 2663.1 3259.84 2706 2523.42 
3319.25 3291.53 2749.85 2867.58 3022.38 3057.05 3126.35 3258.98 3028.69 
3149.32 3330.17 2725.65 2655.43 3082.4 2889.74 2800.86 3226.31 2534.95 
3122.54 3011.04 3035.63 3025.37 3092.74 2747.91 2872.36 2972.53 2884.04 
2890.96 2473.38 2513.93 2641.96 2674.83 2792.17 3247.42 2816.59 2611.46 
2761.86 2898.59 2950.88 2892.36 2844.33 2835.68 2978.62 3068.57 3054.93 
3241.79 2906.37 3050.88 2978.48 3166.63 3155.63 3100.62 3065.35 2973.93 
2973.93 2990.44 3005.62 2992.94 2963.63 2908.7 2908.7 2751.53 2761.73 
2681.44 2642.99 2665.89 2663.59 2689.44 2745.06 2730.2 2762.93 2813.07 
2801.35 2847.56 2919.88 2850.75 2786.32 2818.47 2836.16 2836.81 2728.77 
2754.22 2754.22 2749.01 2769.22 2769.22 2713.83 2668.59 2669.98 2637.35 
2642.93 2638.11 2673.44 2704.06 2704.06 2801.37 2811.37 2854.72 2821.11 
2776.67 2853.93 3102.53 2676.94 2924.75 2844.9 3013.19 3022.3 3019.4 
3071.75 3057.09 3083.21 3050.69 3050.69 3027.83 3027.83 3032.88 3076.14 
3070.64 3085.73 3014.23 2932.28 2842.3 2835.99 2765.19 2780.26 2767.75 