# vtk DataFile Version 3.0
vtk output
ASCII
DATASET POLYDATA
POINTS 671 float
1.72752 0.145198 1.43303 1.31605 -0.0827754 1.38236 0.883669 -0.337148 1.16975 
2.19812 0.768399 1.31481 2.07711 0.672121 1.29789 1.79297 -0.398803 1.19984 
0.479362 0.693093 1.1637 2.39077 -0.121689 1.06853 1.4287 -0.837416 0.937449 
-0.00885501 0.371431 0.764734 0.111626 -0.625871 0.571983 0.505561 1.50999 0.618736 
-0.170651 -0.038335 0.320326 1.87802 1.80705 0.554557 2.41617 -0.94516 0.209064 
0.945617 -1.27027 0.061785 -0.393804 0.944439 -0.100232 3.13324 -0.311504 -0.390501 
3.02911 -0.522781 -0.380396 0.777884 2.09027 -0.441424 -0.612215 -0.520783 -0.689372 
3.24041 1.09143 -0.737244 3.40075 0.138135 -0.839737 3.38853 0.525999 -0.814 
3.3358 0.782798 -1.18302 2.03338 -1.24793 -1.05149 1.41007 -1.39596 -1.11463 
-0.658451 -0.357887 -1.28563 4.29519 0.104581 -0.967317 3.17842 1.22076 -1.1192 
0.585742 -1.50482 -1.39331 2.69759 -0.768397 -1.49852 -0.679255 0.00716402 -1.66459 
4.76471 -0.315947 -1.69419 2.48118 2.24049 -1.57745 5.54897 -0.0894695 -1.67905 
5.27868 -0.205121 -1.70998 4.08445 -0.360082 -1.82206 0.265059 1.52129 -2.01642 
5.34914 0.260978 -2.15246 2.85756 0.45342 -2.20537 1.21383 1.97824 -2.10553 
0.167679 -0.991084 -2.39931 0.384841 1.46779 -2.21113 -0.280732 0.938263 -2.30419 
5.72803 -0.244606 -2.07695 5.58258 0.434843 -2.04239 5.61277 0.707345 -2.02102 
5.19856 0.0301125 -2.23706 4.67498 -0.287245 -2.16929 5.20595 0.880959 -2.24476 
2.18033 -0.532272 -2.59917 1.86558 -0.385104 -2.61573 1.62284 1.90666 -2.47813 
0.104422 -0.345048 -2.76247 2.65079 0.587793 -2.6831 0.458675 0.583462 -3.07069 
0.511055 0.624993 -2.9665 0.565827 0.668571 -2.89178 0.621813 0.714913 -2.85402 
0.667968 0.764146 -2.83925 0.68986 0.816795 -2.83376 0.711752 0.869444 -2.82827 
0.758532 0.919186 -2.82086 0.81691 0.967574 -2.81257 0.875396 1.01595 -2.80426 
0.924085 1.06536 -2.79672 0.957561 1.11472 -2.79047 1.00495 1.15242 -2.78384 
1.06058 1.17396 -2.77764 1.11965 1.21018 -2.77012 1.17974 1.2545 -2.76196 
1.23891 1.29061 -2.75444 1.29622 1.3099 -2.74825 1.35389 1.33238 -2.7418 
1.40968 1.33794 -2.73668 1.465 1.33411 -2.7397 1.52157 1.3313 -2.75745 
1.58047 1.33929 -2.78915 1.6404 1.36169 -2.81233 1.69597 1.36522 -2.80736 
1.74683 1.34682 -2.77451 1.795 1.30928 -2.73575 1.8456 1.27817 -2.7187 
1.8973 1.24166 -2.72429 1.95101 1.21309 -2.74405 2.00291 1.17838 -2.7495 
2.05523 1.15768 -2.73903 2.10629 1.13596 -2.71384 2.1563 1.09963 -2.6972 
2.20731 1.0671 -2.68766 2.25706 1.01816 -2.68682 2.30572 0.959323 -2.68675 
2.35438 0.900483 -2.68668 2.40412 0.851443 -2.68584 2.45553 0.817406 -2.68383 
2.50527 0.768356 -2.68299 2.55391 0.709407 -2.68293 2.60236 0.648654 -2.68301 
2.69297 0.558849 -2.55236 2.73552 0.516422 -2.42997 2.78795 0.484978 -2.31592 
2.59029 0.539654 -2.69156 2.52989 0.491502 -2.70001 2.47129 0.44314 -2.70833 
2.4226 0.393731 -2.71587 2.38914 0.344481 -2.72211 2.34197 0.308796 -2.72858 
2.28787 0.300992 -2.73371 2.23306 0.303297 -2.7382 2.17706 0.295815 -2.74347 
2.11831 0.263541 -2.75069 2.06018 0.231774 -2.76527 2.00544 0.225418 -2.78526 
1.95325 0.231791 -2.81906 1.90126 0.240076 -2.8527 1.84991 0.24887 -2.89371 
1.79709 0.254735 -2.92015 1.74172 0.24787 -2.93277 1.68109 0.213962 -2.91791 
1.62024 0.178141 -2.90319 1.5621 0.156525 -2.90216 1.50375 0.122737 -2.9169 
1.44435 0.0897363 -2.91677 1.38564 0.0783087 -2.89274 1.32628 0.066264 -2.86135 
1.26542 0.0303339 -2.84664 1.20462 -0.0163048 -2.84757 1.14604 -0.0645584 -2.85587 
1.09734 -0.114076 -2.86343 1.06365 -0.165347 -2.86983 1.01496 -0.214756 -2.87737 
0.956579 -0.261206 -2.88553 0.897598 -0.297559 -2.89305 0.841975 -0.319088 -2.89926 
0.794582 -0.356794 -2.90588 0.760481 -0.406661 -2.90477 0.709916 -0.457595 -2.89022 
0.647571 -0.509007 -2.85435 0.582172 -0.561225 -2.8039 0.51604 -0.613939 -2.74609 
0.449907 -0.666653 -2.68827 0.384509 -0.718871 -2.63781 0.322272 -0.770296 -2.60194 
0.272992 -0.822071 -2.57989 0.247974 -0.877261 -2.54856 0.220566 -0.934497 -2.48778 
0.0538183 -0.298637 -2.7561 0.000101326 -0.270068 -2.73634 -0.0560088 -0.247701 -2.69485 
-0.115597 -0.246467 -2.64021 -0.172299 -0.214031 -2.57572 -0.226996 -0.163492 -2.50981 
-0.281774 -0.118826 -2.45176 -0.337142 -0.0897602 -2.40975 -0.390584 -0.0545677 -2.38205 
-0.443428 -0.0253266 -2.34726 -0.488307 0.0147262 -2.26882 -0.524793 0.045436 -2.12325 
-0.589653 0.0407907 -1.91298 1.56176 1.92015 -2.38551 1.50465 1.94887 -2.32132 
1.44899 1.96501 -2.29512 1.39348 1.97227 -2.28443 1.33652 1.9767 -2.25915 
1.27642 1.97849 -2.19707 1.92068 -0.390957 -2.6189 1.97702 -0.395793 -2.63681 
2.03461 -0.399722 -2.66945 2.09125 -0.406059 -2.69489 2.14216 -0.426017 -2.69194 
2.17528 -0.473984 -2.65518 5.15014 0.921381 -2.17964 5.09219 0.93741 -2.12384 
5.03418 0.942634 -2.0837 4.97763 0.945667 -2.06594 4.9206 0.9392 -2.05632 
4.86128 0.917202 -2.04052 4.80112 0.908085 -1.9941 4.73996 0.905428 -1.92495 
4.67645 0.891749 -1.84188 4.61122 0.852359 -1.77561 4.54595 0.802284 -1.72499 
4.48192 0.753117 -1.68912 4.41834 0.713241 -1.64511 4.35644 0.688467 -1.5999 
4.29371 0.651012 -1.56311 4.23286 0.615181 -1.5484 4.17493 0.595488 -1.54722 
4.11726 0.572904 -1.55367 4.06125 0.565423 -1.55895 4.00463 0.557541 -1.55684 
3.94531 0.535445 -1.54105 3.88578 0.526945 -1.50199 3.82608 0.527218 -1.44742 
3.76576 0.526983 -1.38549 3.70436 0.516947 -1.32433 3.64129 0.49191 -1.26435 
3.57927 0.481485 -1.19581 3.51669 0.481348 -1.10427 3.45247 0.492184 -0.974838 
5.12908 0.00847037 -2.40342 5.083 -0.0262623 -2.54386 5.05513 -0.0708316 -2.63375 
5.00929 -0.116078 -2.67306 4.94972 -0.152739 -2.65084 4.88735 -0.167338 -2.58263 
4.82112 -0.184975 -2.47024 4.74963 -0.229546 -2.33035 5.26126 0.0927418 -2.24853 
5.29658 0.148791 -2.23421 5.32659 0.203189 -2.1894 2.8604 0.370818 -2.19842 
2.85538 0.306343 -2.19584 2.83753 0.251469 -2.19618 2.80488 0.201945 -2.2272 
2.77899 0.153251 -2.27748 2.75058 0.107176 -2.35758 2.74017 0.0584187 -2.4289 
2.74767 0.00582412 -2.4766 2.76579 -0.0520777 -2.47161 2.75486 -0.110658 -2.41697 
2.71773 -0.169083 -2.32728 2.70367 -0.230204 -2.23582 2.71627 -0.292693 -2.16455 
2.71757 -0.352119 -2.11638 2.70844 -0.410909 -2.0616 2.69564 -0.471013 -1.98487 
2.68015 -0.533393 -1.87624 2.66582 -0.598366 -1.75277 2.66582 -0.673309 -1.62382 
4.71315 -0.327883 -1.93537 4.61215 -0.289622 -2.07791 4.54741 -0.304111 -1.98009 
4.48053 -0.342994 -1.89157 4.41616 -0.379843 -1.83252 4.35767 -0.389249 -1.80833 
4.30235 -0.385418 -1.80531 4.24786 -0.379166 -1.8095 4.19339 -0.372804 -1.81369 
4.13892 -0.366443 -1.81787 5.23841 -0.0876733 -1.97107 5.40409 0.301867 -2.14124 
5.46802 0.345471 -2.14399 5.52735 0.39108 -2.11344 5.56812 0.657354 -2.02826 
5.54846 0.604444 -2.03358 5.54242 0.549944 -2.03786 5.55001 0.493853 -2.04109 
5.6265 0.372184 -2.01318 5.65927 0.309664 -1.97001 5.67387 0.248103 -1.91341 
5.69093 0.185674 -1.8492 5.68927 0.12543 -1.78643 5.66823 0.0680319 -1.73257 
5.62972 0.0138363 -1.69487 5.59628 -0.0392075 -1.67902 5.66835 -0.192894 -1.94432 
5.60866 -0.141182 -1.81168 -0.218988 0.952354 -2.36504 -0.156913 0.991049 -2.41672 
-0.104685 1.04159 -2.4535 -0.0686084 1.0948 -2.47657 -0.0193278 1.14658 -2.49862 
0.0312025 1.19937 -2.53539 0.0684428 1.25371 -2.57319 0.116473 1.30447 -2.58051 
0.159404 1.35118 -2.52894 0.182944 1.39608 -2.42696 0.209214 1.43833 -2.29515 
0.229629 1.48069 -2.15635 0.325911 1.50578 -2.1092 0.207155 -1.05904 -2.29633 
0.240298 -1.12847 -2.16417 0.24693 -1.19566 -1.99686 0.200202 -1.24399 -1.81788 
0.134568 -1.25221 -1.64517 0.0707742 -1.22922 -1.49997 0.00850719 -1.20595 -1.37698 
-0.0500111 -1.16424 -1.27474 -0.106995 -1.11381 -1.17923 -0.163012 -1.07006 -1.10644 
-0.219631 -1.04201 -1.0497 -0.274432 -1.00782 -1.00728 -0.330316 -0.979277 -0.957898 
-0.382536 -0.934117 -0.907044 -0.423643 -0.880118 -0.854647 -0.447109 -0.82577 -0.808182 
-0.476199 -0.771236 -0.754728 -0.498224 -0.717295 -0.703189 -0.527127 -0.660744 -0.666973 
-0.555377 -0.597612 -0.665013 0.112808 -0.983209 -2.39597 0.0577702 -0.966561 -2.37714 
0.00253264 -0.936316 -2.33503 -0.0554051 -0.920179 -2.27922 -0.113757 -0.902637 -2.2159 
-0.169338 -0.860084 -2.15061 -0.222997 -0.80531 -2.09177 -0.275818 -0.748116 -2.04015 
-0.328003 -0.690304 -1.99588 -0.380812 -0.633 -1.94425 -0.434247 -0.576205 -1.88525 
-0.489305 -0.520731 -1.8066 -0.546785 -0.467238 -1.69105 -0.605138 -0.414531 -1.51353 
2.92481 0.49429 -2.12481 2.98178 0.514967 -2.05148 3.03631 0.547484 -1.98003 
3.09185 0.589839 -1.91526 3.14786 0.634324 -1.85527 3.2015 0.678556 -1.78731 
3.24259 0.720012 -1.66621 3.27309 0.756018 -1.46068 0.197767 1.55054 -1.81892 
0.126632 1.5451 -1.62414 0.0525246 1.51283 -1.43146 -0.0203441 1.49173 -1.23791 
-0.0927028 1.46911 -1.05188 -0.16467 1.42227 -0.882377 -0.224255 1.36386 -0.734979 
-0.255981 1.30143 -0.600402 -0.275289 1.23802 -0.472293 -0.292061 1.17489 -0.351393 
-0.307582 1.11277 -0.245225 -0.322515 1.05292 -0.168658 -0.346653 0.996463 -0.122445 
4.84621 -0.335994 -1.72095 4.9112 -0.346467 -1.73851 4.96779 -0.352883 -1.74409 
5.02276 -0.357091 -1.7422 5.0788 -0.349584 -1.73692 5.13853 -0.314693 -1.72944 
5.20389 -0.264531 -1.72043 5.36199 -0.186596 -1.70163 5.42816 -0.171036 -1.69494 
5.48863 -0.135539 -1.68736 2.42514 2.27889 -1.51249 2.36901 2.28565 -1.49443 
2.31366 2.26873 -1.52265 2.26102 2.26592 -1.56458 2.20759 2.27139 -1.58364 
2.15186 2.27662 -1.5731 2.09364 2.27994 -1.53311 2.03479 2.28274 -1.48575 
1.97657 2.28605 -1.44575 1.92021 2.29078 -1.42786 1.8649 2.29472 -1.42483 
1.8085 2.28876 -1.42257 1.74918 2.26676 -1.40678 1.68965 2.25826 -1.36771 
1.63059 2.25915 -1.32049 1.57236 2.26235 -1.28051 1.51602 2.26719 -1.26261 
1.46028 2.27243 -1.25207 1.40373 2.27535 -1.23431 1.34419 2.26674 -1.19526 
1.28216 2.2408 -1.15015 1.22132 2.22048 -1.11201 1.16179 2.19657 -1.09636 
1.10475 2.19 -1.08675 1.04755 2.19231 -1.06164 0.986054 2.19114 -0.986831 
0.916825 2.17489 -0.848528 0.8382 2.134 -0.65497 4.73394 -0.241321 -1.56001 
4.68884 -0.179711 -1.45527 4.64766 -0.123952 -1.38288 4.62196 -0.0695492 -1.33163 
[...]
POINT_DATA 671
SCALARS DY_raw double
LOOKUP_TABLE default
364.735 322.664 363.379 281.214 224.341 298.264 330.162 478.194 342.851 
409.864 401.07 306.398 313.201 322.983 388.021 370.575 346.293 362.212 
417.421 364.012 327.751 333.704 354.887 371.39 316.038 364.93 392.272 
372.356 519.218 280.539 302.37 258.117 318.997 461.768 385.108 559.991 
535.184 583.981 299.219 581.381 327.236 299.861 269.922 440.735 267.073 
688.547 531.824 563.056 530.812 467.416 565.249 526.066 298.364 361.854 
481.622 278.979 432.867 470.478 418.593 403.115 435.227 386.214 412.037 
485.149 500.024 500.024 496.496 488.285 458.758 429.05 414.815 414.815 
415.259 462.607 462.607 506.991 455.944 455.944 367.784 338.525 338.525 
365.092 384.019 394.41 389.66 393.964 371.213 372.742 420.943 404.598 
453.209 481.15 465.43 443.868 436.266 395.016 352.033 295.292 278.979 
316.857 315.033 313.604 305.957 299.426 318.437 329.448 360.658 417.097 
420.943 480.896 475.701 547.019 547.582 546.721 534.577 518.784 504.295 
485.053 460.819 521.133 511.549 551.676 551.676 588.812 579.452 627.081 
565.578 657.716 659.654 577.344 581.965 536.299 493.754 506.805 431.206 
400.244 377.397 386.711 374.876 396.936 416.538 447.135 396.538 340.207 
278.515 247.191 239.798 481.622 342.305 321.62 337.046 331.956 368.496 
353.882 338.059 322.739 298.06 282.912 300.755 329.538 283.277 326.126 
281.134 280.513 279.577 282.913 298.364 281.193 297.314 297.314 322.56 
399.649 592.261 557.353 535.62 531.135 531.135 531.258 505.434 548.872 
463.712 402.743 423.398 344.367 396.48 457.726 408.757 435.188 433.442 
421.232 489.095 478.154 467.708 497.173 434.136 459.241 501.822 399.708 
441.704 399.138 333.172 539.036 534.582 473.417 432.174 403.463 385.85 
473.741 473.183 562.214 564.898 527.947 357.513 389.034 397.779 402.826 
387.438 348.063 355.891 327.39 327.39 324.774 314.478 337.683 294.242 
298.996 283.253 270.753 267.985 252.866 227.208 520.713 494.118 451.109 
525.172 567.964 524.755 569.079 629.319 600.663 600.663 437.882 520.76 
482.42 438.252 488.143 462.722 462.722 465.478 557.427 625.86 633.103 
621.681 524.04 532.836 572.628 593.494 837.063 558.461 249.569 255.849 
279.341 295.764 331.476 307.182 320.897 279.179 291.667 343.616 287.842 
320.537 331.57 308.807 324.955 328.023 305.142 288.352 359.032 346.486 
298.477 325.671 335.389 316.21 328.984 339.096 341.912 354.655 355.173 
372.569 360.794 362.812 337.774 256.068 248.054 260.953 267.495 300.893 
304.633 311.834 297.66 226.015 228.135 248.117 280.323 353.901 383.927 
331.417 343.74 322.987 280.707 245.513 270.651 257.905 279.22 282.957 
238.941 244.533 279.193 303.931 327.103 304.155 328.769 349.777 314.173 
304.722 316.283 311.084 449.891 458.568 471.426 497.997 565.657 544.849 
543.984 571.192 551.604 551.711 417.942 378.219 291.006 291.006 247.554 
260.349 278.121 270.486 258.256 320.908 307.643 307.643 310.814 329.724 
359.332 397.068 347.367 378.562 323.818 353.277 391.112 381.006 356.814 
356.814 305.002 303.046 322.345 325.729 463.296 490.322 491.383 454.783 
474.68 489.563 475.012 591.724 564.362 251.345 259.006 292.987 280.26 
282.761 294.449 268.657 294.946 377.81 321.003 318.283 330.844 369.744 
360.559 383.282 296.688 320.168 317.551 287.712 321.528 290.924 274.108 
319.724 274.76 280.79 302.447 277.004 309.776 360.212 337.212 389.068 
395.501 321.993 318.755 318.249 298.904 328.588 364.008 394.537 275.345 
292.031 299.71 285.252 276.005 308.981 284.287 251.726 256.525 271.199 
279.716 289.564 315.696 335.314 389.454 429.654 446.167 401.893 408.944 
351.879 382.404 346.278 327.785 344.741 339.1 336.424 374.58 341.674 
362.915 368.32 328.809 357.856 387.297 379.005 408.156 413.036 467.728 
467.728 381.38 360.206 345.042 334.564 332.074 336.941 338.071 329.663 
274.732 289.642 289.642 312.159 339.629 320.258 313.973 329.865 303.566 
338.141 324.374 329.971 331.727 357.892 324.345 342.363 326.437 346.926 
381.707 399.601 356.725 340.748 304.89 322.517 285.313 323.69 281.84 
296.103 299.263 316.261 316.261 318.376 367.136 371.703 356.109 338.479 
441.224 419.831 434.252 434.252 384.351 347.622 333.029 298.01 331.135 
370.468 397.634 399.777 361.188 364.119 378.023 425.805 466.414 429.76 
420.625 420.625 428.704 451.025 497.81 474.829 474.829 462.517 399.633 
399.633 345.949 339.064 426.534 374.833 326.408 352.522 394.673 394.151 
394.151 374.58 370.417 423.847 404.784 423.938 391.099 352.131 325.545 
301.818 320.957 379.361 431.883 434.335 431.434 447.399 417.654 370.12 
341.076 358.671 326.043 309.51 309.51 333.228 320.335 318.761 330.318 
354.796 314.504 303.535 334.473 333.935 316.522 312.596 331.167 292.884 
314.461 292.522 307.265 306.763 359.908 360.51 323.566 286.549 308.312 
279.097 282.57 348.836 339.978 417.67 388.762 358.005 396.434 358.358 
345.188 345.188 310.511 352.852 370.693 389.93 381.46 345.607 360.407 
346.513 357.515 322.724 343.363 375.648 358.911 360.776 406.824 290.662 
309.62 331.134 328.822 336.23 352.874 381.174 407.51 451.088 386.539 
412.021 377.675 313.872 469.991 513.738 570.654 455.646 478.869 405.198 
390.425 415.09 406.902 377.467 371.54 349.865 438.097 449.198 437.11 
470.391 397.138 367.677 326.088 317.478 380.052 326.394 343.209 278.085 
285.875 285.875 283.653 318.289 336.202 329.087 335.414 325.878 323.996 
337.552 334.771 331.557 324.298 322.023 316.34 338.204 339.049 365.584 
365.584 387.591 389.31 395.394 383.326 349.1 241.253 265.654 284.811 
280.631 280.631 265.839 317.085 319.612 
FIELD FieldData 7
DY_minmax 1 671 double
0.229131 0.160469 0.226919 0.0928205 0 0.120648 0.172706 0.414304 0.193415 
0.302785 0.288432 0.133922 0.145026 0.160991 0.267136 0.238663 0.199033 0.225014 
0.315119 0.227952 0.168771 0.178488 0.213059 0.239994 0.149655 0.22945 0.274074 
0.24157 0.481258 0.0917196 0.127348 0.0551253 0.154484 0.387495 0.262382 0.547801 
0.507315 0.586954 0.122205 0.582711 0.167932 0.123254 0.0743923 0.353169 0.0697413 
0.757612 0.501831 0.552803 0.50018 0.396714 0.556383 0.492434 0.120811 0.224431 
0.419898 0.0891729 0.340328 0.401711 0.317032 0.291771 0.344179 0.264187 0.306332 
0.425654 0.449932 0.449932 0.444174 0.430774 0.382582 0.334098 0.310865 0.310865 
0.31159 0.388865 0.388865 0.461302 0.37799 0.37799 0.234109 0.186355 0.186355 
0.229714 0.260604 0.277564 0.269812 0.276835 0.239705 0.2422 0.320866 0.294191 
0.373527 0.419128 0.393471 0.358282 0.345876 0.278553 0.208401 0.115797 0.0891729 
0.150993 0.148015 0.145683 0.133203 0.122544 0.153571 0.171542 0.222479 0.31459 
0.320866 0.418714 0.410234 0.52663 0.527549 0.526144 0.506325 0.480549 0.456902 
0.425498 0.385947 0.484383 0.468741 0.534231 0.534231 0.594838 0.579563 0.657297 
0.55692 0.707295 0.710457 0.576122 0.583664 0.509134 0.439699 0.460999 0.337617 
0.287085 0.249797 0.264999 0.245683 0.281686 0.313678 0.363613 0.281036 0.189101 
0.0884164 0.0372928 0.025228 0.419898 0.192524 0.158766 0.183942 0.175634 0.23527 
0.211418 0.185595 0.160592 0.120314 0.0955911 0.124713 0.171688 0.096187 0.16612 
0.0926908 0.0916765 0.0901492 0.0955928 0.120811 0.0927872 0.119096 0.119096 0.1603 
0.286113 0.600467 0.543496 0.508027 0.500706 0.500706 0.500907 0.458761 0.529655 
0.390669 0.291163 0.324874 0.195891 0.280942 0.380898 0.300979 0.344116 0.341266 
0.321338 0.432094 0.414239 0.39719 0.445278 0.342399 0.383372 0.452866 0.28621 
0.35475 0.285279 0.17762 0.513601 0.506332 0.406507 0.339196 0.292338 0.263592 
0.407036 0.406126 0.551429 0.555811 0.495504 0.217345 0.268789 0.283062 0.291298 
0.266185 0.201923 0.214698 0.168182 0.168182 0.163914 0.147109 0.184981 0.114084 
0.121841 0.0961484 0.075748 0.0712295 0.0465552 0.0046795 0.483698 0.440293 0.3701 
0.490975 0.560814 0.490294 0.562633 0.660948 0.614181 0.614181 0.348513 0.483774 
0.421201 0.349116 0.43054 0.389052 0.389052 0.393551 0.543616 0.655304 0.667125 
0.648483 0.489128 0.503483 0.568426 0.60248 1 0.545304 0.0411749 0.0514238 
0.0897646 0.116567 0.174852 0.135201 0.157585 0.0894992 0.109881 0.194665 0.103638 
0.156998 0.175005 0.137855 0.164208 0.169215 0.131873 0.10447 0.219824 0.199349 
0.120994 0.165378 0.181238 0.149936 0.170785 0.187288 0.191883 0.21268 0.213526 
0.241917 0.2227 0.225993 0.18513 0.0517816 0.0387016 0.0597542 0.0704307 0.124938 
0.131042 0.142794 0.119662 0.00273201 0.00619312 0.0388038 0.0913668 0.21145 0.260454 
0.174756 0.194867 0.160997 0.0919932 0.0345543 0.0755816 0.0547787 0.0895667 0.0956658 
0.0238286 0.0329555 0.0895222 0.129896 0.167714 0.130262 0.170433 0.20472 0.146611 
0.131187 0.150055 0.141571 0.368111 0.382273 0.403259 0.446623 0.557049 0.523088 
0.521677 0.566082 0.534113 0.534288 0.315969 0.251139 0.108801 0.108801 0.0378848 
0.0587677 0.0877735 0.0753112 0.0553517 0.157603 0.135955 0.135955 0.141129 0.171991 
0.220313 0.281902 0.200786 0.251699 0.162352 0.210432 0.27218 0.255688 0.216204 
0.216204 0.131643 0.128451 0.159948 0.165471 0.389989 0.434098 0.435829 0.376096 
0.408569 0.432858 0.409111 0.599592 0.554935 0.0440727 0.0565755 0.112034 0.0912634 
0.0953458 0.114421 0.0723277 0.115232 0.250471 0.157758 0.153319 0.17382 0.237307 
0.222317 0.259401 0.118075 0.156396 0.152125 0.103426 0.158616 0.108669 0.0812225 
0.155671 0.0822878 0.0921291 0.127475 0.0859498 0.139435 0.221749 0.184212 0.268844 
0.279343 0.159375 0.15409 0.153265 0.121691 0.170138 0.227945 0.277771 0.0832417 
0.110474 0.123007 0.0994106 0.0843197 0.138138 0.0978367 0.0446949 0.0525269 0.0764748 
0.0903753 0.106449 0.149097 0.181115 0.269475 0.335083 0.362034 0.289776 0.301284 
0.20815 0.257968 0.199008 0.168827 0.1965 0.187294 0.182927 0.245199 0.191494 
0.226161 0.234983 0.170499 0.217904 0.265955 0.252422 0.299998 0.307962 0.397223 
0.397223 0.256297 0.22174 0.196991 0.179891 0.175828 0.18377 0.185615 0.171892 
0.0822425 0.106576 0.106576 0.143325 0.188158 0.156543 0.146285 0.172222 0.129301 
0.185729 0.16326 0.172396 0.175261 0.217963 0.163213 0.192619 0.166628 0.200066 
0.256831 0.286035 0.216059 0.189984 0.131461 0.160229 0.0995103 0.162144 0.0938421 
0.11712 0.122277 0.15002 0.15002 0.153471 0.233051 0.240504 0.215054 0.186281 
0.353967 0.319052 0.342588 0.342588 0.261146 0.201202 0.177386 0.120232 0.174295 
0.238489 0.282825 0.286323 0.223344 0.228126 0.250819 0.328802 0.395078 0.335256 
0.320348 0.320348 0.333533 0.369963 0.446318 0.408813 0.408813 0.388718 0.286087 
0.286087 0.198472 0.187235 0.329992 0.245612 0.16658 0.209199 0.277993 0.27714 
0.27714 0.2452 0.238406 0.325606 0.294494 0.325755 0.27216 0.208561 0.165171 
0.126448 0.157684 0.253002 0.338722 0.342724 0.337989 0.364045 0.315499 0.237921 
0.190518 0.219235 0.165984 0.139002 0.139002 0.177711 0.156668 0.1541 0.172961 
0.212911 0.147152 0.129249 0.179743 0.178864 0.150445 0.144038 0.174347 0.111867 
0.147081 0.111276 0.135337 0.134518 0.221254 0.222236 0.161942 0.101528 0.137046 
0.0893653 0.0950339 0.203183 0.188727 0.315525 0.268346 0.218148 0.280867 0.218724 
0.19723 0.19723 0.140635 0.209737 0.238856 0.270251 0.256428 0.197914 0.222068 
0.199392 0.217349 0.160567 0.194252 0.246943 0.219627 0.22267 0.297824 0.10824 
0.13918 0.174292 0.170519 0.18261 0.209774 0.255961 0.298943 0.370065 0.264717 
0.306306 0.250251 0.14612 0.400917 0.472314 0.565203 0.377504 0.415406 0.29517 
0.271059 0.311314 0.297952 0.249912 0.240239 0.204864 0.348863 0.366981 0.347253 
0.401568 0.282015 0.233933 0.166057 0.152006 0.254129 0.166558 0.194 0.0877141 
0.100428 0.100428 0.0968018 0.15333 0.182564 0.170953 0.181278 0.165715 0.162644 
0.184768 0.180228 0.174984 0.163137 0.159424 0.150148 0.185832 0.187211 0.230518 
0.230518 0.266434 0.26924 0.279169 0.259474 0.203614 0.0276023 0.0674252 0.0986915 
0.09187 0.09187 0.0677283 0.151365 0.155489 
WidthEq 1 671 double
3.15662 2.84983 2.99667 3.50647 3.41203 3.6777 3.43779 1.70621 3.1959 
3.26144 2.86099 3.49189 3.92335 3.19554 3.57825 4.36853 3.44026 3.99384 
3.53395 3.79646 4.71782 3.81217 2.54618 4.567 4.31714 2.63874 3.69192 
4.14863 2.348 4.146 3.66659 5.38952 4.27446 4.25155 2.11794 2.12056 
2.65497 1.74351 4.37532 1.99903 3.00479 2.17139 4.64529 1.92074 3.27412 
1 2.20042 1.90652 2.47916 4.17745 2.29486 2.00957 3.40828 2.59792 
2.4564 3.32479 1.92215 1.96982 2.31119 2.32546 2.22513 2.18096 2.10437 
1.74418 1.63331 1.63331 1.64859 1.71891 1.77843 1.88119 1.95848 1.95848 
1.9429 1.8921 1.8921 1.83358 2.01533 2.01533 2.40105 2.64456 2.64456 
2.4797 2.31975 2.22554 2.29679 2.3019 2.43905 2.49759 2.23963 2.30771 
2.03729 1.84672 1.83679 1.83777 1.79298 2.06451 2.31838 2.86613 3.32479 
3.10126 3.08815 3.12291 3.16376 3.14194 2.95982 2.79815 2.57681 2.34307 
2.31556 2.07974 2.13028 1.83121 1.81715 1.81597 1.92097 1.98319 2.13571 
2.28735 2.36736 2.1065 2.08112 1.93771 1.93771 1.77167 1.65478 1.53294 
1.62324 1.46005 1.49311 1.66327 1.71302 1.90688 2.09881 2.07012 2.37433 
2.51276 2.73205 2.78034 2.93494 2.83921 2.80029 2.63399 2.90645 3.45121 
3.81263 4.13857 4.60006 2.4564 3.6324 3.8883 3.85264 3.89527 3.70755 
3.84896 3.93247 4.1732 4.49747 4.69167 4.49783 4.13333 3.61155 3.47389 
3.71547 3.50086 3.57085 2.72256 3.40828 3.87835 4.03485 4.03485 3.86652 
3.04827 2.24372 2.49271 2.85371 2.96983 2.96983 2.97561 2.92344 2.70729 
2.83492 2.78226 2.72426 2.52343 2.34394 1.99075 2.0298 1.89662 1.69713 
1.66687 1.49615 1.55711 1.6915 1.70083 1.91421 2.02379 2.02978 3.01289 
3.00778 3.64212 4.71332 2.46252 2.55225 2.81229 3.17904 3.63307 3.88894 
3.74728 3.85053 2.47011 2.30028 2.19862 2.63772 2.28239 2.10257 1.95995 
2.12128 2.24421 2.26408 2.36531 2.36531 2.41244 2.55413 2.63409 3.17418 
3.24342 3.5112 4.08437 4.3349 4.68907 5.61696 4.08247 4.20182 4.31966 
3.54323 3.32834 3.10167 2.88135 2.35996 1.99697 1.99697 2.74617 2.00504 
2.12424 2.37901 2.30301 2.47682 2.47682 2.46653 2.09794 1.7285 1.57115 
1.57796 1.78863 1.78938 1.83324 1.99021 1.10701 2.00391 4.20655 4.5898 
4.35033 4.04812 3.19937 3.21138 3.03832 2.9543 3.13435 2.94386 3.92281 
3.74761 3.63096 4.16171 4.39774 4.75811 4.94631 5.41595 4.97691 4.9216 
4.86164 4.42224 4.48958 4.54668 4.26564 4.38429 4.22362 4.07753 3.87329 
3.99043 4.13587 4.08712 4.55638 4.6134 3.8223 3.38362 3.62929 2.98417 
2.8658 3.03747 3.25098 4.02601 4.29993 4.38748 4.15312 3.76859 3.59828 
3.089 3.05459 3.10262 3.32438 3.68904 3.80381 4.08867 4.24599 4.75937 
5.28811 5.22255 4.94875 4.88702 4.48824 4.30171 3.62646 3.45756 3.28576 
3.26684 3.31374 3.47718 4.13564 3.90203 3.6605 3.41026 2.84117 2.83585 
2.69551 2.47149 2.47034 2.30756 2.08349 2.45087 3.04763 3.04763 3.04426 
3.08277 3.13808 3.11831 3.15132 2.80098 2.90917 2.90917 2.86251 2.70392 
2.62684 2.55575 2.82291 2.70644 2.8965 2.79808 2.64954 2.87089 3.09118 
3.09118 3.45453 3.55563 3.69377 3.86385 4.18987 3.66623 3.51973 3.36014 
3.2762 3.13908 3.07339 2.60722 2.25362 5.62791 5.04818 4.20131 3.56236 
3.50737 3.61291 4.10034 4.01238 3.4292 3.77448 3.6081 4.62047 4.84323 
4.58479 4.31734 4.7289 4.42417 4.21537 4.01421 3.91178 3.82693 3.88095 
3.73985 4.28867 4.43811 4.30881 4.25689 3.77643 3.27751 3.03734 2.7664 
2.79908 3.33307 5.15727 5.24867 5.26068 5.13009 4.65701 3.98621 4.15246 
3.9605 3.82469 4.11116 4.36969 4.24766 4.28111 4.6523 4.62675 4.53519 
3.72681 3.25308 3.0241 2.55428 2.43954 2.33003 2.37762 2.58038 2.68513 
2.98309 2.86343 3.20557 3.33965 3.31631 3.42874 3.38943 3.20518 3.33022 
3.23059 3.16238 3.21128 3.05321 2.78008 2.74156 2.5668 2.51801 2.31131 
2.31131 2.80905 2.97926 3.08298 3.42406 3.53321 3.76849 3.81922 3.73226 
4.10576 5.15238 5.15238 5.36527 5.7694 5.9185 6.17463 6.17154 6.39991 
5.93716 5.8164 5.82468 4.89435 4.13029 3.71807 4.295 4.16349 3.93386 
3.61499 3.41838 3.79569 3.84254 4.97395 4.7092 4.69655 4.46053 4.51167 
4.40126 4.14765 3.65757 3.65757 3.48672 3.28782 3.48191 3.81466 4.05324 
2.15466 2.1137 2.01569 2.01569 2.55518 3.36575 3.8919 4.45243 4.02213 
3.69207 3.51289 3.44304 3.36153 3.37521 3.30196 3.05202 2.8876 3.02189 
3.04629 3.04629 3.07496 3.05971 2.87061 2.99924 2.99924 3.05737 3.25946 
3.25946 3.1443 2.86564 3.478 3.83829 4.47739 3.9823 3.58982 3.4931 
3.4931 3.61486 3.4481 3.21521 3.29736 3.23252 3.66865 3.93296 4.2563 
4.46559 4.33845 3.3602 2.9889 2.78339 2.58444 2.66242 2.71344 2.93879 
3.32204 3.4979 4.99084 5.00719 5.00719 3.95893 3.6153 3.76378 3.49027 
3.4969 4.10582 4.33274 4.1504 4.21357 4.15528 4.34873 3.9307 4.05743 
3.71053 3.56871 3.51621 3.55437 3.30525 4.34148 4.74443 5.22939 5.0201 
4.67403 4.3972 4.04144 4.02616 3.36904 3.76237 3.94762 3.72041 4.03269 
4.18424 4.18424 4.04874 3.73828 3.27499 2.9435 2.92869 3.22637 3.3567 
3.41332 3.27823 3.82896 3.6233 3.16487 3.15389 3.21318 3.20068 3.54431 
3.28563 3.25236 2.88608 2.74002 2.76483 2.35975 2.36536 2.30103 2.59732 
2.66425 2.94519 3.54982 2.36497 1.9943 1.72032 2.09958 2.14018 2.57616 
2.88521 2.85788 2.75763 2.93887 2.9608 3.04333 2.93149 2.65165 2.52425 
2.37413 2.55971 2.82446 3.10612 3.53403 2.92704 3.45744 3.44314 4.37581 
4.64184 4.64184 4.86311 4.56923 4.15541 3.44643 3.15129 2.84857 2.73801 
2.62933 2.6867 2.80026 2.91092 3.01909 3.05174 2.95859 2.99165 2.89719 
2.89719 2.77005 2.78998 2.82667 2.82451 2.98685 3.83886 3.90545 3.34343 
3.9127 3.9127 4.04465 3.73154 3.52063 
rRFP 1 671 double
3479.49 3360.17 3417.28 3615.56 3578.83 3682.16 3588.85 2915.37 3494.77 
3520.26 3364.51 3609.89 3777.7 3494.63 3643.48 3950.85 3589.81 3805.12 
3626.25 3728.35 4086.7 3734.46 3242.07 4028.04 3930.86 3278.07 3687.69 
3865.32 3164.99 3864.3 3677.84 4347.95 3914.26 3905.35 3075.51 3076.53 
3284.38 2929.88 3953.49 3029.26 3420.44 3096.3 4058.49 2998.81 3525.19 
2640.7 3107.59 2993.28 3216 3876.53 3144.32 3033.36 3577.37 3262.19 
3207.15 3544.9 2999.36 3017.9 3150.67 3156.22 3117.2 3100.02 3070.23 
2930.14 2887.02 2887.02 2892.96 2920.31 2943.46 2983.43 3013.49 3013.49 
3007.43 2987.67 2987.67 2964.91 3035.6 3035.6 3185.62 3280.33 3280.33 
3216.21 3154 3117.36 3145.07 3147.06 3200.4 3223.17 3122.84 3149.32 
3044.14 2970.02 2966.16 2966.54 2949.12 3054.73 3153.47 3366.51 3544.9 
3457.96 3452.86 3466.38 3482.27 3473.78 3402.95 3340.07 3253.98 3163.07 
3152.37 3060.65 3080.31 2963.99 2958.52 2958.06 2998.9 3023.1 3082.42 
3141.4 3172.52 3071.06 3061.19 3005.41 3005.41 2940.83 2895.37 2847.98 
2883.1 2819.63 2832.49 2898.67 2918.02 2993.42 3068.07 3056.91 3175.23 
3229.07 3314.36 3333.14 3393.27 3356.04 3340.9 3276.22 3382.19 3594.07 
3734.64 3861.41 4040.9 3207.15 3664.54 3764.07 3750.2 3766.78 3693.77 
3748.77 3781.25 3874.88 4001 4076.53 4001.14 3859.37 3656.43 3602.89 
3696.85 3613.38 3640.6 3310.67 3577.37 3760.2 3821.07 3821.07 3755.6 
3437.35 3124.43 3221.27 3361.68 3406.84 3406.84 3409.09 3388.8 3304.73 
3354.37 3333.89 3311.33 3233.22 3163.41 3026.04 3041.23 2989.43 2911.84 
2900.07 2833.67 2857.38 2909.65 2913.28 2996.27 3038.89 3041.22 3423.59 
3421.6 3668.32 4084.95 3209.53 3244.43 3345.57 3488.21 3664.8 3764.32 
3709.22 3749.38 3212.48 3146.43 3106.89 3277.67 3139.47 3069.53 3014.06 
3076.81 3124.62 3132.35 3171.72 3171.72 3190.05 3245.16 3276.26 3486.32 
3513.25 3617.4 3840.33 3937.77 4075.52 4436.41 3839.59 3886.01 3931.84 
3629.86 3546.28 3458.12 3372.43 3169.64 3028.46 3028.46 3319.85 3031.6 
3077.96 3177.05 3147.49 3215.09 3215.09 3211.09 3067.73 2924.04 2862.84 
2865.49 2947.43 2947.72 2964.78 3025.83 2682.32 3031.16 3887.85 4036.91 
3943.77 3826.23 3496.12 3500.79 3433.48 3400.8 3470.83 3396.74 3777.49 
3709.35 3663.98 3870.41 3962.21 4102.37 4175.57 4358.23 4187.47 4165.96 
4142.64 3971.74 3997.93 4020.14 3910.83 3956.98 3894.49 3837.67 3758.23 
3803.79 3860.36 3841.4 4023.91 4046.09 3738.4 3567.78 3663.33 3412.42 
3366.38 3433.15 3516.19 3817.63 3924.17 3958.22 3867.07 3717.51 3651.27 
3453.19 3439.81 3458.49 3544.74 3686.57 3731.21 3842 3903.19 4102.86 
4308.51 4283.01 4176.52 4152.51 3997.41 3924.86 3662.23 3596.54 3529.72 
3522.36 3540.6 3604.17 3860.27 3769.41 3675.47 3578.14 3356.8 3354.73 
3300.15 3213.02 3212.57 3149.26 3062.11 3205 3437.1 3437.1 3435.79 
3450.77 3472.28 3464.59 3477.43 3341.17 3383.25 3383.25 3365.1 3303.42 
3273.44 3245.79 3349.7 3304.4 3378.32 3340.04 3282.27 3368.36 3454.04 
3454.04 3595.36 3634.68 3688.41 3754.56 3881.36 3677.7 3620.72 3558.65 
3526 3472.67 3447.12 3265.81 3128.28 4440.67 4215.19 3885.81 3637.3 