# vtk DataFile Version 3.0
vtk output
ASCII
DATASET POLYDATA
POINTS 856 float
6.15603 -0.165153 2.28784 6.32722 -0.135849 2.29717 5.9244 -0.292326 2.07383 
6.06814 1.09168 1.89836 6.12001 0.994687 1.89986 6.62486 0.516455 1.92033 
6.23075 0.926121 1.70452 0.722418 0.113529 1.13878 1.09008 -0.270782 1.22001 
1.21404 -0.18463 1.16081 1.25092 0.127305 1.23341 1.2864 1.34103 1.05014 
6.28925 0.468596 1.37176 6.50742 0.197789 1.50962 6.99685 1.1462 1.54711 
0.56286 0.504297 1.00179 1.92527 -0.762342 1.05732 5.10343 -0.183008 1.23103 
6.82743 0.553245 1.33053 6.99516 0.705476 1.34122 1.00201 -0.760874 0.808691 
0.387089 0.563204 0.800445 1.81526 -0.845167 0.850235 1.16303 1.38414 0.843926 
6.08388 -0.596766 1.07693 6.64015 -0.154283 1.04483 6.79817 1.09595 1.13549 
0.152678 0.694294 0.582094 2.9889 -0.261242 0.718716 5.42864 -0.514127 0.84335 
5.78812 -0.761841 0.630184 7.04891 0.416114 0.939843 -0.166654 -0.394867 0.351469 
0.335905 -0.791148 0.372842 0.197166 0.94376 0.387252 0.415444 1.27592 0.202545 
2.09095 -1.03749 0.394927 5.58672 -0.726817 0.448393 5.33029 0.740212 0.653581 
5.46176 1.30972 0.667583 6.89163 0.266377 0.729444 3.05479 -0.10739 0.32351 
0.352227 -0.622252 -0.0247722 -0.12833 0.742409 -0.0328933 4.86523 -0.326133 0.215318 
6.94538 -0.0229854 0.328064 7.03862 0.210566 0.106965 0.0204925 1.06856 -0.221312 
2.95113 -0.917768 -0.0926235 3.54735 1.31375 -0.100279 5.45489 -0.824433 0.0396893 
5.35706 0.453048 -0.0162405 6.98703 0.620083 0.137991 -0.218201 -0.559681 -0.454449 
0.0860888 -0.895791 -0.44271 1.1636 1.86489 -0.351777 5.08791 -0.380481 -0.241043 
4.90011 0.934071 -0.167689 4.99694 0.985938 -0.161968 4.9935 1.10887 -0.160613 
6.70517 -0.345022 -0.0891211 6.79856 -0.170227 -0.0820454 6.82287 0.465111 -0.172979 
0.189001 1.19316 -0.678275 3.69725 1.30516 -0.726782 4.62378 0.0940327 -0.564627 
6.8471 0.226986 -0.27483 -0.0502898 -0.705751 -0.914825 0.207292 -0.961861 -0.837766 
1.01678 1.71765 -0.761887 2.82891 1.93962 -0.664194 4.53188 -0.0804063 -0.600231 
5.18379 0.331162 -0.560942 6.53423 0.368233 -0.489743 6.62762 0.543028 -0.482667 
-0.243764 0.602654 -1.04213 6.47379 0.270364 -0.694421 0.230588 -0.791302 -1.36852 
3.35442 1.57271 -1.34597 5.62833 0.12634 -0.940796 0.135121 0.986539 -1.41807 
3.89412 0.130151 -1.23188 5.53851 0.199896 -1.14487 0.558681 -0.59892 -1.61598 
2.46583 -1.13707 -1.52281 3.25826 -0.642665 -1.7088 3.89769 0.378502 -1.42888 
1.5178 -1.12809 -1.77265 1.08632 1.11548 -1.76722 3.02793 -0.651951 -1.6876 
3.67295 0.00547349 -1.6456 3.71792 0.154335 -1.64138 3.40378 1.15505 -1.69541 
0.723219 0.418798 -1.99523 1.34558 -0.745134 -1.97717 0.979091 0.0567545 -1.98635 
1.03095 -0.04024 -1.98485 2.58014 -0.957289 -1.91516 1.72621 1.45512 -1.92975 
3.32889 -0.493854 -1.87015 2.58557 1.47871 -1.88444 3.14229 0.903481 -1.86246 
3.29017 1.32582 -1.84944 3.31749 1.23447 -1.77682 3.35833 1.25635 -1.77441 
3.22062 1.37307 -1.85249 3.17743 1.42018 -1.85417 3.13653 1.46194 -1.84837 
3.0732 1.4908 -1.82907 2.99837 1.51368 -1.7882 2.92232 1.53394 -1.74 
2.85132 1.54535 -1.69907 2.78992 1.54206 -1.68749 2.72855 1.54198 -1.70554 
2.67679 1.5272 -1.75295 2.63056 1.50371 -1.81501 3.29728 1.4176 -1.7144 
3.31427 1.50346 -1.54181 3.21422 0.884617 -1.85151 3.27429 0.886307 -1.82609 
3.30864 0.933971 -1.78104 3.33652 0.99556 -1.7343 3.37167 1.05792 -1.70387 
3.3012 -0.574704 -1.76505 1.65181 1.47823 -1.89626 1.5883 1.50706 -1.86956 
1.54994 1.54947 -1.83395 1.53101 1.60276 -1.76751 1.53569 1.66926 -1.66258 
1.54984 1.74106 -1.53483 1.56661 1.81207 -1.40695 1.58947 1.87272 -1.28632 
1.62589 1.90966 -1.18009 1.66831 1.9362 -1.0811 1.71285 1.96121 -1.00427 
1.75946 1.98479 -0.94961 1.81195 1.99984 -0.916999 1.87202 2.00153 -0.89158 
1.92542 2.01488 -0.858943 1.97887 2.02813 -0.826304 2.03913 2.02784 -0.786058 
2.09815 2.03067 -0.753258 2.16432 2.02014 -0.720251 2.23045 2.01132 -0.702066 
2.28559 2.02305 -0.68419 2.34039 2.03458 -0.658923 2.40627 2.02378 -0.618514 
2.47811 2.00265 -0.585342 2.55235 1.98028 -0.581732 2.62734 1.95978 -0.607733 
2.69801 1.94819 -0.64127 2.76071 1.94987 -0.660218 2.5457 -1.02079 -1.8139 
2.50338 -1.07283 -1.68324 1.00502 0.00825705 -1.9856 1.38512 -0.786226 -1.9682 
1.4446 -0.816524 -1.95062 1.50152 -0.847963 -1.91836 1.5259 -0.896911 -1.88803 
1.51741 -0.964812 -1.85223 1.50736 -1.04249 -1.81663 0.681336 0.380643 -1.9979 
0.645729 0.330752 -2.00039 0.602988 0.294202 -2.00308 0.556003 0.264772 -1.9985 
0.512095 0.227954 -1.979 0.474121 0.177587 -1.93711 0.428663 0.140399 -1.88803 
0.379792 0.11041 -1.84645 0.336799 0.0718808 -1.82693 0.306378 0.011475 -1.82186 
0.276343 -0.0488385 -1.82419 0.234124 -0.0871833 -1.81946 0.18637 -0.116806 -1.80008 
0.139997 -0.152284 -1.75103 0.0944604 -0.192593 -1.67231 0.0327013 -0.206646 -1.55704 
-0.0278351 -0.225439 -1.4195 -0.0857276 -0.249994 -1.27447 -0.145345 -0.268638 -1.15172 
-0.203276 -0.283312 -1.0585 -0.23164 -0.330257 -0.978978 -0.235026 -0.388562 -0.890865 
-0.241018 -0.452079 -0.773281 -0.233425 -0.508096 -0.625219 3.48919 1.1292 -1.47427 
3.53841 1.14677 -1.27305 3.56481 1.20247 -1.09293 3.60673 1.26237 -0.913801 
3.69544 0.0799041 -1.64349 3.70614 0.210284 -1.6413 3.71738 0.276381 -1.63989 
3.74432 0.337351 -1.6303 3.78547 0.373374 -1.59802 3.83597 0.388062 -1.52842 
3.78583 0.132373 -1.53425 3.84667 0.120367 -1.39768 3.17292 -0.65813 -1.70233 
3.09909 -0.662193 -1.70254 1.03688 1.09145 -1.77011 0.981884 1.07782 -1.77316 
0.914169 1.08798 -1.77658 0.841795 1.10685 -1.78013 0.774989 1.1153 -1.78353 
0.72595 1.09135 -1.79381 0.689194 1.04524 -1.81115 0.64184 1.01977 -1.8362 
0.581046 1.0178 -1.84683 0.520661 1.01261 -1.83522 0.456581 1.01188 -1.8015 
0.3992 0.997812 -1.76017 0.341013 0.985247 -1.71887 0.270673 0.992958 -1.65569 
0.198396 1.00021 -1.55553 1.60777 -1.15644 -1.7312 1.68677 -1.18118 -1.6977 
1.75957 -1.20268 -1.66448 1.82637 -1.21512 -1.62405 1.8851 -1.21256 -1.58385 
1.947 -1.21429 -1.55837 2.00637 -1.20966 -1.54779 2.06937 -1.21101 -1.5445 
2.12914 -1.20629 -1.54131 2.19214 -1.20764 -1.53803 2.25185 -1.20282 -1.53484 
2.31395 -1.20247 -1.53158 2.36804 -1.18714 -1.52856 2.41736 -1.16291 -1.52567 
1.45847 -1.1993 -1.68021 1.38866 -1.21215 -1.61726 1.31948 -1.2054 -1.59113 
1.25809 -1.20885 -1.57955 1.19382 -1.20759 -1.56065 1.13082 -1.21116 -1.51949 
1.05948 -1.19995 -1.47115 0.98424 -1.18144 -1.42293 0.913244 -1.17004 -1.38201 
0.848945 -1.172 -1.33347 0.777555 -1.16069 -1.28514 0.702314 -1.14217 -1.23692 
0.631312 -1.13077 -1.19599 0.567018 -1.13273 -1.14746 0.495674 -1.12128 -1.09912 
0.421318 -1.1001 -1.05082 0.356897 -1.07165 -1.00934 0.314159 -1.03135 -0.959149 
0.271131 -0.99109 -0.901554 3.91479 0.451088 -1.36031 3.92392 0.518706 -1.33673 
3.91324 0.57503 -1.35884 3.90295 0.631445 -1.38835 3.91304 0.699237 -1.38697 
3.92791 0.77028 -1.3408 3.92335 0.831486 -1.25868 3.88177 0.87333 -1.14906 
3.85114 0.92127 -1.02395 3.84254 0.981007 -0.897544 3.83172 1.03956 -0.789824 
3.82444 1.10464 -0.722625 3.78514 1.18398 -0.705146 3.93882 0.339644 -1.33077 
3.93724 0.277448 -1.26487 3.9168 0.204571 -1.23718 2.5335 -1.16102 -1.39345 
2.59977 -1.18156 -1.27156 2.65654 -1.18268 -1.16474 2.69466 -1.1481 -1.06588 
2.73977 -1.12498 -0.98162 2.79583 -1.12232 -0.897053 2.84512 -1.10782 -0.805271 
2.88773 -1.08327 -0.691461 2.92384 -1.04845 -0.563032 2.94938 -0.999569 -0.42014 
2.9653 -0.959379 -0.263018 0.502818 -0.610931 -1.61906 0.436927 -0.604185 -1.62243 
0.376097 -0.608143 -1.61577 0.336585 -0.657969 -1.5789 0.295035 -0.726121 -1.49291 
5.57301 0.157602 -1.03974 3.42415 1.56918 -1.17175 3.48719 1.53828 -1.04643 
3.53515 1.49573 -0.948014 3.60349 1.43056 -0.845103 3.90053 0.0728113 -1.12841 
3.8856 0.0038064 -1.04103 3.86103 -0.0705866 -0.96906 3.83516 -0.145797 -0.904599 
3.80909 -0.220874 -0.840136 3.78124 -0.292628 -0.775725 3.7435 -0.345066 -0.719011 
3.6871 -0.361797 -0.670249 3.63732 -0.390084 -0.628705 3.59809 -0.43892 -0.579445 
3.55258 -0.47602 -0.530357 3.50328 -0.506005 -0.48139 3.45821 -0.543101 -0.439709 
3.41984 -0.59355 -0.390424 3.37433 -0.63065 -0.341336 3.3245 -0.65884 -0.299794 
3.27497 -0.685148 -0.280465 3.22583 -0.711364 -0.268525 3.17716 -0.739276 -0.249171 
3.13165 -0.776367 -0.200093 3.09252 -0.827011 -0.136009 3.04662 -0.864195 -0.0795321 
2.99834 -0.892015 -0.0675771 0.103588 0.925758 -1.39081 0.0603433 0.88525 -1.34908 
0.0163228 0.844557 -1.29255 -0.017095 0.783217 -1.2283 -0.0500892 0.720269 -1.15663 
-0.0902779 0.670776 -1.08517 -0.129032 0.620233 -1.02848 -0.179088 0.595729 -1.01658 
0.152344 1.04755 -1.19139 0.174622 1.1052 -0.9447 0.133303 -0.763976 -1.27684 
0.0423932 -0.737384 -1.12549 5.59926 0.0642191 -0.943095 5.56304 0.015465 -0.945601 
5.52927 -0.0378475 -0.948036 5.49219 -0.0849965 -0.950567 5.45831 -0.138115 -0.953005 
5.41989 -0.183558 -0.948165 5.37841 -0.224926 -0.928602 5.32115 -0.240043 -0.879865 
5.26994 -0.270363 -0.796382 5.22993 -0.32871 -0.660736 5.17705 -0.377319 -0.471234 
5.6768 0.152177 -0.937934 5.72612 0.176408 -0.935048 5.78021 0.191735 -0.932023 
5.84231 0.192088 -0.928766 5.90202 0.196904 -0.925578 5.96502 0.195555 -0.922295 
6.02473 0.200371 -0.919107 6.08683 0.200724 -0.91585 6.14092 0.21605 -0.912825 
6.18991 0.240093 -0.902538 6.23818 0.263853 -0.877461 6.29081 0.277011 -0.830035 
6.3549 0.267918 -0.774857 6.41943 0.25882 -0.727086 0.208843 -0.890725 -1.10138 
6.5986 0.480819 -0.484965 6.56325 0.430442 -0.487446 6.59011 0.582547 -0.513811 
6.5359 0.601689 -0.560916 6.47888 0.601896 -0.615835 6.41387 0.612937 -0.671027 
6.34804 0.623653 -0.711425 6.28897 0.620909 -0.744227 6.22664 0.622636 -0.762312 
6.16679 0.619707 -0.780314 6.10024 0.630142 -0.805932 6.03527 0.639244 -0.846305 
5.98096 0.627603 -0.878968 5.92591 0.614076 -0.882021 5.86178 0.613446 -0.848305 
5.79849 0.609597 -0.799732 5.7284 0.619297 -0.758778 5.65913 0.629084 -0.732611 
5.59759 0.623621 -0.698809 5.53777 0.610151 -0.622987 5.49292 0.558586 -0.480089 
5.44048 0.496914 -0.268485 6.71202 0.510171 -0.326587 5.16126 0.256828 -0.563051 
[...]
POINT_DATA 856
SCALARS DY_raw double
LOOKUP_TABLE default
23.8274 33.781 45.128 49.8027 54.5326 49.2621 46.1249 92.1942 97.8812 
66.6159 55.6532 96.9773 38.0641 56.6766 0 82.1544 50.4237 73.6543 
57.2797 41.7235 73.1023 72.1661 50.7865 80.5535 32.95 48.8242 42.3996 
92.5838 68.6593 71.284 41.4323 66.0815 84.0799 98.0365 105.708 91.753 
56.6616 32.6867 63.1227 52.25 81.0114 80.1206 66.8261 94.0129 53.71 
82.5002 49.9856 90.7277 80.3606 86.8533 15.7832 68.0962 12.9624 90.2607 
90.359 64.7469 38.6149 74.4035 45.3499 62.3089 80.3082 56.5625 55.5851 
87.1379 67.3695 89.112 59.2547 82.9057 64.4458 84.3287 74.123 135.542 
70.8872 55.5256 42.4349 92.4507 72.0711 70.7258 63.194 45.3298 74.893 
53.9713 27.0604 64.8079 63.1183 62.6209 68.4485 69.3806 107.261 132.64 
120.104 114.149 57.956 168.057 89.108 86.3028 68.2323 95.362 76.6029 
62.9655 138.643 138.239 56.9822 70.5543 62.4144 66.713 75.0034 90.1432 
104.374 119.121 126.018 132.329 135.698 144.14 137.59 162.138 63.3423 
66.0609 96.2385 92.0548 75.9154 76.8252 68.4039 52.9605 68.0129 85.0326 
70.2495 76.5955 60.4199 45.5358 47.2262 45.1343 59.4447 62.8287 62.9071 
75.2546 83.649 80.0543 90.5417 83.1446 85.7125 84.6909 86.385 78.5663 
78.5663 74.3946 73.2091 77.995 74.9542 72.714 71.7073 74.123 82.5201 
67.1501 68.2323 86.9114 78.4232 70.0321 69.4878 75.5505 75.7799 134.398 
119.926 119.926 120.437 124.488 135.553 129.702 111.666 109.471 87.2609 
83.7755 78.0528 69.3884 79.744 69.6313 71.8185 78.8265 74.018 67.8799 
63.2197 61.3976 72.0282 74.9651 78.6471 76.4286 96.1844 84.9297 82.3464 
125.752 114.149 105.293 102.795 95.0067 73.7884 90.6651 81.2043 75.6443 
99.2048 107.855 103.478 103.784 103.784 99.2633 94.0948 94.0948 70.1957 
65.2799 74.0368 66.2774 76.5621 78.9564 71.4951 72.2262 63.1972 59.0031 
67.8392 75.6758 80.4717 84.7551 81.4408 92.4211 91.3098 87.3226 78.9621 
78.9621 75.5494 69.7344 60.2803 66.499 76.2955 80.1777 80.1777 76.4161 
61.6583 57.2694 56.6112 61.4165 62.9733 68.2135 72.7513 63.6733 68.9337 
70.3242 78.4578 73.0109 65.6636 72.0215 63.3368 86.0425 76.4274 61.804 
62.1555 71.3888 71.4129 61.9939 61.2278 62.5289 68.6269 67.037 48.0199 
73.8791 61.2529 60.503 68.1774 64.109 60.5413 66.553 63.7648 59.9714 
70.6045 75.2036 71.6962 70.4731 71.0889 71.0889 84.3337 72.126 70.3612 
32.5305 76.8336 75.9227 72.0237 70.0784 74.5689 60.0606 71.4966 62.1439 
67.5981 61.6868 66.9909 70.0446 75.0569 63.9271 68.4802 57.2172 70.2777 
73.688 67.7933 69.9112 60.5875 72.5541 75.9953 82.2628 80.5274 83.6814 
86.2786 76.2807 72.6376 69.7317 52.8264 55.912 63.6869 71.1232 77.9488 
68.9074 92.6507 75.4827 69.715 46.0922 51.1258 69.9014 66.8363 66.8363 
59.3152 55.6379 64.5081 82.2005 77.7746 61.6318 42.0841 44.6365 42.4382 
42.4382 41.9653 50.3331 49.2132 54.5782 50.1514 42.0114 42.0114 47.8025 
56.6451 66.9549 76.5185 60.9869 68.8828 55.7565 58.2568 70.4545 59.5599 
59.5742 72.6609 71.5484 64.4152 64.0695 54.9518 54.9518 50.5593 52.3984 
56.5849 61.0628 74.1682 85.3482 87.8694 85.9002 66.9895 43.7818 86.0664 
75.2678 62.3034 71.239 68.1089 64.5206 59.9389 54.6965 56.9204 90.862 
79.3012 67.3658 68.0608 68.0783 62.0066 67.5317 78.5903 71.4665 86.1407 
84.5994 68.5069 74.5566 75.8121 113.088 88.5824 80.8554 60.9014 67.2236 
73.8034 89.2912 102.424 102.754 75.8227 83.3796 54.4327 53.0239 53.0239 
50.1323 45.2417 42.8866 46.77 55.8608 50.7002 57.2275 78.1614 76.4393 
75.4123 68.3567 84.8683 76.4121 67.8489 92.044 95.0291 91.1072 97.6612 
90.596 89.9815 104.162 109.916 56.2173 73.597 67.1973 34.4275 32.7587 
66.6382 81.5014 64.9863 69.9747 73.5763 70.4565 57.8837 46.5728 50.1319 
57.4099 56.7535 86.1909 57.5973 44.1656 49.3221 56.6795 43.4898 53.1727 
43.0526 85.1829 82.9864 76.9175 78.9906 116.105 96.6298 70.8547 45.9383 
37.861 37.8112 59.8635 76.6932 57.1294 61.4217 57.2096 60.4677 51.3068 
35.5509 89.0067 95.8839 97.1931 101.375 93.514 90.4576 90.4576 75.935 
74.6417 81.643 93.8059 83.4846 91.1768 103.529 110.785 107.118 111.122 
98.9064 87.7473 77.7894 75.5873 73.4294 76.5123 77.4639 84.6441 95.2158 
97.1092 97.1092 92.6157 92.6157 90.8977 91.2812 95.4567 82.5533 84.4585 
81.7559 84.0794 81.8043 69.7574 69.7574 78.8802 72.1626 88.6641 79.714 
77.8473 63.1389 98.7948 88.3529 85.7359 84.0784 102.099 109.491 112.968 
81.13 63.822 63.1575 60.1541 47.2631 35.9766 45.3619 48.2233 46.749 
70.9504 58.5899 47.1914 59.0389 70.0366 76.6653 92.2077 86.2592 97.6387 
87.0826 94.857 99.7671 99.7671 96.0088 102.82 116.411 90.4877 90.4877 
101.786 136.504 145.22 133.52 120.963 120.963 90.4436 96.1511 97.5272 
52.6975 48.7882 47.3191 43.697 51.2379 54.4654 37.3837 26.4626 35.1688 
20.5131 18.153 18.2523 11.044 31.77 31.5323 38.2777 46.27 43.7336 
51.6305 39.5975 53.5572 43.7008 97.6347 96.7678 95.442 93.2646 90.2172 
102.79 104.338 91.1144 91.1241 80.2322 75.0325 72.8718 81.0197 80.0219 
81.3005 59.2438 50.1945 52.9416 53.0666 45.7333 48.8445 51.3692 46.7815 
50.3677 46.7317 39.1273 47.114 52.1381 72.1394 50.825 54.3529 50.2798 
59.3334 60.5729 72.6375 64.1108 79.5134 79.5134 88.9998 78.2146 53.9964 
39.1068 33.5587 43.7008 68.1025 60.5258 58.0302 49.7414 50.8872 59.1127 
74.7363 76.3809 76.3809 68.3855 66.8681 66.8681 66.4953 66.4953 66.0407 
55.2562 57.2081 59.1237 67.9716 66.1356 70.2043 65.5601 78.0599 80.1142 
94.9169 83.7262 106.22 83.0732 92.8494 93.1758 80.6141 89.1084 91.8545 
83.2403 69.5134 67.6749 73.1225 72.1181 91.1985 60.012 65.055 66.086 
74.7523 81.6099 89.7385 85.7495 85.9939 117.36 102.629 94.8242 91.8055 
91.8055 96.2708 92.8035 88.3848 83.4444 55.1245 53.9841 59.6331 59.4798 
54.1769 35.6218 58.8867 49.2641 34.5826 63.9678 41.6112 50.5629 49.2791 
47.6601 36.8426 37.2848 29.335 10.8418 21.5213 69.225 67.5956 70.336 
79.7901 77.6217 70.7006 69.8606 61.6823 70.1162 81.8993 88.0283 85.1024 
85.7709 85.1552 80.2605 90.5029 84.9454 77.6444 77.5146 66.0416 75.8315 
59.6026 59.6026 60.2409 69.8359 64.1427 70.9747 68.6593 74.5841 73.3565 
70.1273 69.5128 66.3637 77.6977 89.5712 82.2527 78.9237 77.5177 78.9506 
76.0102 66.4015 66.4015 46.9202 49.8535 49.8535 54.6338 57.5899 70.328 
89.9473 92.7159 99.4064 55.4204 46.3853 45.9809 49.5602 52.3057 60.9516 
68.9407 77.7278 86.7867 74.5181 85.2075 73.7215 74.5194 70.9449 74.4317 
73.9728 78.9191 80.2157 85.7307 85.2264 73.6907 73.6907 77.1792 66.1912 
69.4235 57.7064 58.6771 59.333 66.9408 66.9408 78.0714 68.2913 59.1253 
49.193 88.6161 81.5106 41.4284 48.7376 17.2 98.2429 98.2429 51.0375 
45.3558 58.2573 70.5854 84.8087 98.1057 96.8726 85.8009 80.5362 80.5362 
73.2867 80.6549 82.7386 52.5037 52.5037 58.647 42.2833 37.4442 46.3897 
53.9724 50.204 78.1845 82.1544 91.5272 79.4662 83.0707 77.9927 96.4656 
95.6167 99.5146 105.3 114.574 128.278 124.176 97.7371 97.7371 87.6344 
80.2913 80.2913 75.6811 71.4159 76.3094 81.9368 75.4734 73.8635 86.4946 
75.9132 71.9136 50.3739 55.5866 55.6532 71.6348 83.0874 83.0874 85.2299 
81.1039 77.408 62.0136 70.2628 74.6305 50.0107 54.5326 46.7405 22.6115 
22.6115 
FIELD FieldData 7
DY_minmax 1 856 double
0.141781 0.201009 0.268527 0.296343 0.324488 0.293126 0.274459 0.548587 0.582427 
0.396388 0.331156 0.577048 0.226495 0.337245 0 0.488847 0.300038 0.438269 
0.340834 0.24827 0.434984 0.429413 0.302197 0.479321 0.196064 0.290521 0.252292 
0.550906 0.408547 0.424165 0.246537 0.393208 0.500304 0.583351 0.628999 0.545962 
0.337156 0.194497 0.375602 0.310905 0.482046 0.476745 0.397639 0.559409 0.319593 
0.490905 0.297432 0.539861 0.478173 0.516807 0.0939158 0.405196 0.0771306 0.537083 
0.537667 0.385267 0.229772 0.442727 0.269848 0.370759 0.477862 0.336567 0.330751 
0.518501 0.400872 0.530247 0.352586 0.493318 0.383475 0.501785 0.441058 0.806521 
0.421803 0.330397 0.252502 0.550114 0.428848 0.420843 0.376026 0.269728 0.445639 
0.321148 0.161019 0.385629 0.375576 0.372616 0.407292 0.412838 0.638238 0.789255 
0.714658 0.679228 0.344858 1 0.530223 0.513531 0.406006 0.567437 0.455814 
0.374667 0.824976 0.822569 0.339064 0.419823 0.371388 0.396965 0.446296 0.536383 
0.621059 0.70881 0.749852 0.787406 0.807452 0.857681 0.81871 0.964778 0.376908 
0.393085 0.572652 0.547758 0.451723 0.457136 0.407027 0.315133 0.404701 0.505973 
0.418009 0.45577 0.359519 0.270954 0.281012 0.268565 0.353717 0.373853 0.374319 
0.447791 0.497741 0.476351 0.538755 0.494739 0.510019 0.50394 0.514021 0.467496 
0.467496 0.442674 0.43562 0.464097 0.446003 0.432674 0.426683 0.441058 0.491023 
0.399566 0.406006 0.517153 0.466645 0.416715 0.413477 0.449552 0.450917 0.799712 
0.713601 0.713601 0.716641 0.74075 0.806589 0.77177 0.664453 0.651389 0.519233 
0.498493 0.464441 0.412885 0.474504 0.41433 0.427345 0.469045 0.440433 0.403909 
0.376179 0.365337 0.428593 0.446069 0.467977 0.454777 0.57233 0.505361 0.489989 
0.74827 0.679228 0.626531 0.611663 0.565323 0.439067 0.539489 0.483194 0.45011 
0.590303 0.641773 0.615732 0.617548 0.617548 0.590651 0.559897 0.559897 0.417689 
0.388438 0.440545 0.394373 0.455571 0.469818 0.425421 0.429771 0.376045 0.351089 
0.403667 0.450297 0.478834 0.504322 0.484601 0.549938 0.543325 0.5196 0.469852 
0.469852 0.449545 0.414944 0.358689 0.395692 0.453985 0.477085 0.477085 0.454702 
0.366888 0.340773 0.336856 0.365449 0.374713 0.405894 0.432896 0.378878 0.410179 
0.418453 0.466851 0.43444 0.390721 0.428553 0.376876 0.511983 0.454769 0.367755 
0.369847 0.424788 0.424931 0.368885 0.364327 0.372068 0.408354 0.398893 0.285735 
0.439606 0.364476 0.360014 0.405679 0.381471 0.360242 0.396014 0.379423 0.356851 
0.420121 0.447487 0.426617 0.419339 0.423004 0.423004 0.501815 0.429174 0.418673 
0.193568 0.457187 0.451766 0.428566 0.416991 0.443711 0.357381 0.42543 0.369778 
0.402232 0.367058 0.398619 0.41679 0.446614 0.380388 0.407481 0.340462 0.418176 
0.438469 0.403394 0.415996 0.360517 0.431722 0.452198 0.489492 0.479166 0.497933 
0.513388 0.453897 0.432219 0.414928 0.314336 0.332696 0.378959 0.423208 0.463822 
0.410023 0.551303 0.449148 0.414828 0.274265 0.304216 0.415938 0.397699 0.397699 
0.352946 0.331065 0.383845 0.489122 0.462786 0.36673 0.250415 0.265603 0.252522 
0.252522 0.249708 0.2995 0.292836 0.324759 0.298418 0.249982 0.249982 0.284441 
0.337058 0.398405 0.455311 0.362893 0.409877 0.33177 0.346648 0.419229 0.354402 
0.354487 0.432358 0.425737 0.383293 0.381236 0.326983 0.326983 0.300845 0.311789 
0.3367 0.363345 0.441326 0.507852 0.522853 0.511136 0.39861 0.260517 0.512125 
0.447869 0.370727 0.423897 0.405272 0.38392 0.356657 0.325463 0.338696 0.540661 
0.47187 0.40085 0.404985 0.405089 0.368961 0.401837 0.46764 0.42525 0.512567 
0.503396 0.40764 0.443638 0.451108 0.672914 0.527096 0.481118 0.362384 0.400004 
0.439156 0.531314 0.609458 0.611424 0.451171 0.496138 0.323893 0.315511 0.315511 
0.298305 0.269204 0.25519 0.278298 0.332391 0.301684 0.340523 0.465087 0.45484 
0.448729 0.406746 0.504996 0.454678 0.403725 0.547693 0.565456 0.542119 0.581118 
0.539078 0.535421 0.6198 0.654039 0.334512 0.437928 0.399847 0.204856 0.194926 
0.396521 0.484962 0.386691 0.416374 0.437805 0.419241 0.344428 0.277124 0.298302 
0.341609 0.337703 0.512865 0.342724 0.2628 0.293484 0.337263 0.258779 0.316396 
0.256178 0.506868 0.493798 0.457686 0.470022 0.690862 0.574981 0.42161 0.273349 
0.225286 0.22499 0.356209 0.456351 0.33994 0.36548 0.340417 0.359804 0.305293 
0.21154 0.529621 0.570543 0.578333 0.603216 0.556441 0.538254 0.538254 0.45184 
0.444144 0.485804 0.558178 0.496762 0.542533 0.616031 0.659207 0.637391 0.661212 
0.588527 0.522127 0.462874 0.449771 0.43693 0.455275 0.460937 0.503662 0.566567 
0.577834 0.577834 0.551095 0.551095 0.540873 0.543155 0.568001 0.491221 0.502557 
0.486476 0.500301 0.486764 0.415081 0.415081 0.469364 0.429392 0.527582 0.474326 
0.463218 0.375698 0.587863 0.52573 0.510158 0.500296 0.607522 0.651506 0.672201 
0.482752 0.379763 0.375809 0.357937 0.281232 0.214073 0.269919 0.286945 0.278173 
0.42218 0.34863 0.280805 0.351302 0.416742 0.456185 0.548668 0.513272 0.580984 
0.518172 0.564432 0.593649 0.593649 0.571285 0.611817 0.692683 0.538433 0.538433 
0.605662 0.812245 0.864107 0.794492 0.719775 0.719775 0.538171 0.572133 0.58032 
0.313568 0.290307 0.281565 0.260012 0.304883 0.324088 0.222446 0.157461 0.209267 
0.12206 0.108017 0.108608 0.0657155 0.189042 0.187628 0.227765 0.275323 0.26023 
0.307219 0.235619 0.318684 0.260035 0.58096 0.575802 0.567913 0.554957 0.536823 
0.611635 0.620847 0.542162 0.54222 0.477409 0.446469 0.433613 0.482095 0.476158 
0.483766 0.352521 0.298675 0.315021 0.315765 0.272129 0.290642 0.305665 0.278366 
0.299705 0.27807 0.232821 0.280345 0.31024 0.429254 0.302426 0.323419 0.299182 
0.353054 0.36043 0.432218 0.381482 0.473132 0.473132 0.52958 0.465404 0.321297 
0.232699 0.199686 0.260035 0.405234 0.36015 0.3453 0.295979 0.302796 0.351741 
0.444707 0.454493 0.454493 0.406917 0.397888 0.397888 0.39567 0.39567 0.392965 
0.328794 0.340408 0.351807 0.404454 0.393529 0.41774 0.390105 0.464483 0.476707 
0.564789 0.4982 0.632046 0.494314 0.552486 0.554428 0.479682 0.530226 0.546566 
0.495309 0.413629 0.402689 0.435104 0.429128 0.542663 0.357092 0.3871 0.393235 
0.444802 0.485607 0.533975 0.510239 0.511693 0.698334 0.61068 0.564237 0.546274 
0.546274 0.572845 0.552213 0.52592 0.496523 0.32801 0.321224 0.354838 0.353925 
0.322371 0.211962 0.350396 0.293139 0.205778 0.380631 0.247601 0.300867 0.293228 
0.283594 0.219226 0.221857 0.174553 0.0645127 0.128059 0.411913 0.402217 0.418524 
0.474778 0.461876 0.420693 0.415695 0.367031 0.417215 0.487329 0.523799 0.506389 
0.510367 0.506703 0.477578 0.538523 0.505454 0.462011 0.461239 0.392971 0.451224 
0.354656 0.354656 0.358454 0.415548 0.381671 0.422324 0.408547 0.443801 0.436497 
0.417282 0.413625 0.394887 0.462328 0.53298 0.489432 0.469623 0.461257 0.469784 
0.452287 0.395112 0.395112 0.279192 0.296645 0.296645 0.32509 0.34268 0.418476 
0.535217 0.551692 0.591503 0.329771 0.276009 0.273602 0.294901 0.311237 0.362683 
0.410221 0.462507 0.516411 0.443409 0.507014 0.438669 0.443416 0.422147 0.442894 
0.440164 0.469596 0.477311 0.510127 0.507127 0.438485 0.438485 0.459243 0.393861 
0.413094 0.343373 0.349149 0.353052 0.398321 0.398321 0.464552 0.406357 0.351816 
0.292715 0.527297 0.485016 0.246513 0.290006 0.102346 0.584579 0.584579 0.303691 
0.269882 0.346651 0.420007 0.504641 0.583763 0.576425 0.510545 0.479218 0.479218 
0.436081 0.479925 0.492323 0.312415 0.312415 0.34897 0.2516 0.222806 0.276035 
0.321154 0.298731 0.465225 0.488847 0.544619 0.472851 0.494299 0.464083 0.574003 
0.568952 0.592147 0.626569 0.681755 0.763297 0.738889 0.58157 0.58157 0.521455 
0.477761 0.477761 0.450329 0.424949 0.454067 0.487552 0.449093 0.439513 0.514673 
0.45171 0.427911 0.299742 0.330759 0.331156 0.426252 0.494399 0.494399 0.507147 
0.482596 0.460604 0.369002 0.418088 0.444077 0.297581 0.324488 0.278122 0.134546 
0.134546 
WidthEq 1 856 double
1.06306 1.16071 1.02375 1.48747 1.29024 2.27964 1.51285 2.73477 2.44051 
4.83143 3.58003 3.71087 2.05022 2.59596 1.00704 3.19338 1.62087 1.32715 
2.1594 1.77933 3.08335 3.71698 3.4074 4.39534 1.28892 2.7894 1.44058 
4.3216 3.33443 2.86824 3.15237 2.18563 4.37096 3.69454 4.50931 4.33119 
3.24135 3.9074 2.7155 3.65531 2.83404 1.63379 1.76084 4.4796 4.38373 
3.37769 4.26643 5.63312 3.38798 4.3958 1.11637 2.99003 1.51053 4.35317 
3.90764 6.98767 4.20019 1.51579 3.52548 2.33033 1.13301 3.34798 3.69361 
6.72451 5.68388 2.38565 2.94407 4.34264 4.86238 3.76147 3.75497 1.24404 
3.65214 2.44554 3.33382 3.51495 2.16203 4.46188 4.1034 3.58219 4.45035 
4.21428 3.35989 3.16073 4.66917 5.12592 4.58359 4.69339 2.44964 2.20536 
2.48144 3.23261 5.36045 1.86769 3.06493 2.02647 2.32661 2.74638 3.78445 
4.50707 2.93703 2.08458 4.24097 4.4088 4.71846 4.22047 3.99902 3.61059 
3.24383 3.00535 2.78777 2.45629 2.47254 2.34627 2.68711 2.42442 3.82036 
3.38597 2.72781 2.49808 3.82399 4.20956 4.88335 5.46785 4.57663 4.48734 
5.18125 5.09899 5.5159 6.16152 6.2495 5.1072 4.87932 4.70438 4.57818 
4.22472 3.93681 3.80442 3.58266 3.92389 3.93735 4.25111 3.99051 4.14975 
4.14975 4.29413 4.54274 4.38605 4.08436 4.52966 3.9625 3.75497 3.13511 
4.06448 2.32661 3.40933 4.23115 4.29931 4.35069 4.26589 4.48958 2.32058 
2.54365 2.54365 2.77988 2.79528 2.49607 2.50937 3.17419 3.31586 3.71335 
3.78631 4.08429 4.38474 4.29374 4.56433 4.58406 4.55342 5.14078 5.56395 
6.09335 6.21669 5.22295 4.69285 4.80806 4.85774 4.53338 5.24493 5.9523 
2.54938 3.23261 3.63148 3.71304 4.00087 4.40733 3.57701 3.64193 4.39015 
3.20065 2.31005 2.48864 2.68819 2.68819 3.05077 3.2429 3.2429 3.81092 
3.99097 3.95182 4.60263 4.32825 4.59203 4.92691 4.784 4.67521 4.45113 
3.80326 3.51751 3.15291 2.91923 2.83691 2.94283 3.05488 3.37049 3.56703 
3.56703 4.11903 4.25041 4.44424 3.86036 3.24816 2.97402 2.97402 2.84875 
3.02052 3.0931 3.21473 3.38573 3.49863 3.32794 3.2853 3.1858 3.07832 
3.28337 3.32523 3.86531 4.76047 4.03005 3.97952 3.16042 2.90616 2.85548 
3.19988 3.19686 3.60579 4.86725 5.29661 5.43829 5.18558 5.10062 4.68743 
4.41654 4.2891 4.72357 4.62646 4.74941 5.49129 5.14627 5.50445 5.48928 
5.03849 4.05898 3.70661 3.49878 4.36524 4.36524 4.58429 5.113 4.91066 
3.6704 3.90454 3.66715 4.28415 5.15865 4.00583 4.0579 3.59388 3.76449 
3.60084 3.83761 3.57825 3.52076 3.44872 3.40028 3.27803 3.61639 3.65763 
3.54033 3.44237 3.12196 3.50683 3.21195 2.99808 2.91869 2.97874 3.03986 
3.023 4.75599 4.8329 4.87569 5.22125 5.22017 5.22117 4.97953 3.8941 
4.92211 5.7447 4.07802 4.14688 3.5442 3.30225 2.69136 2.51061 2.51061 
2.31408 2.18664 2.23879 2.18904 2.06996 2.71094 3.53863 3.13264 2.98764 
2.98764 2.63503 2.66544 2.69724 2.78994 2.97858 3.02632 3.02632 2.81408 
2.43022 2.36816 4.15377 2.9303 2.45126 3.09991 2.77942 2.47479 2.54853 
2.41699 2.2049 2.41389 2.39555 2.64478 3.0736 3.0736 2.86159 3.27014 
3.36662 3.33443 3.06749 2.46086 2.17379 2.67264 2.89478 3.85069 3.18672 
3.24893 3.5531 3.23671 2.90036 2.97781 2.50171 2.66799 2.84573 2.9481 
2.69113 2.93502 2.82468 2.63256 2.62714 2.46566 2.45157 2.91157 2.65043 
2.69198 4.05813 3.82662 3.61314 1.74413 4.8811 5.00498 7.53054 7.48442 
4.77092 4.38845 3.95035 3.86446 4.68263 4.34195 3.68069 3.35943 3.35943 
2.84248 2.3328 2.46697 2.65298 2.52485 2.8065 3.36709 2.54806 2.45568 
2.25016 2.28127 2.17596 2.61058 3.53639 4.78717 6.07687 6.34297 5.82084 
5.33522 4.50459 5.98193 5.18914 3.43773 2.94686 3.49538 3.21458 2.69028 
2.9204 1.8061 3.34132 3.45096 3.59395 2.24096 2.32777 3.62057 3.52849 
3.38914 3.18835 2.55851 2.74978 3.89874 3.47572 3.10006 3.53623 3.50311 
5.04011 3.78175 3.46033 3.65794 3.91135 3.37274 3.50389 4.5709 3.98099 
3.98114 3.59682 3.05395 2.45993 4.35835 4.36849 2.75705 2.74328 2.76649 
3.21651 3.63636 3.01031 2.6933 2.57174 2.38905 2.61128 2.61128 2.93053 
3.0842 2.98678 2.73725 2.78878 2.906 2.88945 2.83559 2.93703 2.98547 
3.19818 3.34426 3.62042 3.75513 3.67265 3.91963 3.7429 3.63605 3.24893 
3.22657 3.22657 3.25118 3.25118 3.49855 3.59713 3.49352 3.47921 3.23532 
3.25714 3.15036 3.04079 3.49081 3.49081 3.58823 3.78368 3.41514 3.42512 
3.30596 3.30906 4.86362 5.61974 5.56372 5.11594 5.31897 4.56131 4.55171 
3.37212 3.97418 3.70344 3.21009 2.8335 2.60586 2.49328 2.75427 3.23408 
4.23169 3.87251 3.9522 3.39115 2.38975 2.01277 4.70384 4.37785 3.81386 
4.0008 3.85285 3.55047 3.55047 3.28012 3.07847 2.84983 3.27625 3.27625 
3.04698 3.06284 2.84913 3.352 3.53561 3.53561 4.7758 4.49709 4.32044 
3.61554 2.76727 2.59789 2.58141 2.4638 2.40391 2.0862 2.13774 1.99722 
1.94461 1.61847 1.50008 1.47501 1.38905 1.66528 1.6187 2.24227 2.52369 
2.63681 4.12854 3.69493 3.47294 1.92882 3.61794 3.56153 3.6523 3.67535 
3.49422 3.61307 4.05457 4.21513 4.41406 4.70329 4.33761 4.46583 4.53113 
4.87143 3.38179 3.61175 3.79474 3.40214 3.31006 3.06462 2.52972 2.1936 
1.91095 1.73886 1.59812 1.48236 3.17829 2.97286 3.15593 2.96102 2.58195 
2.235 2.00651 1.65135 1.84696 1.7719 1.7719 1.67248 1.5414 1.63178 
1.73167 1.88774 3.47294 2.89417 2.75535 3.37204 3.4416 3.22557 3.22232 
2.72572 2.69361 2.69361 3.0312 3.25118 3.25118 3.70267 3.70267 3.85262 
4.36005 4.36686 4.13218 4.10657 3.96126 4.18108 4.07245 3.83885 3.09496 
2.92287 3.06571 4.47712 4.85596 3.87003 3.7104 3.66127 3.27927 3.22858 