# vtk DataFile Version 3.0
vtk output
ASCII
DATASET POLYDATA
POINTS 523 float
1.77624 -0.615014 1.65515 2.39463 -0.98406 1.37049 1.27331 0.175333 1.23348 
2.40273 0.0433292 0.728279 2.40259 -0.0669299 0.821004 0.515874 -0.987919 1.35944 
1.95507 -1.9662 1.19533 4.69207 0.139202 0.0947339 0.967225 0.819661 0.791145 
4.54926 0.0368956 0.140273 2.24155 0.201667 0.609408 3.09018 -0.338561 0.507261 
2.93547 -1.45318 0.566129 2.81582 -1.44404 0.728101 2.13729 -1.59523 0.89533 
0.803423 0.703563 0.636582 4.50951 -0.468725 0.0163399 0.00707176 -1.20391 0.673448 
3.2582 -1.26445 -0.425878 -0.458854 -0.976249 0.188681 2.10846 -2.3751 -0.0171515 
0.557317 -2.14676 0.28093 2.8247 0.0698669 -1.19014 -0.321544 0.558529 -0.272463 
-0.617732 0.193589 -0.385182 2.31991 -2.17455 -0.298389 -0.798775 -0.712671 -0.569347 
0.453884 1.08501 -0.997567 2.92117 -0.447217 -1.5068 -0.503468 -1.41743 -0.63238 
2.88501 -0.806748 -1.65293 -0.820343 -0.482769 -0.960039 2.81964 -1.28371 -1.63785 
1.70525 0.693492 -1.82746 0.89749 0.60568 -1.94035 -0.433926 0.0125755 -1.65768 
-0.742809 0.0401359 -1.20829 -0.569944 -0.266586 -1.20024 -0.681899 -1.01653 -1.06628 
-0.302519 0.308938 -1.54846 -0.37449 -0.17317 -1.46234 2.33836 -1.32719 -2.1293 
-0.691297 -0.830666 -1.29815 -0.813715 -0.91836 -1.25912 -0.526429 -1.19096 -1.28054 
-0.279128 -1.73139 -1.25411 0.556995 0.582441 -2.14423 0.241421 0.461462 -2.03147 
-0.28163 -0.152006 -1.89852 0.62434 0.306868 -2.36613 1.62737 0.0686042 -2.54558 
1.48896 -0.126225 -2.48741 0.371507 0.0779128 -2.27849 0.346116 0.156644 -2.49123 
0.881768 -1.13277 -2.62316 0.182014 -1.05997 -2.48426 0.857778 -1.29348 -2.59446 
0.865775 -1.23991 -2.60403 0.873771 -1.18634 -2.61359 0.129099 -1.04826 -2.47467 
0.0791525 -1.02588 -2.45962 0.0344759 -0.986627 -2.43287 -0.0078064 -0.958985 -2.38198 
-0.0500082 -0.94002 -2.32217 -0.0940241 -0.923987 -2.2692 -0.142918 -0.91299 -2.2374 
-0.196331 -0.913827 -2.21821 -0.25348 -0.930481 -2.20355 -0.306893 -0.931318 -2.18436 
-0.355787 -0.92032 -2.15256 -0.399819 -0.904395 -2.09957 -0.440784 -0.886365 -2.03224 
-0.480482 -0.869056 -1.95743 -0.521632 -0.861476 -1.88087 -0.564987 -0.868663 -1.80168 
-0.60462 -0.860138 -1.71793 -0.638484 -0.840608 -1.61408 -0.666137 -0.825556 -1.47263 
0.419105 0.19646 -2.4438 0.488624 0.222251 -2.40122 0.557296 0.2608 -2.37565 
0.314696 0.217379 -2.41435 0.285507 0.269677 -2.31375 0.26303 0.350096 -2.183 
0.359578 0.117805 -2.38127 1.56648 -0.0693735 -2.4205 1.62185 -0.0177991 -2.40163 
1.63569 0.0280405 -2.44958 0.562696 0.358771 -2.44321 0.519545 0.421417 -2.44471 
0.514638 0.498388 -2.33404 0.69191 0.343265 -2.3434 0.765331 0.377379 -2.27057 
0.841025 0.45906 -2.13038 -0.33424 -0.0705266 -1.77967 -0.445054 -0.0705179 -1.64789 
-0.429082 -0.128371 -1.58256 0.308862 0.497803 -2.08285 0.370258 0.516113 -2.1155 
0.447296 0.546445 -2.13284 2.24749 -1.33634 -2.17357 2.16419 -1.36866 -2.23138 
2.08845 -1.40784 -2.28596 2.01687 -1.43313 -2.33964 1.94561 -1.46133 -2.38915 
1.87657 -1.47468 -2.4413 1.80907 -1.48697 -2.48629 1.74241 -1.51202 -2.51428 
1.68084 -1.53067 -2.52133 1.61985 -1.56385 -2.51108 1.55893 -1.60571 -2.49192 
1.49802 -1.64757 -2.47275 1.43865 -1.67982 -2.45533 1.38335 -1.69766 -2.44089 
1.33729 -1.73235 -2.42596 1.31408 -1.78121 -2.41383 1.29061 -1.83184 -2.40138 
1.24281 -1.87813 -2.38437 1.18358 -1.92234 -2.36522 1.12247 -1.96621 -2.34573 
1.0628 -2.009 -2.31904 1.0062 -2.04959 -2.27803 0.956004 -2.08419 -2.20866 
0.911857 -2.10591 -2.11951 0.872977 -2.11075 -2.01866 0.82883 -2.13247 -1.92951 
0.780181 -2.16591 -1.85298 0.728464 -2.20146 -1.7908 0.679733 -2.22623 -1.72319 
0.633488 -2.23436 -1.65854 0.585239 -2.24668 -1.6005 0.534876 -2.24552 -1.56695 
0.48445 -2.23557 -1.54232 0.435819 -2.2228 -1.51085 0.391803 -2.20677 -1.45788 
0.349322 -2.18969 -1.39773 0.305321 -2.17355 -1.34478 0.256988 -2.15879 -1.31366 
0.207058 -2.1363 -1.29863 0.158064 -2.09832 -1.29373 0.108318 -2.06538 -1.28793 
0.0593399 -2.0273 -1.28305 0.00817365 -2.00388 -1.27555 -0.0427425 -1.97878 -1.26835 
-0.0902539 -1.93087 -1.26522 -0.1375 -1.88119 -1.26241 -0.186667 -1.84437 -1.2573 
-0.233616 -1.79269 -1.25485 2.42107 -1.29458 -2.10968 2.48496 -1.28532 -2.10556 
2.54466 -1.29861 -2.08066 2.61339 -1.32117 -1.99894 2.70526 -1.31462 -1.84354 
-0.344453 0.0991913 -1.69429 -0.304695 0.168116 -1.6909 -0.29275 0.234845 -1.6382 
0.17254 0.459464 -1.95014 0.117962 0.466252 -1.89355 0.0671075 0.467029 -1.85473 
0.0167531 0.45335 -1.80625 -0.0261478 0.449211 -1.72761 -0.065481 0.441315 -1.62621 
-0.107143 0.436243 -1.54003 -0.162005 0.407269 -1.5011 -0.229064 0.361094 -1.5106 
0.677763 0.601735 -2.01082 0.78306 0.621431 -1.94286 0.980761 0.542957 -2.07308 
1.04304 0.514941 -2.13586 1.10666 0.519027 -2.12114 1.18027 0.548547 -2.06129 
1.25256 0.574455 -2.00401 1.32246 0.61207 -1.97091 1.38624 0.645476 -1.96649 
1.44627 0.662968 -1.96658 1.50831 0.684755 -1.96009 1.57247 0.693062 -1.92911 
1.63822 0.693637 -1.88203 -0.49517 -1.25036 -1.27085 -0.483733 -1.30215 -1.23509 
-0.476403 -1.3452 -1.15382 -0.471741 -1.37843 -1.01984 -0.48419 -1.40055 -0.837934 
-0.752506 -0.874513 -1.27864 -0.802442 -0.834619 -0.917987 -0.748573 -0.967972 -1.16628 
-0.733868 -0.765451 -1.28523 -0.769118 -0.693128 -1.23475 -0.795386 -0.601925 -1.12198 
-0.392295 -0.103122 -1.41047 -0.408267 -0.0452694 -1.4758 -0.415757 -0.203234 -1.34963 
-0.462875 -0.235626 -1.26594 -0.515938 -0.261766 -1.22015 -0.535615 0.0290274 -1.48243 
-0.592831 0.0501195 -1.35182 -0.635958 0.0670802 -1.27239 -0.685461 0.0673373 -1.2322 
-0.316128 0.330038 -1.34969 -0.326455 0.3214 -1.17021 -0.32127 0.288777 -1.0441 
-0.313356 0.237989 -1.00677 -0.31573 0.166942 -1.09914 -0.361074 0.0868023 -1.32926 
-0.61516 -0.203297 -1.19986 -0.660268 -0.140028 -1.1995 -0.70351 -0.0771003 -1.19949 
-0.735316 -0.0162617 -1.20162 -0.630857 -0.308446 -1.18108 -0.689152 -0.340029 -1.15824 
-0.741212 -0.357018 -1.12167 -0.786155 -0.400248 -1.05406 -0.690572 0.135324 -0.805746 
0.968324 0.760763 -1.62793 1.0439 0.873645 -1.35456 1.11404 0.960201 -1.13143 
1.13388 1.03433 -0.936534 1.12331 1.08209 -0.757623 1.10098 1.11292 -0.604325 
1.07209 1.12892 -0.470413 1.03611 1.12501 -0.355009 1.00059 1.12425 -0.240175 
0.961058 1.10579 -0.129533 0.921694 1.07853 -0.00998992 0.884042 1.04914 0.10951 
0.864369 1.02035 0.248023 0.885388 0.986791 0.393848 0.943699 0.947751 0.540159 
0.995879 0.904503 0.657789 1.00321 0.861455 0.739057 2.85951 -1.33593 -1.50607 
2.86816 -1.37985 -1.402 2.84644 -1.42182 -1.33507 2.83197 -1.4698 -1.29943 
2.81553 -1.52583 -1.31067 2.7786 -1.58743 -1.37025 2.70637 -1.65057 -1.46799 
2.62425 -1.71058 -1.55641 2.54969 -1.76531 -1.60896 2.49399 -1.81549 -1.6203 
2.46084 -1.86446 -1.60603 2.4274 -1.90939 -1.56934 2.40543 -1.95241 -1.51242 
2.38 -1.99347 -1.44739 2.36769 -2.03825 -1.39227 2.35241 -2.08516 -1.35151 
2.32568 -2.12865 -1.30116 2.31798 -2.17017 -1.22455 2.31636 -2.20422 -1.11207 
2.29675 -2.21905 -0.975621 2.27456 -2.20377 -0.827727 2.26656 -2.17841 -0.669033 
2.28781 -2.1643 -0.491987 2.87499 -1.20834 -1.63524 2.91922 -1.15082 -1.64548 
2.92618 -1.09792 -1.66747 2.90892 -1.04055 -1.6773 2.9069 -0.983824 -1.67754 
2.91566 -0.926399 -1.66488 2.9132 -0.868259 -1.65759 -0.864274 -0.542612 -0.828996 
-0.854898 -0.609569 -0.700648 -0.848817 -0.350796 -0.84131 -0.855198 -0.251632 -0.70719 
-0.829036 -0.170848 -0.563932 -0.792717 -0.097459 -0.441109 -0.75084 -0.0279205 -0.361636 
-0.690547 0.0566518 -0.348669 2.93686 -0.755863 -1.64087 2.96736 -0.698414 -1.60991 
2.98609 -0.637482 -1.56928 2.98988 -0.575154 -1.53332 2.96277 -0.511178 -1.51396 
2.79608 -0.833563 -1.79834 2.71326 -0.866231 -1.90593 2.64852 -0.864353 -1.96124 
2.61297 -0.820058 -1.96779 2.61492 -0.760878 -1.93863 2.63516 -0.699001 -1.89082 
2.67189 -0.637361 -1.83118 2.73952 -0.577371 -1.75497 2.82634 -0.514227 -1.64504 
-0.52924 -1.35291 -0.529208 -0.552243 -1.29823 -0.402219 -0.565977 -1.22549 -0.254355 
-0.563846 -1.1437 -0.103566 -0.526048 -1.06175 0.0446788 -0.472488 -1.48877 -0.689754 
-0.438789 -1.54985 -0.687997 -0.40415 -1.59584 -0.612134 -0.344034 -1.62667 -0.498023 
-0.269293 -1.63237 -0.375416 -0.203976 -1.63756 -0.258532 -0.161204 -1.66596 -0.15637 
-0.110163 -1.70302 -0.0853254 -0.0536532 -1.73308 -0.0470847 -0.000382027 -1.77854 -0.0211936 
0.0486627 -1.82539 -0.0171479 0.0995629 -1.8506 -0.0243304 0.150463 -1.87581 -0.0315129 
0.204106 -1.91951 -0.0059584 0.260564 -1.96278 0.0342412 0.319224 -1.9913 0.0717953 
0.372785 -2.02632 0.0884388 0.426912 -2.04762 0.0953036 0.48197 -2.06826 0.117172 
0.529584 -2.10613 0.181414 -0.742641 -0.808794 -0.407821 -0.66727 -0.868007 -0.232868 
-0.572643 -0.915331 -0.0318845 2.92708 -0.393269 -1.51598 2.92167 -0.337252 -1.52304 
2.89448 -0.274659 -1.51264 2.87161 -0.20198 -1.46331 2.86268 -0.0973971 -1.35278 
-0.601992 0.326097 -0.519363 -0.548651 0.406611 -0.547682 -0.452819 0.47676 -0.447518 
2.68948 0.161241 -1.3537 2.59992 0.224369 -1.46778 2.53909 0.271232 -1.51676 
2.48704 0.3064 -1.52456 2.44007 0.357972 -1.52209 2.39429 0.4175 -1.52104 
2.34731 0.468965 -1.51855 2.29787 0.503902 -1.5131 2.2489 0.542082 -1.50824 
2.19925 0.566451 -1.49354 2.15419 0.593879 -1.45732 2.12027 0.640689 -1.38042 
2.09524 0.681774 -1.25101 2.08125 0.728722 -1.0789 2.08505 0.787813 -0.889426 
2.11121 0.815626 -0.70014 2.14079 0.801838 -0.528437 2.17286 0.767788 -0.400203 
2.22348 0.732242 -0.321634 2.2834 0.716542 -0.278575 2.34511 0.70918 -0.244767 
2.40241 0.689964 -0.223586 2.4512 0.64143 -0.219251 2.49393 0.579905 -0.234658 
2.53782 0.526228 -0.251476 2.58546 0.488361 -0.263748 2.63422 0.439622 -0.259376 
2.68453 0.392035 -0.247839 2.73553 0.358258 -0.24613 2.77838 0.315977 -0.279696 
2.80965 0.280525 -0.382192 2.82543 0.240427 -0.569457 2.82651 0.174521 -0.849276 
0.406471 1.05064 -0.913514 0.357524 1.01521 -0.836633 0.305527 0.977777 -0.774117 
0.249197 0.938966 -0.733426 0.191254 0.907781 -0.70881 0.133983 0.890309 -0.694004 
0.0745067 0.858072 -0.67656 0.0151117 0.817157 -0.650206 -0.0414832 0.776573 -0.609198 
-0.0934964 0.739038 -0.546663 -0.143514 0.702845 -0.474545 -0.194336 0.665509 -0.402077 
-0.252163 0.619791 -0.337099 -0.757 -0.599023 -0.246767 -0.684186 -0.527608 0.0141446 
-0.61738 -0.461055 0.189068 -0.553035 -0.396352 0.299736 -0.503489 -0.3345 0.371899 
-0.451992 -0.27556 0.428762 -0.416693 -0.214991 0.481204 -0.383025 -0.155457 0.526492 
-0.339536 -0.100382 0.555024 -0.317046 -0.0467964 0.557665 -0.313756 0.00363329 0.526598 
-0.337188 0.0474147 0.435059 -0.405426 0.0857343 0.259518 -0.505535 0.127132 -0.0235976 
2.40718 -2.11282 -0.196007 2.49138 -2.05319 -0.10797 2.56945 -1.99777 -0.0486158 
2.64128 -1.94654 -0.0179231 2.70511 -1.89918 -0.0155626 2.75588 -1.85076 -0.0182094 
2.78352 -1.79545 -0.00162138 2.80931 -1.7313 0.0625244 2.84504 -1.65702 0.184277 
2.88977 -1.56628 0.360371 2.2633 -2.21524 -0.257363 2.20833 -2.2549 -0.209183 
2.15676 -2.29384 -0.15418 2.11969 -2.33278 -0.0869797 -0.450641 0.262176 -0.0780998 
-0.323272 0.334394 0.151909 -0.231131 0.397145 0.269247 -0.170567 0.443912 0.265596 
-0.156355 0.480152 0.160308 -0.218199 0.516459 -0.0307562 2.94928 0.0647135 -0.821155 
3.02313 0.0506001 -0.530303 3.06758 0.0206849 -0.345642 3.10966 -0.0231051 -0.239544 
3.14205 -0.0706221 -0.162978 3.18971 -0.120436 -0.0969818 3.24707 -0.16325 -0.0417425 
3.30714 -0.190804 0.00302359 3.36531 -0.222565 0.0411569 3.42752 -0.236532 0.0834724 
3.49299 -0.237836 0.130887 3.56174 -0.226479 0.183401 3.63298 -0.19838 0.232924 
3.70375 -0.173417 0.282997 3.777 -0.131819 0.330109 3.85172 -0.0803832 0.375463 
3.92518 -0.0282272 0.413328 3.99405 0.0208784 0.429655 4.05524 0.0646183 0.410157 
4.10851 0.101326 0.355131 4.15724 0.126091 0.287506 4.20502 0.135275 0.230035 
4.2594 0.151801 0.200676 4.31588 0.154742 0.195827 4.37375 0.148135 0.207379 
4.42799 0.127052 0.206532 4.48246 0.0826228 0.186109 -0.37626 -0.907136 0.403201 
-0.28525 -0.837382 0.580124 -0.205644 -0.768714 0.718839 -0.155179 -0.699523 0.833087 
-0.108998 -0.634992 0.928531 -0.0448345 -0.589668 0.999994 0.0237625 -0.574911 1.05969 
0.0909582 -0.573159 1.11394 0.157982 -0.573304 1.16851 0.225006 -0.573449 1.22307 
0.290761 -0.572874 1.27015 0.354918 -0.564566 1.30113 0.416946 -0.542877 1.30764 
0.476691 -0.527274 1.30789 0.538719 -0.505585 1.3144 0.602875 -0.497278 1.34538 
0.667099 -0.497753 1.3853 0.729523 -0.501055 1.41835 0.788866 -0.506568 1.43708 
0.84821 -0.512081 1.45581 0.910602 -0.515598 1.4889 0.974264 -0.519833 1.52949 
1.03494 -0.534852 1.56463 1.08883 -0.567685 1.58088 1.14212 -0.586083 1.57984 
1.19832 -0.585022 1.57533 1.26005 -0.565319 1.5822 1.32572 -0.556067 1.62037 
1.39301 -0.554439 1.67462 1.46002 -0.554693 1.7292 1.5191 -0.561978 1.74824 
1.57086 -0.581429 1.74003 1.61727 -0.609061 1.71121 1.66962 -0.606129 1.68429 
1.72275 -0.607173 1.66543 3.23186 -1.29602 -0.308487 3.21534 -1.33204 -0.207841 
3.18254 -1.36632 -0.111627 3.14035 -1.39705 -0.0139121 3.10092 -1.41553 0.0967006 
3.06432 -1.41712 0.206794 3.02779 -1.42321 0.325175 2.98714 -1.42766 0.441647 
0.0164103 -1.25716 0.68692 0.0548598 -1.30114 0.708108 0.115094 -1.31475 0.750792 
0.185262 -1.30232 0.810499 0.264244 -1.25848 0.886657 0.344642 -1.20153 0.968254 
0.418385 -1.13744 1.07317 0.470544 -1.0653 1.20449 4.52364 -0.41095 0.0354531 
4.54083 -0.351071 0.0689017 4.55945 -0.290118 0.109553 4.57478 -0.229898 0.143351 
4.57581 -0.170993 0.157443 4.55869 -0.110144 0.159829 4.55203 -0.0446533 0.151645 
0.886089 0.762138 0.717445 2.13532 -1.64457 0.9336 2.13455 -1.69146 0.986555 
2.12224 -1.73625 1.04168 2.07924 -1.77943 1.08016 2.01892 -1.8261 1.0846 
1.96825 -1.87454 1.08723 1.95135 -1.92248 1.12083 2.87092 -1.43183 0.64821 
3.08667 -0.388954 0.538358 3.08294 -0.437972 0.576958 3.06944 -0.485206 0.617384 
3.04094 -0.528368 0.668073 3.01403 -0.573151 0.711006 2.97212 -0.613864 0.764202 
2.92044 -0.652793 0.819216 2.87007 -0.689295 0.888904 2.81959 -0.725777 0.958621 
2.76758 -0.763312 1.02116 2.71098 -0.803896 1.06216 2.65159 -0.844811 1.08852 
2.59211 -0.877048 1.10596 2.53637 -0.893468 1.12794 2.48303 -0.921497 1.17407 
2.43589 -0.953997 1.25777 2.29387 0.143379 0.637386 2.35186 0.0907404 0.678621 
4.62497 0.0911301 0.116132 1.00056 0.759875 0.800445 1.02561 0.705598 0.833664 
1.07298 0.653903 0.899986 1.13439 0.604973 0.993522 1.18932 0.558558 1.09572 
1.22333 0.51197 1.17947 1.25763 0.46133 1.24077 1.27894 0.407737 1.27469 
1.30208 0.351147 1.29336 1.30265 0.293348 1.28641 1.29039 0.235231 1.26694 
2.40895 -0.0124791 0.781046 
LINES 58 642
4 56 57 58 54 
21 55 59 60 61 62 63 64 65 66 67 68 69 70 71 72 73 74 75 76 77 42 
5 53 78 79 80 49 
5 53 81 82 83 47 
3 53 84 52 
5 51 85 86 87 50 
5 49 88 89 90 46 
5 49 91 92 93 34 
3 48 94 35 
4 35 95 96 40 
5 47 97 98 99 46 
5 35 153 154 155 39 
11 47 156 157 158 159 160 161 162 163 164 39 
4 46 165 166 34 
13 34 167 168 169 170 171 172 173 174 175 176 177 33 
7 44 178 179 180 181 182 29 
3 43 183 42 
3 43 184 26 
3 43 185 38 
5 42 186 187 188 31 
4 40 189 190 35 
5 40 191 192 193 37 
6 35 194 195 196 197 36 
8 39 198 199 200 201 202 203 35 
6 37 204 205 206 207 36 
6 37 208 209 210 211 31 
3 36 212 24 
19 34 213 214 215 216 217 218 219 220 221 222 223 224 225 226 227 228 229 8 
25 32 230 231 232 233 234 235 236 237 238 239 240 241 242 243 244 245 246 247 248 249 250 251 252 25 
9 32 253 254 255 256 257 258 259 30 
4 31 260 261 26 
8 31 262 263 264 265 266 267 24 
7 30 268 269 270 271 272 28 
11 30 273 274 275 276 277 278 279 280 281 28 
7 29 282 283 284 285 286 19 
22 29 287 288 289 290 291 292 293 294 295 296 297 298 299 300 301 302 303 304 305 306 21 
5 26 307 308 309 19 
7 28 310 311 312 313 314 22 
5 24 315 316 317 23 
35 22 318 319 320 321 322 323 324 325 326 327 328 329 330 331 332 333 334 335 336 337 338 339 340 341 342 343 344 345 346 347 348 349 350 22 
15 27 351 352 353 354 355 356 357 358 359 360 361 362 363 23 
16 26 364 365 366 367 368 369 370 371 372 373 374 375 376 377 24 
12 25 378 379 380 381 382 383 384 385 386 387 12 
6 25 388 389 390 391 20 
8 24 392 393 394 395 396 397 23 
29 22 398 399 400 401 402 403 404 405 406 407 408 409 410 411 412 413 414 415 416 417 418 419 420 421 422 423 424 9 
37 19 425 426 427 428 429 430 431 432 433 434 435 436 437 438 439 440 441 442 443 444 445 446 447 448 449 450 451 452 453 454 455 456 457 458 459 0 
10 18 460 461 462 463 464 465 466 467 12 
10 17 468 469 470 471 472 473 474 475 5 
9 16 476 477 478 479 480 481 482 9 
3 15 483 8 
9 14 484 485 486 487 488 489 490 6 
3 13 491 12 
18 11 492 493 494 495 496 497 498 499 500 501 502 503 504 505 506 507 1 
3 9 510 7 
13 8 511 512 513 514 515 516 517 518 519 520 521 2 
56 45 147 146 145 144 143 142 141 140 139 138 137 136 135 134 133 132 131 130 129 128 127 126 125 124 123 122 121 120 119 118 117 116 115 114 113 112 111 110 109 108 107 106 105 104 103 102 101 100 41 148 149 150 151 152 32 
6 10 508 509 3 522 4 

POINT_DATA 523
SCALARS DY_raw double
LOOKUP_TABLE default
520.965 466.3 302.814 248.999 259.199 597.764 491.451 429.165 234.514 
393.612 370.442 763 397.001 381.061 639.661 170.213 546.149 410.263 
483.173 362.383 384.583 405.504 434.133 361.11 375.819 333.791 308.399 
472.577 352.89 347.691 340.177 231.182 400.998 463.816 370.254 261.001 
228.398 297.795 399.359 314.621 348.741 325.845 330.018 205.766 457.94 
393.608 434.228 367.875 368.939 358.709 370.547 265.464 345.731 292.611 
555.776 511.232 484.895 501.031 501.031 452.534 478.427 384.757 405.137 
430.533 492.348 461.393 461.393 414.691 414.691 379.782 323.235 354.691 
357.044 273.636 297.826 287.176 258.53 278.286 320.881 351.053 369.907 
313.512 359.211 355.661 314.341 299.979 335.076 313.004 377.866 417.203 
413.865 370.878 385.885 385.995 286.062 268.534 287.152 381.349 416.556 
441.218 331.097 332.386 351.955 440.107 509.502 471.854 525.702 525.702 
494.308 532.781 532.781 509.481 491.119 534.569 568.673 552.206 545.183 
537.131 520.944 475.707 494.73 511.641 469.73 481.77 421.031 408.396 
442.52 402.407 376.336 389.855 352.998 368.182 368.182 322.74 340.024 
307.079 280.226 280.226 291.731 256.481 271.288 244.983 247.888 247.888 
229.624 220.112 267.714 311.828 323.509 325.901 351.709 366.6 417.242 
263.751 268.306 284.855 365.121 339.195 329.736 342.865 345.394 365.258 
369.781 340.619 322.458 386.518 353.975 399.883 387.087 390.528 435.795 
407.717 428.482 382.084 420.999 420.999 405.35 404.093 457.94 328.118 
379.067 452.292 364.349 274.55 252.585 284.714 249.99 237.447 223.336 
331.98 310.516 327.169 322.658 297.795 290.193 305.471 297.386 228.398 
306.821 289.434 291.023 302.389 278.616 319.924 282.133 273.262 248.543 
213.973 284.024 282.673 275.571 250.272 312.662 322.753 299.743 278.473 
269.099 279.411 295.912 271.763 323.872 306.178 249.73 268.967 278.027 
323.68 288.744 249.26 274.409 229.708 387.415 369.497 350.004 332.054 
323.52 317.726 343.144 378.228 358.436 354.699 342.074 366.167 346.839 
362.759 350.002 361.206 387.423 384.431 427.081 393.765 423.419 397.755 
351.3 411.418 396.906 374.765 354.053 354.053 316.38 338.781 237.369 
260.045 246.829 293.32 328.691 291.479 268.629 269.477 347.465 365.615 
390.427 382.836 350.826 324.176 321.896 320.82 322.341 328.357 336.205 
355.456 369.404 340.065 315.512 372.046 313.698 260.305 300.137 326.019 
316.415 340.947 328.87 286.447 323.358 317.972 363.65 345.383 345.383 
328.689 280.846 277.705 243.821 264.043 251.862 265.346 232.268 278.957 
291.742 335.217 303.639 287.983 375.673 375.673 414.437 463.414 504.668 
439.172 426.496 394.604 376.807 336.364 349.214 358.01 394.97 394.97 
379.108 459.615 410.187 311.7 373.436 370.643 393.629 361.88 368.947 
366.365 326.048 349.238 342.233 397.151 424.25 468.048 413.524 465.722 
416.042 360.064 401.281 401.281 426.325 510.935 517.717 476.736 425.913 
506.405 346.933 314.784 269.142 267.685 262.849 278.586 323.708 349.712 
382.042 418.247 404.262 376.882 330.914 334.663 357.789 356.317 355.276 
360.919 350.27 319.911 319.911 311.709 312.924 330.668 340.075 311.793 
351.988 345.393 299.081 286.98 290.061 320.409 340.436 405.752 389.283 
360.177 336.142 356.571 331.99 331.262 436.509 335.667 329.813 350.178 
370.749 300.952 436.382 405.758 435.807 464.819 474.862 458.21 465.929 
431.659 464.004 470.806 443.104 375.138 395.984 425.125 444.946 478.492 
454.752 482.041 505.011 481.929 468.871 504.834 438.395 438.395 429.183 
420.856 415.65 421.143 422.123 389.712 379.084 317.917 296.155 260.147 
287.565 290.327 287.15 302.208 318.13 293.946 339.591 301.017 327.347 
357.736 386.011 386.011 398.086 325.751 330.785 324.17 335.527 335.527 
338.813 337.771 349.803 333.245 350.502 350.512 383.462 383.462 413.863 
477.739 459.648 389.57 397.966 381.37 387.139 397.399 419.834 407.481 
410.263 374.193 363.174 335.431 352.741 343.305 402.026 438.709 608 
683.692 716.35 608.742 583.487 514.48 427.997 208.997 486.206 507.302 
471.985 421.607 421.607 409.205 411.829 409.225 689.29 496.486 496.486 
468.668 422.615 407.331 343.608 312.919 341.977 374.056 382.171 365.928 
351.076 335.387 348.155 377.215 303.35 272.182 403.821 229.879 256.246 
334.173 377.744 336.556 406.094 365.912 310.933 332.241 299.072 306.515 
254.748 
FIELD FieldData 7
DY_minmax 1 523 double
0.5917 0.499483 0.22369 0.132907 0.150114 0.721256 0.541911 0.436838 0.108471 
0.376863 0.337775 1 0.382579 0.35569 0.791934 0 0.634184 0.404951 
0.527947 0.324181 0.361631 0.396923 0.44522 0.322032 0.346847 0.275947 0.233112 
0.510072 0.308166 0.299396 0.28672 0.102851 0.389322 0.495293 0.337459 0.153154 
0.0981539 0.215223 0.386556 0.243608 0.301167 0.262543 0.269582 0.0599757 0.48538 
0.376856 0.44538 0.333445 0.33524 0.317983 0.337953 0.160684 0.296089 0.206479 
0.650425 0.57528 0.530852 0.558073 0.558073 0.476261 0.519941 0.361925 0.396303 
0.439145 0.543426 0.491205 0.491205 0.412422 0.412422 0.353531 0.25814 0.311205 
0.315174 0.174468 0.215276 0.197309 0.148986 0.182313 0.254169 0.305067 0.336873 
0.241737 0.31883 0.312841 0.243136 0.218908 0.278115 0.240881 0.350299 0.416659 
0.411028 0.338512 0.363827 0.364014 0.195431 0.165863 0.19727 0.356175 0.415567 
0.457171 0.271403 0.273578 0.306588 0.455296 0.572362 0.508852 0.599691 0.599691 
0.546732 0.611634 0.611634 0.572327 0.541351 0.61465 0.67218 0.644402 0.632554 
0.618972 0.591665 0.515353 0.547443 0.57597 0.505269 0.52558 0.423116 0.401803 
0.459367 0.391699 0.347718 0.370525 0.308348 0.333963 0.333963 0.257304 0.286462 
0.230886 0.185586 0.185586 0.204994 0.145529 0.170508 0.126133 0.131033 0.131033 
0.100224 0.0841764 0.164478 0.238897 0.258602 0.262637 0.306173 0.331294 0.416724 
0.157793 0.165478 0.193395 0.328799 0.285064 0.269106 0.291254 0.295521 0.329031 
0.336661 0.287466 0.256829 0.364895 0.309997 0.387442 0.365854 0.371659 0.448023 
0.400657 0.435685 0.357415 0.423062 0.423062 0.396664 0.394544 0.48538 0.266377 
0.352326 0.475852 0.327498 0.176012 0.138957 0.193157 0.134579 0.113421 0.0896153 
0.272893 0.236683 0.264777 0.257166 0.215223 0.202399 0.228172 0.214533 0.0981539 
0.23045 0.201119 0.2038 0.222974 0.182871 0.252554 0.188802 0.173838 0.132138 
0.0738206 0.191992 0.189714 0.177734 0.135056 0.240304 0.257326 0.21851 0.182629 
0.166815 0.184211 0.212048 0.171309 0.259214 0.229366 0.134141 0.166592 0.181876 
0.25889 0.199955 0.133348 0.175773 0.100364 0.366408 0.336182 0.303298 0.273017 
0.258621 0.248846 0.291725 0.35091 0.317523 0.311217 0.289921 0.330564 0.297959 
0.324815 0.303294 0.322195 0.366421 0.361373 0.433323 0.377119 0.427145 0.383851 
0.305483 0.406901 0.382419 0.345067 0.310128 0.310128 0.246577 0.284366 0.113288 
0.151541 0.129248 0.207675 0.267344 0.204568 0.166022 0.167452 0.299015 0.329632 
0.371489 0.358683 0.304684 0.259727 0.255881 0.254066 0.256631 0.266781 0.280019 
0.312494 0.336024 0.286531 0.245111 0.340481 0.242052 0.15198 0.219174 0.262836 
0.246634 0.288019 0.267646 0.19608 0.258347 0.249262 0.326318 0.295502 0.295502 
0.267341 0.186632 0.181333 0.124172 0.158285 0.137737 0.160484 0.104682 0.183446 
0.205013 0.278353 0.225083 0.198672 0.3466 0.3466 0.411994 0.494615 0.564208 
0.453719 0.432336 0.378536 0.348512 0.280287 0.301965 0.316804 0.379153 0.379153 
0.352395 0.488206 0.404823 0.238681 0.342826 0.338115 0.376891 0.323332 0.335254 
0.330897 0.262886 0.302005 0.290189 0.382832 0.428547 0.502433 0.410453 0.498507 
0.414701 0.320268 0.3898 0.3898 0.432048 0.57478 0.586221 0.517087 0.431353 
0.567138 0.298117 0.243883 0.166888 0.16443 0.156272 0.182819 0.258937 0.302806 
0.357344 0.418421 0.394828 0.348639 0.271094 0.277418 0.316431 0.313948 0.312191 
0.321711 0.303747 0.252532 0.252532 0.238696 0.240746 0.27068 0.286549 0.238838 
0.306645 0.295519 0.217392 0.19698 0.202178 0.253373 0.287156 0.397341 0.369559 
0.320459 0.279913 0.314376 0.272909 0.27168 0.449228 0.279112 0.269236 0.303591 
0.338294 0.220549 0.449013 0.397352 0.448044 0.496985 0.513926 0.485836 0.498857 
0.441046 0.495611 0.507084 0.460353 0.345698 0.380863 0.430022 0.46346 0.52005 
0.480002 0.526038 0.564787 0.525848 0.50382 0.564488 0.452409 0.452409 0.436869 
0.422821 0.414039 0.423306 0.424959 0.370283 0.352354 0.249169 0.212457 0.151714 
0.197967 0.202625 0.197267 0.222668 0.249529 0.208731 0.285731 0.220659 0.265077 
0.316342 0.364039 0.364039 0.38441 0.262385 0.270877 0.259718 0.278876 0.278876 
0.28442 0.282662 0.302959 0.275026 0.304138 0.304154 0.359739 0.359739 0.411024 
0.518781 0.488261 0.370044 0.384207 0.356211 0.365942 0.38325 0.421098 0.400259 
0.404951 0.344103 0.325516 0.278714 0.307916 0.291997 0.391057 0.452938 0.738523 
0.866212 0.921305 0.739775 0.697171 0.58076 0.434868 0.065426 0.533064 0.568651 
0.509074 0.424089 0.424089 0.403167 0.407593 0.403201 0.875655 0.550406 0.550406 
0.503478 0.425789 0.400005 0.292509 0.240737 0.289757 0.343872 0.357562 0.33016 
0.305106 0.278639 0.300179 0.349201 0.224595 0.172016 0.394084 0.100653 0.145134 
0.276591 0.350093 0.280612 0.397919 0.330135 0.237387 0.273332 0.217379 0.229935 
0.142605 
WidthEq 1 523 double
1.60078 1.61604 2.76405 4.1501 3.91611 1.57905 1.36372 1.96365 4.21963 
2.45064 1.92592 1.2484 3.03997 2.33083 1 3.03849 1.11419 2.17312 
2.20994 3.30551 1.59672 2.10013 3.41206 3.04827 3.44464 2.60672 3.44383 
1.2537 3.90343 3.11113 3.74017 4.34943 3.52261 1.59831 2.59401 3.94777 
4.83504 3.72307 2.40927 3.74098 2.40365 2.96896 3.08502 3.58592 1.43159 
1.65325 2.2052 2.62396 1.64759 2.32303 2.4636 1.97213 1.95146 2.76924 
1.41717 1.26667 1.46716 1.56298 1.56298 1.59856 1.51348 1.81707 1.75818 
1.65823 1.60039 1.78987 1.78987 1.99442 1.99442 2.08162 2.1403 2.10366 
2.31557 2.89586 2.79899 2.99521 3.32968 3.45563 2.64725 2.50928 2.57076 
2.58712 2.41407 2.62697 2.67258 2.63502 2.79316 2.85693 2.40591 2.05272 
2.21824 2.39863 2.2924 2.30402 2.81128 3.71148 3.42164 2.48272 2.24926 
2.02113 2.80012 2.53115 2.38574 1.85901 1.60502 1.62968 1.45678 1.45678 
1.51398 1.62046 1.62046 1.71801 1.75793 1.6949 1.6708 1.7923 1.80771 
1.88073 1.89328 1.96369 1.94666 1.9044 1.95125 1.85583 1.95722 2.02718 
1.93973 2.09522 2.20043 2.07985 2.2831 2.21806 2.21806 2.17736 2.17044 
2.30586 2.46166 2.46166 2.46258 2.57263 2.62813 2.7397 2.75133 2.75133 
2.68883 2.63612 2.39443 1.99209 3.14928 3.15762 2.84767 2.74168 2.92229 
3.93562 3.97494 3.84249 2.63403 2.80287 2.94603 2.98549 3.13561 3.06643 
3.05573 3.41531 3.71972 2.52879 2.77684 2.37199 2.29119 2.1343 1.88667 
1.84675 1.83371 1.80099 1.76065 1.76065 1.69108 1.79778 1.43159 2.00075 
2.18605 2.14627 2.93197 3.59952 3.74876 2.94253 3.57059 3.48827 3.86132 
3.27725 3.49368 3.0045 3.67997 3.72307 3.83411 4.00811 4.40543 4.83504 
3.96056 4.31764 4.44412 4.37211 4.47634 3.98804 3.89704 4.39381 4.56936 
5.02928 3.68241 3.7536 3.92781 4.26588 4.06941 2.96295 3.20708 3.77207 
4.22942 4.23896 4.25153 4.10951 3.73614 3.82758 4.36692 4.06754 3.66997 
3.36221 3.47866 4.1979 4.02673 4.57943 3.81101 4.09156 4.26015 4.37134 
3.96971 3.8775 3.13886 2.42471 2.5113 2.53345 2.72239 2.70519 2.913 
2.83075 2.8069 2.71211 2.6636 2.46692 2.13585 1.90363 1.79598 1.6572 
2.14475 3.1224 3.1407 3.22584 3.32685 3.32685 3.78409 3.66591 3.95512 
3.61588 4.32339 3.58472 3.2045 3.89333 4.2268 4.31841 3.51307 3.35769 
3.09551 3.13458 3.62012 3.66718 3.52561 3.48096 3.56995 3.56843 3.5678 
3.51763 3.62874 3.84662 3.29887 2.89067 3.16808 3.8723 3.80267 3.09798 
2.88562 2.53861 2.48053 2.54596 2.46004 2.53214 2.51783 2.64658 2.64658 
2.81528 2.94176 3.10639 3.47096 3.30735 3.42227 3.45421 3.64937 3.30184 
2.89533 3.04573 3.47393 4.12604 3.90491 3.90491 3.59179 3.27152 3.09689 
2.65138 2.74896 2.83789 3.23835 3.09876 2.79242 2.65965 2.45816 2.45816 
2.40633 2.22495 2.45262 2.83131 2.73105 3.04654 3.17037 3.51194 3.3897 
3.66245 4.09446 4.13876 3.90067 3.37338 3.06336 2.70639 2.92685 2.66477 
2.9797 3.28223 3.14356 3.14356 2.82859 2.22159 2.23703 2.9 3.58108 
1.30765 2.11713 2.53384 2.92586 3.04739 3.02082 2.83432 2.63216 2.43283 
2.52059 2.85721 3.0463 3.10872 3.56918 3.48007 3.26089 3.13833 2.90833 
2.8771 2.79213 2.87127 2.87127 2.97557 3.02323 2.88244 2.9909 3.60316 
2.70805 2.81648 3.13943 3.37522 3.24704 2.79577 2.72137 2.33133 2.44753 
2.85265 2.62824 2.54087 2.49137 2.10964 2.63788 3.26771 3.62609 3.57804 
3.3213 3.63959 3.41108 3.33006 3.15112 3.0746 2.77182 2.6712 2.47392 
2.55299 2.2163 2.25894 2.16701 1.9681 1.94698 1.88893 1.98361 2.03717 
2.07604 1.83565 1.8724 1.62385 1.64572 1.46444 1.72313 1.72313 2.06318 
2.21209 2.29939 2.69802 2.76493 2.78316 2.74744 2.86594 2.99178 3.01545 
2.88742 2.64651 2.60414 2.57903 2.51759 2.50989 2.39807 2.53621 2.43216 
2.28741 2.07515 2.07515 2.08586 2.13995 2.18556 2.12567 2.0866 2.0866 
1.96722 1.97362 2.05756 2.24184 2.25788 2.32737 2.34822 2.34822 2.18326 
1.62823 2.7674 3.55356 3.67891 3.76632 3.52176 3.33678 3.28558 3.27262 
2.17312 2.08342 2.01785 2.09232 2.30815 2.32907 2.05964 2.00283 1.28497 
1.41565 1.55333 1.8282 1.8559 1.99231 2.34401 4.09538 1.70804 1.73715 
1.88837 2.07632 2.07632 2.03043 1.56602 2.73879 1.28606 2.15595 2.15595 
2.3503 2.69879 2.82206 3.03718 3.06933 2.84753 2.66926 2.62333 2.64 
2.46933 2.40478 2.28074 1.97153 3.19394 3.79868 2.25823 4.38805 3.30268 
2.77836 2.47353 2.61965 2.41644 2.71398 3.18104 2.99033 3.11544 2.82746 
4.21574 