# vtk DataFile Version 3.0
vtk output
ASCII
DATASET POLYDATA
POINTS 922 float
1.14365 0.319535 1.43647 1.36095 0.442099 1.45704 1.88787 -0.262765 1.6067 
5.59194 0.29246 1.51065 5.70343 0.0590095 1.52787 1.73965 -0.304751 1.41147 
6.75604 0.00509896 1.19652 6.71492 0.425805 1.12315 1.54432 -0.686795 1.24422 
2.59402 -1.36214 1.02852 2.63342 -1.03824 1.25734 3.0142 -0.230959 1.18718 
5.23849 -0.34523 1.16548 5.48125 -0.384811 1.16529 1.85622 -1.26877 0.918771 
2.65344 -1.67895 1.10789 2.454 -1.06677 0.860798 2.64308 0.522975 0.630083 
5.17048 -0.913541 0.810768 1.30939 -1.66663 0.724233 1.31015 1.09039 0.502658 
2.44125 -1.60278 0.703387 6.76205 -1.23919 0.614177 2.59007 0.840391 0.304314 
2.60979 0.961371 0.294317 5.66352 -1.25042 0.429668 1.44843 -1.80499 0.231762 
2.20934 -1.64759 0.30888 2.42982 0.775532 0.111087 4.23722 -0.214652 0.165568 
4.29888 0.0623871 0.00867556 5.83206 1.31373 0.0205987 7.45475 -0.0740206 0.00926223 
3.19426 -0.955281 0.038904 4.79244 0.746431 -0.120041 4.89743 0.77899 -0.124116 
7.31814 -0.88249 -0.0242017 0.376294 1.63579 -0.765632 2.40149 1.36819 -0.337476 
4.38483 -0.682855 -0.267074 6.05368 -1.58985 -0.157898 7.45007 -0.224976 -0.279537 
-0.000205744 -1.28707 -0.291408 1.47479 -2.02218 -0.453474 1.63997 -1.92708 -0.262747 
7.33565 -0.620217 -0.44685 7.11619 0.63268 -0.544491 -0.488244 -0.304919 -0.564225 
-0.563532 0.303495 -0.612075 3.04486 -1.10453 -0.549019 4.51167 0.0969802 -0.665943 
4.75277 0.375945 -0.921037 7.38871 -0.446626 -0.662201 -0.586018 0.166495 -0.801416 
3.21955 -0.0317239 -0.838323 4.51531 -0.491382 -0.819374 7.199 -0.233453 -0.877362 
5.24381 0.686864 -1.20659 2.622 1.1975 -1.46391 4.95611 0.0744594 -1.2723 
0.475934 -1.77546 -1.32898 4.75975 -0.0590299 -1.45951 5.22198 -1.35151 -1.36205 
5.45557 -0.834767 -1.60749 5.46248 0.4309 -1.7093 5.72163 0.338968 -1.70551 
6.57104 -0.718571 -1.63231 2.32132 1.19171 -2.32882 1.39258 -1.75338 -2.27991 
1.74775 1.34327 -2.5337 2.71245 0.0765931 -2.64596 1.68896 -1.46206 -2.70877 
1.89895 -1.39694 -2.71691 0.978748 -0.923732 -3.34416 1.07759 0.600175 -3.468 
1.54314 -0.518973 -3.38452 1.59687 -0.495573 -3.29797 1.64998 -0.475733 -3.25571 
1.70227 -0.46064 -3.27251 1.75415 -0.44792 -3.31884 1.80603 -0.4352 -3.36518 
1.85822 -0.4207 -3.38936 1.91061 -0.405014 -3.39878 1.96321 -0.388141 -3.39344 
2.01601 -0.370081 -3.37333 2.06909 -0.350136 -3.33107 2.12187 -0.327377 -3.27418 
2.17231 -0.296249 -3.21049 2.22118 -0.260104 -3.14719 2.2784 -0.251556 -3.08921 
2.33046 -0.22744 -3.03985 2.3725 -0.172221 -3.00028 2.41412 -0.114781 -2.95345 
2.46318 -0.0810504 -2.90481 2.51521 -0.0568385 -2.85546 2.56473 -0.0255491 -2.81407 
2.60988 0.0206593 -2.76639 2.65964 0.0530315 -2.71023 1.05471 0.535648 -3.4625 
1.04454 0.47506 -3.45748 1.01992 0.409993 -3.45191 0.9875 0.342506 -3.44604 
0.962981 0.277469 -3.44047 0.954563 0.217426 -3.43553 0.941211 0.155852 -3.4304 
0.932793 0.0958086 -3.42546 0.908169 0.0307395 -3.41988 0.873904 -0.0373192 -3.41394 
0.83787 -0.105812 -3.40793 0.801188 -0.172606 -3.40206 0.76153 -0.22989 -3.3969 
0.717353 -0.272745 -3.39285 0.677695 -0.330029 -3.38769 0.641013 -0.396822 -3.38181 
0.604873 -0.465348 -3.37581 0.568766 -0.533978 -3.36979 0.532762 -0.602015 -3.35639 
0.496963 -0.668865 -3.32822 0.461577 -0.733903 -3.27791 0.428134 -0.797776 -3.22029 
0.405967 -0.858714 -3.1705 0.409339 -0.913417 -3.14385 0.423979 -0.965748 -3.13242 
0.442115 -1.01756 -3.1285 0.469984 -1.06579 -3.11758 0.512518 -1.10834 -3.09246 
0.541117 -1.15298 -3.03725 0.56212 -1.19828 -2.95957 0.589377 -1.23996 -2.85999 
0.619602 -1.28072 -2.76051 0.609641 -1.33338 -2.6521 0.578666 -1.39312 -2.55025 
0.5443 -1.45335 -2.44089 0.51147 -1.5131 -2.33157 0.488485 -1.56868 -2.20789 
0.481906 -1.6186 -2.07743 0.472345 -1.66848 -1.93456 0.477973 -1.71129 -1.77017 
0.485094 -1.74654 -1.56677 1.06161 0.654899 -3.44245 1.04584 0.710809 -3.40213 
1.03016 0.767313 -3.35443 1.0145 0.823256 -3.31411 1.00036 0.878551 -3.28863 
0.995868 0.937399 -3.25614 1.00624 1.0031 -3.19468 1.00266 1.06673 -3.10312 
0.991293 1.12793 -3.01127 0.987411 1.18978 -2.94187 0.997681 1.25433 -2.89517 
0.995341 1.31552 -2.8406 0.993102 1.37788 -2.77126 1.00214 1.44541 -2.6802 
0.987086 1.50604 -2.58081 0.946497 1.56043 -2.45828 0.907449 1.61642 -2.32103 
0.852232 1.66841 -2.16836 0.787847 1.71498 -2.02257 0.725174 1.74907 -1.88323 
0.670261 1.75616 -1.7567 0.618592 1.75013 -1.65144 0.566987 1.73929 -1.58298 
0.515315 1.72746 -1.52308 0.464787 1.71706 -1.40016 0.417889 1.69536 -1.14136 
1.13818 0.590585 -3.46807 1.1903 0.608093 -3.4702 1.24849 0.606173 -3.47085 
1.30755 0.601494 -3.4713 1.36869 0.590162 -3.47124 1.42534 0.593154 -3.47226 
1.48207 0.596835 -3.46591 1.54297 0.589033 -3.44384 1.5996 0.597623 -3.40072 
1.65282 0.618056 -3.35108 1.70251 0.649739 -3.30229 1.74755 0.695345 -3.26199 
1.79718 0.727228 -3.21322 1.84938 0.751833 -3.15647 1.89976 0.783162 -3.09279 
1.94815 0.821737 -3.02225 2.00206 0.842722 -2.95036 2.04694 0.892538 -2.88067 
2.08918 0.948944 -2.82633 2.13847 0.983756 -2.76292 2.19088 1.01045 -2.68404 
2.24072 1.04902 -2.57635 2.28272 1.11445 -2.45585 1.04286 -0.944564 -3.34337 
1.09949 -0.941476 -3.34441 1.15262 -0.927243 -3.34629 1.20573 -0.912905 -3.34818 
1.26181 -0.908075 -3.34935 1.32298 -0.919503 -3.34928 1.38316 -0.927761 -3.34945 
1.44785 -0.950439 -3.34853 1.512 -0.971376 -3.34773 1.56862 -0.968289 -3.34877 
1.62176 -0.954055 -3.35065 1.67493 -0.939019 -3.34516 1.73071 -0.930468 -3.32433 
1.78844 -0.924455 -3.27359 1.83745 -0.887822 -3.20289 1.88823 -0.855019 -3.11706 
1.94178 -0.832909 -3.04525 1.99855 -0.823822 -2.99475 2.0601 -0.832782 -2.96515 
2.12014 -0.836925 -2.93593 2.1825 -0.846079 -2.88403 2.24193 -0.849174 -2.81028 
2.29708 -0.869643 -2.7128 2.33903 -0.90475 -2.61394 2.38656 -0.939466 -2.50776 
2.42906 -0.976305 -2.40877 2.48732 -1.00579 -2.30317 2.55225 -1.02278 -2.19865 
2.61457 -1.02352 -2.08055 2.68106 -1.03631 -1.9541 2.74763 -1.04842 -1.82028 
2.80979 -1.0455 -1.68017 2.87362 -1.04645 -1.5249 2.93437 -1.04127 -1.34779 
2.98898 -1.05449 -1.15426 3.02028 -1.08291 -0.951743 3.03722 -1.10534 -0.749512 
1.84645 -1.41322 -2.71488 1.79395 -1.4295 -2.71284 1.74146 -1.44578 -2.7108 
1.80222 1.36522 -2.4396 1.85977 1.37365 -2.3742 1.92433 1.35508 -2.34387 
1.98915 1.3329 -2.33556 2.05004 1.3233 -2.32819 2.11558 1.29976 -2.31235 
2.18409 1.26671 -2.29578 2.25284 1.23015 -2.30123 1.45803 -1.7665 -2.18315 
1.51561 -1.75818 -2.11773 1.56983 -1.74281 -2.08256 1.62704 -1.73696 -2.04666 
1.69268 -1.7544 -1.97929 1.7624 -1.78022 -1.87413 1.83289 -1.8067 -1.75406 
1.90338 -1.83317 -1.63401 1.97309 -1.85899 -1.52885 2.03915 -1.87406 -1.43195 
2.09697 -1.86465 -1.35174 2.15181 -1.84573 -1.27228 2.20966 -1.83552 -1.18471 
2.27474 -1.84561 -1.07333 2.33694 -1.84561 -0.955279 2.38704 -1.80785 -0.847529 
2.43782 -1.77504 -0.761686 2.4908 -1.75109 -0.69003 2.54415 -1.72927 -0.625634 
2.59699 -1.70581 -0.561371 2.64682 -1.67274 -0.49783 2.6917 -1.62291 -0.428141 
2.73819 -1.57731 -0.350691 2.78266 -1.52436 -0.266388 2.82844 -1.47741 -0.196471 
2.86874 -1.41611 -0.149935 2.90379 -1.3487 -0.14097 2.92838 -1.28499 -0.1613 
2.93849 -1.23037 -0.217852 2.96565 -1.18314 -0.303775 3.00647 -1.14985 -0.418496 
2.37569 1.21856 -2.19796 2.43076 1.2443 -2.05711 2.48946 1.25903 -1.89312 
2.55531 1.24212 -1.69201 6.51855 -0.734851 -1.63028 6.46608 -0.751236 -1.62823 
6.41419 -0.769457 -1.62605 6.36573 -0.799523 -1.63039 6.32454 -0.854694 -1.64768 
6.28305 -0.911645 -1.68712 6.23397 -0.945271 -1.73576 6.18146 -0.967052 -1.77787 
6.12869 -0.985216 -1.79797 6.0762 -1.0015 -1.79594 6.0239 -1.01659 -1.77914 
5.97185 -1.0306 -1.74756 5.92037 -1.04645 -1.71584 5.87252 -1.07295 -1.67589 
5.83205 -1.12397 -1.6415 5.79159 -1.17499 -1.60711 5.74353 -1.20268 -1.58192 
5.69205 -1.21853 -1.5502 5.64023 -1.23146 -1.50386 5.589 -1.24532 -1.45 
5.54009 -1.26755 -1.40295 5.49256 -1.29598 -1.37027 5.43653 -1.2973 -1.33966 
5.38509 -1.31236 -1.30057 5.33982 -1.34894 -1.27471 5.28641 -1.36506 -1.29497 
5.65687 0.361847 -1.70645 5.59608 0.372056 -1.70642 5.53075 0.396771 -1.7075 
5.75866 0.412939 -1.64508 5.79569 0.486908 -1.58465 5.83272 0.560879 -1.52422 
5.86975 0.634849 -1.46379 5.90681 0.708714 -1.40336 5.94448 0.780637 -1.34277 
5.98624 0.839483 -1.28119 6.03898 0.862347 -1.2243 6.10016 0.856421 -1.18008 
6.16065 0.849942 -1.15811 6.22605 0.825915 -1.14965 6.29436 0.791682 -1.14785 
6.36321 0.755716 -1.14592 6.4321 0.719645 -1.14397 6.50098 0.683575 -1.14203 
6.56987 0.647505 -1.14009 6.63875 0.611434 -1.13815 6.70763 0.575364 -1.1362 
6.77659 0.539991 -1.12688 6.84528 0.508236 -1.09556 6.91092 0.490792 -1.02819 
6.96898 0.502196 -0.925854 7.02322 0.528562 -0.802388 7.07346 0.568609 -0.672521 
5.79051 0.302898 -1.70357 5.8594 0.266827 -1.70162 5.92828 0.230757 -1.69968 
5.99717 0.194686 -1.69774 6.06605 0.158616 -1.6958 6.13494 0.122545 -1.69385 
6.20379 0.0865794 -1.69192 6.2721 0.0523459 -1.69012 6.33743 0.0276213 -1.68904 
6.39825 0.017326 -1.68905 6.46358 -0.00683769 -1.68059 6.53025 -0.0404562 -1.66395 
6.58804 -0.0781708 -1.63943 6.63118 -0.121099 -1.62171 6.68704 -0.160086 -1.60449 
6.74297 -0.198374 -1.57989 6.78596 -0.237093 -1.53278 6.8407 -0.260494 -1.47221 
6.90009 -0.263496 -1.39847 6.96232 -0.268534 -1.31717 7.02031 -0.257829 -1.22223 
7.07837 -0.246434 -1.1199 7.14063 -0.246628 -1.00184 5.42576 0.364212 -1.70343 
5.3861 0.306936 -1.69828 5.34193 0.264072 -1.69422 5.30234 0.207486 -1.68169 
5.26536 0.144415 -1.65381 5.22567 0.0927358 -1.60452 5.17805 0.0673225 -1.54978 
5.12685 0.0533585 -1.49593 5.0745 0.043069 -1.44235 5.0189 0.0459141 -1.36749 
5.43451 0.489205 -1.58725 5.3919 0.542461 -1.47203 5.35286 0.596495 -1.37178 
5.30069 0.648127 -1.27859 5.41063 -0.874277 -1.59626 5.3539 -0.874262 -1.57317 
5.29552 -0.866223 -1.52842 5.2351 -0.850736 -1.4768 5.17902 -0.850064 -1.43148 
5.1221 -0.84943 -1.40845 5.05748 -0.826063 -1.402 4.98978 -0.793772 -1.40365 
4.92468 -0.768526 -1.39734 4.86602 -0.755879 -1.37525 4.81278 -0.723473 -1.32509 
[...]
POINT_DATA 922
SCALARS DY_raw double
LOOKUP_TABLE default
207.197 198.938 250.495 162.289 180.476 227.735 174.575 193.606 183.709 
173.214 208.159 194.152 329.286 192.344 159.759 207.292 209.69 164.527 
177.416 288.066 136.833 209.189 189.508 183.226 180.342 125.212 213.025 
165.146 196.434 228.915 252.896 314.719 161.72 219.007 166.098 151.012 
176.508 188.55 161.38 165.406 155.012 198.784 202.611 181.75 174.291 
211.893 154.004 208.921 136.682 163.768 192.439 214.641 181.394 137.384 
130.021 210.395 206.348 175.579 159.502 170.28 149.055 197.696 183.882 
159.483 201.971 184.332 175.441 127.938 192.163 161.889 204.387 149.931 
145.251 270.059 124.826 190.804 226.755 220.924 212.676 196.927 204.51 
182.863 182.863 167.291 187.59 193.164 192.611 222.28 190.203 181.523 
189.574 190.827 199.07 217.516 245.966 245.966 237.437 196.399 124.826 
124.954 146.959 146.959 176.571 198.582 198.582 205.474 221.893 240.001 
233.086 211.955 205.391 214.281 188.615 180.641 196.631 148.834 148.834 
118.47 121.633 140.949 135.483 133.241 133.241 120.761 120.761 120.593 
140.038 155.202 158.334 168.848 206.849 179.715 167.299 171.15 147.631 
160.487 155.086 147.464 160.856 137.106 137.106 144.602 134.243 140.132 
135.42 137.665 145.324 129.509 129.094 134.983 123.1 133.92 154.183 
163.935 178.907 163.311 154.814 144.827 150.688 155.879 149.444 146.844 
144.85 174.243 224.035 123.243 139.245 139.245 143.09 152.356 152.356 
143.928 150.567 150.567 136.974 148.711 147.486 138.232 168.601 148.605 
137.097 144.116 135.09 128.986 143.626 130.35 152.466 141.644 207.66 
207.66 191.453 169.879 169.879 188.937 183.966 200.618 199.45 199.45 
177.402 163.589 171.823 162.555 161.778 170.713 165.557 171.72 171.72 
167.399 180.592 187.603 186.039 179.186 224.36 213.27 196.848 173.41 
178.298 175.905 165.518 158.823 165.389 163.51 146.643 196.308 175.21 
145.251 149.616 149.931 162.136 172.917 133.075 120.61 123.401 134.835 
154.566 147.888 169.656 159.485 151.868 132.871 137.063 151.125 146.24 
170.816 164.095 138.156 146.012 133.877 140.109 162.659 147.684 156.636 
178.591 163.456 197.337 195.74 173.989 183.915 207.811 211.821 258.574 
263.597 245.11 222.602 202.154 189.87 171.343 141.984 139.083 136.809 
159.289 235.221 243.469 243.469 261.599 247.205 225.519 200.389 181.811 
166.927 166.927 191.926 188.288 195.558 186.351 191.255 179.421 197.087 
184.53 170.508 175.048 188.896 187.498 205.078 227.005 225.098 229.798 
184.332 194.177 197.329 183.783 157.432 157.709 197.398 169.385 155.743 
168.325 154.117 139.02 152.545 155.855 171.032 188.588 218.603 223.472 
218.361 208.573 208.751 207.128 199.078 234.61 211.629 171.129 190.284 
190.613 226.06 223.189 265.901 236.32 231.895 238.032 238.336 187.811 
164.139 156.658 149.036 161.997 152.196 152.196 158.878 148.262 153.447 
165.448 186.516 191.982 184.083 201.142 206.85 224.773 231.714 215.426 
208.937 179.262 176.583 184.643 164.409 169.526 204.105 184.026 163.24 
162.113 172.534 162.687 160.798 170.721 183.144 175.931 177.793 154.278 
154.959 142.81 152.905 180.97 223.231 209.979 195.921 202.978 202.978 
178.412 144.345 140.116 147.848 164.965 169.845 169.845 186.821 198.162 
198.162 193.548 193.548 182.615 209.773 209.773 219.702 205.608 225.868 
197.001 183.512 191.824 162.279 155.29 146.863 138.691 148.124 144.052 
155.611 174.9 192.607 211.193 210.999 211.099 187.896 187.896 167.58 
150.827 162.352 179.262 217.193 207.446 196.427 174.28 158.66 167.577 
160.793 172.008 169.935 170.147 169.532 176.711 150.34 124.789 149.218 
189.216 153.563 142.736 175.588 181.604 154.325 155.465 195.419 196.777 
197.34 171.112 191.142 178.336 158.269 135.748 133.541 141.991 204.025 
211.629 167.497 214.338 210.822 207.246 178.318 163.228 224.842 224.842 
230.259 196.286 203.805 201.778 205.122 193.55 203.236 171.386 136.646 
188.573 210.755 164.125 174.5 239.622 189.472 169.754 219.606 205.903 
220.301 166.263 174.398 164.816 144.899 142.591 125.799 119.301 114.751 
124.095 122.831 134.443 149.277 166.986 201.582 166.427 160.499 173.95 
155.762 161.73 156.976 154.777 149.439 159.426 172.099 161.828 165.11 
203.912 209.459 222.902 200.772 187.646 162.924 148.095 147.653 159.559 
159.443 155.133 157.088 159.027 165.166 171.58 183.127 167.202 177.453 
188.762 190.322 190.322 183.866 170.042 188.201 185.972 196.56 199.878 
236.315 234.318 239.448 151.195 161.703 200.668 175.219 192.287 176.031 
163.623 172.447 173.808 186.472 208.484 204.421 211.576 196.79 165.361 
160.543 160.543 180.768 190.589 203.386 218.346 245.3 283.968 162.021 
156.766 175.243 186.213 178.826 194.706 210.819 225.926 227.805 219.722 
202.526 189.598 188.527 203.84 185.525 187.01 149.441 149.441 151.405 
168.829 172.398 172.398 195.699 215.233 202.081 201.325 209.667 175.662 
175.662 180.75 165.101 182.379 192.276 167.055 160.08 160.08 176.982 
159.357 147.474 154.521 199.032 211.26 203.534 187.077 182.765 204.99 
205.452 211.141 211.141 234.19 213.305 159.793 173.531 170.952 165.557 
165.557 164.388 170.954 189.358 198.098 173.413 184.486 164.837 130.964 
110.345 114.473 122.929 111.849 124.19 133.592 136.639 154.933 175.935 
152.834 193.114 195.032 149.515 142.741 189.528 171.948 175.231 180.424 
180.15 165.833 174.642 189.464 180.661 166.223 163.644 163.644 176.824 
188.227 188.227 174.203 186.932 189.256 159.261 168.12 169.279 181.067 
202.275 186.185 186.185 150.09 142.925 170.5 165.406 185.601 198.849 
200.564 190.205 199.382 206.918 212.198 196.818 185.848 174.923 166.098 
179.219 205.394 187.77 196.381 207.975 196.928 181.921 163.11 153.027 
146.313 146.313 148.536 180.781 186.087 196.031 200.402 199.178 179.847 
186.017 222.983 227.55 232.525 253.355 222.486 217.358 229.28 266.506 
210.916 182.822 153.825 160.635 160.635 152.649 151.85 167.403 164.975 
171.64 191.454 200.555 215.515 204.001 150.752 170.516 214.058 186.377 
192.131 174.531 126.332 146.625 146.69 142.195 152.521 159.844 135.31 
149.018 156.71 167.375 157.64 167.377 174.332 187.09 166.311 175.485 
150.595 148.008 150.345 155.049 176.374 183.658 212.981 224.404 224.404 
211.786 221.676 209.072 200.484 209.247 209.247 215.617 205.517 205.517 
182.694 169.033 163.942 175.011 166.011 176.892 168.301 168.301 170.778 
193.188 211.259 202.197 183.274 179.995 162.721 171.874 159.84 143.006 
143.006 216.479 222.293 204.104 197.691 143.246 128.744 152.281 162.01 
142.619 167.157 172.278 196.202 204.385 199.374 188.893 182.597 178.656 
199.906 205.373 218.784 207.098 181.866 175.292 178.977 188.418 191.42 
198.012 195.863 200.064 226.405 226.405 244.473 240.059 225.676 225.046 
209.729 189.373 184.647 172.217 172.217 164.191 156.509 153.668 152.918 
166.937 159.183 163.955 183.472 157.85 169.428 174.908 193.028 193.028 
188.926 188.926 186.736 158.622 184.974 184.832 170.406 154.139 154.215 
157.11 164.89 174.075 195.691 218.649 218.649 245.014 256.854 241.855 
236.848 225.116 214.439 176.245 178.769 153.824 230.74 243.781 322.792 
155.204 196.431 186.434 180.692 189.975 188.707 185.025 191.121 189.245 
196.489 179.643 172.229 157.729 187.143 189.04 222.929 212.118 217.996 
246.399 264.346 298.366 257.523 245.601 224.181 205.427 176.067 219.302 
210.299 215.273 191.967 195.088 197.709 173.771 169.117 175.635 175.427 
161.658 172.778 176.453 176.453 163.462 145.789 181.733 177.639 150.539 
158.699 152.426 158.736 168.84 182.05 245.939 225.187 227.121 201.334 
184.126 184.126 178.196 182.767 182.767 178.101 172.728 179.51 185.291 
179.777 174.025 163.4 186.3 
FIELD FieldData 7
DY_minmax 1 922 double
0.442366 0.404642 0.640125 0.237252 0.320321 0.536174 0.293367 0.380292 0.335088 
0.28715 0.446758 0.382784 1 0.374525 0.225697 0.442802 0.453755 0.247476 
0.306345 0.811731 0.120986 0.451463 0.361571 0.332879 0.319706 0.0679071 0.468987 
0.250302 0.393206 0.541563 0.651093 0.933466 0.234654 0.496307 0.254648 0.185744 
0.302197 0.357199 0.233101 0.251489 0.204013 0.403943 0.421421 0.32614 0.292069 
0.463815 0.199412 0.45024 0.120294 0.244007 0.374962 0.476367 0.324514 0.123499 
0.0898719 0.456972 0.438489 0.297952 0.224521 0.273751 0.176805 0.398972 0.335877 
0.224436 0.418498 0.337933 0.297322 0.0803559 0.373701 0.235426 0.429534 0.180808 
0.159431 0.729487 0.0661413 0.367494 0.531696 0.505066 0.467391 0.395457 0.430093 
0.331221 0.331221 0.260099 0.352812 0.378272 0.375748 0.511256 0.364749 0.325103 
0.361874 0.367599 0.405246 0.4895 0.619442 0.619442 0.580485 0.393046 0.0661413 
0.0667259 0.167233 0.167233 0.302483 0.403019 0.403019 0.434496 0.509488 0.592197 
0.560612 0.464101 0.434118 0.474721 0.357493 0.321076 0.394108 0.175798 0.175798 
0.0371126 0.0515573 0.139781 0.114819 0.104578 0.104578 0.0475773 0.0475773 0.0468099 
0.135622 0.204885 0.219187 0.267208 0.440779 0.316843 0.260135 0.277722 0.170305 
0.229024 0.204353 0.169541 0.230706 0.122231 0.122231 0.15647 0.109153 0.136053 
0.114529 0.124783 0.159767 0.0875316 0.0856373 0.112533 0.0582601 0.10768 0.200229 
0.244769 0.313155 0.24192 0.20311 0.157495 0.184267 0.207976 0.178582 0.166708 
0.1576 0.291852 0.519271 0.0589108 0.132001 0.132001 0.149562 0.191884 0.191884 
0.153388 0.183711 0.183711 0.121627 0.175237 0.169639 0.127372 0.266081 0.17475 
0.122189 0.15425 0.113021 0.0851448 0.15201 0.0913736 0.192385 0.142959 0.444482 
0.444482 0.370459 0.271921 0.271921 0.358966 0.336262 0.412317 0.406983 0.406983 
0.306282 0.243192 0.280797 0.238466 0.234919 0.275728 0.252179 0.280326 0.280326 
0.260592 0.320849 0.352873 0.345729 0.314428 0.520755 0.470105 0.3951 0.288046 
0.310371 0.299444 0.252 0.221421 0.251411 0.242828 0.165788 0.392631 0.296269 
0.159431 0.17937 0.180808 0.236551 0.285793 0.103822 0.0468871 0.0596319 0.111859 
0.201978 0.171478 0.270902 0.224446 0.189654 0.102889 0.122033 0.186262 0.163952 
0.276199 0.2455 0.127027 0.162907 0.107484 0.135949 0.238941 0.170546 0.211431 
0.311712 0.242585 0.397333 0.390038 0.290693 0.336029 0.445172 0.463488 0.677029 
0.699969 0.615531 0.512729 0.419334 0.363225 0.278608 0.144511 0.13126 0.120876 
0.223548 0.570363 0.608038 0.608038 0.690842 0.625102 0.526051 0.411271 0.326418 
0.258437 0.258437 0.372619 0.356001 0.389206 0.347153 0.369551 0.315503 0.396188 
0.338836 0.274793 0.295529 0.358778 0.352394 0.43269 0.532838 0.524129 0.545593 
0.337933 0.382897 0.397295 0.335426 0.215067 0.216333 0.397612 0.269663 0.207356 
0.264821 0.199928 0.130974 0.192748 0.207864 0.277184 0.35737 0.494462 0.5167 
0.493358 0.448654 0.449466 0.442051 0.405281 0.567575 0.46261 0.277629 0.365117 
0.36662 0.528523 0.515409 0.710494 0.575385 0.555172 0.583204 0.584594 0.353823 
0.245704 0.211535 0.17672 0.23592 0.191154 0.191154 0.221672 0.173184 0.196868 
0.251683 0.347906 0.372873 0.336793 0.414712 0.440784 0.522645 0.554347 0.479954 
0.450315 0.314776 0.30254 0.339352 0.246935 0.270308 0.428242 0.336536 0.241596 
0.236449 0.284045 0.23907 0.230443 0.275763 0.332505 0.29956 0.308068 0.200661 
0.203772 0.148282 0.194391 0.322576 0.515601 0.455076 0.390864 0.423095 0.423095 
0.310893 0.155294 0.135978 0.171296 0.249477 0.271765 0.271765 0.349302 0.4011 
0.4011 0.380024 0.380024 0.33009 0.45413 0.45413 0.499483 0.435111 0.527644 
0.395798 0.334189 0.37215 0.237206 0.205283 0.166797 0.129469 0.172554 0.153958 
0.206753 0.294852 0.375727 0.46062 0.459731 0.460187 0.354211 0.354211 0.26142 
0.184902 0.237541 0.314775 0.488023 0.443506 0.393175 0.292019 0.220679 0.261404 
0.230419 0.281643 0.272175 0.273143 0.270336 0.303125 0.182674 0.0659719 0.177551 
0.360238 0.197399 0.147947 0.297994 0.325472 0.200877 0.206086 0.388569 0.394773 
0.397348 0.27755 0.369038 0.310546 0.218894 0.116026 0.10595 0.144544 0.427878 
0.462611 0.261039 0.474981 0.458925 0.442591 0.310462 0.241542 0.522959 0.522959 
0.547701 0.39253 0.426872 0.417618 0.43289 0.380034 0.424273 0.278802 0.120131 
0.357304 0.458618 0.245639 0.293026 0.590466 0.36141 0.271348 0.499043 0.436457 
0.502219 0.255401 0.29256 0.248796 0.157826 0.147283 0.070587 0.0409064 0.020128 
0.0628034 0.057029 0.110068 0.177823 0.258707 0.416721 0.256151 0.229075 0.290511 
0.20744 0.234701 0.212985 0.202943 0.178561 0.224174 0.282061 0.235146 0.250137 
0.427361 0.452698 0.514096 0.413023 0.353069 0.240155 0.172423 0.170404 0.224782 
0.224254 0.204566 0.213496 0.222351 0.250391 0.279688 0.332429 0.259694 0.306515 
0.358168 0.365289 0.365289 0.335806 0.272662 0.355604 0.345423 0.393784 0.408939 
0.575363 0.56624 0.589669 0.186579 0.234574 0.412547 0.296311 0.374267 0.300018 
0.243346 0.283648 0.289863 0.347706 0.448247 0.429689 0.462369 0.394834 0.251283 
0.229276 0.229276 0.321655 0.366512 0.42496 0.493287 0.616399 0.793014 0.236027 
0.212026 0.29642 0.346525 0.312783 0.385315 0.458909 0.527908 0.536493 0.499575 
0.421031 0.361986 0.357093 0.427033 0.343379 0.350162 0.17857 0.17857 0.187542 
0.267122 0.283425 0.283425 0.389851 0.479069 0.419001 0.415548 0.453648 0.298332 
0.298332 0.321572 0.250098 0.329014 0.374215 0.259021 0.227162 0.227162 0.304363 
0.223861 0.169586 0.201775 0.405074 0.460925 0.425634 0.35047 0.330776 0.432287 
0.434398 0.460381 0.460381 0.565653 0.470265 0.225853 0.288601 0.276821 0.252181 
0.252181 0.246839 0.276829 0.360888 0.400807 0.28806 0.338637 0.248889 0.0941764 
0 0.0188544 0.0574794 0.00687261 0.0632378 0.106181 0.120099 0.203655 0.29958 
0.194069 0.378045 0.386803 0.17891 0.147967 0.361664 0.281369 0.296366 0.320081 
0.318832 0.253439 0.293675 0.361371 0.321165 0.255222 0.24344 0.24344 0.30364 
0.355721 0.355721 0.29167 0.349809 0.360422 0.223423 0.263883 0.269177 0.323018 
0.419885 0.346397 0.346397 0.181533 0.148807 0.274757 0.25149 0.343729 0.404238 
0.412073 0.364758 0.406674 0.441094 0.465209 0.394962 0.344858 0.294959 0.254648 
0.314577 0.434132 0.353636 0.392966 0.44592 0.395463 0.326918 0.241004 0.194948 
0.164283 0.164283 0.174438 0.321714 0.345946 0.391368 0.411333 0.405739 0.317446 
0.345627 0.514468 0.535328 0.558049 0.653192 0.512198 0.488776 0.543229 0.713255 
0.459353 0.331035 0.198596 0.229698 0.229698 0.193224 0.189573 0.260609 0.249522 
0.279962 0.370462 0.412032 0.480359 0.427769 0.184556 0.274828 0.473703 0.347275 
0.373552 0.293166 0.0730231 0.165709 0.166003 0.145473 0.192637 0.226084 0.11403 
0.176637 0.211771 0.260484 0.21602 0.260492 0.292258 0.35053 0.255624 0.297525 
0.183839 0.172025 0.182701 0.204183 0.301586 0.334853 0.468785 0.52096 0.52096 
0.463326 0.508498 0.450931 0.411703 0.451728 0.451728 0.480823 0.434694 0.434694 
0.330452 0.268057 0.244804 0.295361 0.254253 0.30395 0.264711 0.264711 0.276027 
0.378383 0.460922 0.41953 0.333099 0.318123 0.239227 0.28103 0.226067 0.149179 
0.149179 0.484763 0.511317 0.428237 0.398948 0.150276 0.0840356 0.19154 0.235978 
0.147411 0.259486 0.282877 0.392146 0.429523 0.406636 0.358763 0.330008 0.312008 
0.409066 0.434037 0.495289 0.441916 0.326669 0.296643 0.313474 0.356596 0.370305 
0.400413 0.390599 0.409788 0.5301 0.5301 0.612624 0.592461 0.52677 0.523891 
0.453931 0.360957 0.339371 0.2826 0.2826 0.24594 0.210851 0.197877 0.194449 
0.258482 0.223068 0.244864 0.334006 0.216978 0.269859 0.29489 0.377649 0.377649 
0.358913 0.358913 0.348911 0.220504 0.340866 0.340214 0.274325 0.200026 0.200374 
0.213598 0.249132 0.291083 0.389813 0.494675 0.494675 0.615095 0.669173 0.600663 
0.577796 0.52421 0.475442 0.300997 0.312522 0.198588 0.5499 0.609462 0.970338 
0.204892 0.393195 0.347532 0.321307 0.363704 0.357915 0.341097 0.36894 0.360373 
0.39346 0.316513 0.282652 0.216425 0.350773 0.359435 0.514223 0.464843 0.49169 
0.621419 0.703391 0.858776 0.67223 0.617776 0.519939 0.434282 0.30018 0.497656 
0.456535 0.479253 0.372807 0.387059 0.399033 0.289694 0.26844 0.298208 0.297261 
0.23437 0.285161 0.301944 0.301944 0.242609 0.161891 0.326061 0.307361 0.183583 
0.220854 0.192202 0.221026 0.267172 0.327509 0.619317 0.524533 0.533369 0.415587 
0.336991 0.336991 0.309907 0.330785 0.330785 0.309471 0.284932 0.315908 0.342311 
0.317127 0.290854 0.242327 0.346922 
WidthEq 1 922 double
2.66604 2.8937 2.31844 2.97264 2.81287 2.42837 2.70902 2.64752 3.14092 
2.52732 1.40814 1.59796 1 2.82882 4.11329 1.84925 2.20337 3.50802 
2.63626 1.59958 4.83658 2.62579 2.01135 3.55887 3.03888 3.50058 4.08236 
3.29391 2.11642 3.14512 3.51064 1.86473 5.51178 2.24416 4.58264 4.38838 
4.22024 3.12159 5.94117 4.23017 4.55099 4.70457 3.0695 4.99029 4.80729 
3.98081 5.32743 4.37791 4.55251 5.14476 3.65266 3.29753 3.97486 5.29835 
4.85064 3.28519 4.79542 2.99749 5.28851 3.43315 5.14587 1.60639 2.16147 
2.61248 2.68101 2.78544 2.3793 5.29262 2.72225 3.79943 2.43995 3.90297 
3.31066 1.50191 3.04622 3.01176 2.5949 2.91324 3.00813 3.17101 3.22853 
3.39444 3.39444 3.39376 3.23496 2.89943 3.15353 2.93039 3.35518 3.46081 
3.30771 3.35139 3.32655 3.11303 2.93026 2.93026 2.89284 2.58167 3.04622 
2.93057 2.65248 2.65248 2.32975 2.24187 2.24187 2.09494 2.00086 1.9076 
1.85385 1.98983 2.01302 1.89544 1.93307 1.94416 2.09375 2.70137 2.70137 
3.15646 3.62375 3.56212 3.81971 3.56313 3.56313 3.1971 3.1971 2.97493 
2.76029 2.73711 3.39401 3.75988 3.53758 4.33629 4.59188 4.66888 4.58971 
4.12609 4.42945 4.60598 4.62698 2.84747 2.84747 2.65421 2.51586 2.44752 
2.50817 2.86592 2.85098 3.41827 3.6669 3.69667 4.05837 4.05567 3.8336 
3.43952 3.33696 3.38383 3.91183 4.31257 4.367 4.55016 4.5366 4.42597 
3.83201 3.16802 2.25673 2.93799 2.50469 2.50469 2.22668 2.1907 2.1907 
2.67903 2.89092 2.89092 3.42785 3.30349 3.4713 3.95109 3.7203 4.11196 
4.16163 4.02838 4.41208 4.52929 4.18821 4.75562 4.53477 4.75915 1.95987 
1.95987 2.17106 2.47532 2.47532 2.45667 2.5842 2.54148 2.69088 2.69088 
2.81178 3.21926 3.14735 3.41144 3.53902 3.45473 3.82144 3.7851 3.7851 
3.89761 3.67024 3.67439 3.88642 4.26789 3.82884 4.381 4.72285 5.12252 
4.96045 4.72786 4.58788 4.70257 4.6067 5.11723 5.65993 4.78813 5.20179 
3.31066 3.82356 3.90297 4.13337 4.00023 4.52815 4.39802 4.5899 4.27986 
4.20161 4.63225 4.06313 4.49588 4.87757 5.40941 5.65512 5.53777 5.19464 
4.87522 5.05047 5.48435 5.34358 5.22916 4.96273 4.83009 4.87788 4.71135 
4.49835 4.39283 3.99279 3.79087 3.42323 3.31417 2.58622 2.44558 2.3211 
2.3274 2.57911 2.90463 3.50038 4.42333 5.01038 5.23091 5.34542 5.37592 
5.151 2.52957 2.71872 2.71872 2.63406 2.80955 2.94164 2.99141 3.09819 
3.13224 3.13224 3.14978 3.23162 3.24562 3.20592 2.93261 3.04978 2.94102 
2.9201 3.06153 3.09941 2.98676 3.11889 2.98177 2.85834 2.69836 1.97794 
2.78544 2.73177 2.83241 2.79659 2.72198 2.81009 2.53379 3.10976 3.61188 
3.56439 4.05202 4.21655 3.92471 3.71472 3.37678 3.15994 2.69684 2.59781 
2.62829 2.89939 2.85673 3.12023 3.59561 3.24801 3.53914 4.57968 4.53567 
2.54115 2.24169 2.19655 1.96116 2.15172 2.31401 2.45117 2.707 3.23232 
3.3824 3.35664 3.40372 3.29053 3.42049 3.42049 3.3484 3.63564 3.9034 
4.06342 3.82191 4.16954 4.93124 4.79748 2.82231 2.70836 2.62235 2.63865 
2.68208 3.01891 3.26342 3.18012 3.70075 3.68477 2.8618 2.76372 3.00751 
2.78575 2.83391 3.44487 3.5193 3.42727 3.27855 3.53296 3.49325 3.6493 
3.56008 3.40429 3.16573 3.0753 2.91347 3.17762 3.32152 2.6252 2.6252 
3.54116 5.38596 4.94709 4.73462 4.05289 3.54273 3.54273 3.21262 2.99521 
2.99521 2.59624 2.59624 2.29136 1.82386 1.82386 1.84898 2.47507 2.52456 
3.51392 3.95175 3.93656 4.72259 4.91749 4.96323 4.97629 5.29142 4.6421 
3.47465 2.61782 2.32856 2.31502 2.48919 3.04481 3.49856 3.49856 3.93755 
4.28918 4.63656 4.75051 4.14846 4.11208 3.82517 3.8345 4.26645 4.19256 
4.31777 4.01886 3.51573 3.55085 3.64984 4.52329 4.62856 5.65681 5.93391 
3.33469 4.10056 4.53617 4.01933 3.82352 4.56288 4.65703 2.69251 2.91689 
2.86528 3.09409 3.0193 3.37025 4.96657 4.49095 4.29369 4.24277 4.41655 
4.44544 4.86156 3.13247 3.0904 3.32511 3.58325 3.96651 3.07921 3.07921 
2.71831 2.72392 2.76866 3.05809 3.16268 3.48409 3.63374 5.33641 5.09905 
3.95266 3.78067 4.44 4.78398 2.83791 3.64394 4.0357 3.51765 3.71721 
3.81903 4.15653 3.78677 5.10414 5.39144 5.57557 5.47545 5.52483 5.44791 
4.92378 4.64099 3.87506 3.24494 2.68505 2.30197 2.86808 3.26816 3.16314 
3.63026 3.90814 4.31554 4.75171 5.06009 5.13046 4.91795 4.94017 4.67813 
4.19866 3.88384 3.95563 4.30969 4.69744 4.78545 5.06199 5.13911 4.69674 
4.56016 4.60404 4.42947 3.97799 3.54733 3.34821 3.31396 3.46105 3.3803 