# vtk DataFile Version 3.0
vtk output
ASCII
DATASET POLYDATA
POINTS 631 float
1.40583 -0.683643 1.62838 1.79513 -0.475248 1.42432 2.40345 -0.100647 1.21488 
2.34907 -0.21078 1.22101 1.03345 -0.933691 1.23413 0.524265 0.727618 0.903513 
0.173827 0.461688 0.912116 0.990593 0.925603 0.702354 2.23867 -1.35198 0.829351 
2.12459 -1.38153 0.895039 -0.0395567 0.281597 0.718055 0.297096 -0.977904 0.815258 
1.247 1.3086 0.482378 3.2492 0.12418 0.420893 2.8509 0.939367 0.0186085 
1.81864 1.36175 0.0937167 0.0619907 0.876755 -0.18962 0.013275 0.731067 -0.113997 
-0.484831 0.324073 -0.166608 0.322392 1.13537 -0.341396 0.259104 1.03717 -0.328919 
1.47848 -1.80803 -0.163218 3.52612 -0.875193 -0.437663 0.856846 1.33488 -0.533304 
5.0505 -0.459 -0.490385 3.78484 -0.248789 -0.540813 0.0513599 0.843199 -0.722418 
5.22841 0.208739 -0.732404 3.24661 -1.36401 -0.678959 2.98379 -1.56346 -0.672507 
0.14461 0.895798 -0.924006 2.10621 -1.95396 -0.67014 1.52322 -1.91433 -0.689386 
1.45825 -2.10136 -0.678203 -0.513896 0.0198115 -0.666841 5.78169 -0.898261 -1.05754 
4.22507 -0.295366 -0.926248 3.16342 0.827146 -1.03442 3.64123 -0.77347 -1.04318 
5.77125 -0.51745 -1.06763 4.68844 0.451277 -1.16569 1.93045 -1.95214 -1.21007 
-0.0510758 0.504386 -1.30342 6.60155 -0.5253 -1.24416 5.52932 0.520319 -1.34728 
1.56623 1.36921 -1.51845 6.47264 0.00133262 -1.46275 5.02579 -0.912885 -1.46231 
4.51607 -0.582988 -1.60554 -0.00509747 0.158637 -1.67918 -0.0594844 0.0485032 -1.67305 
5.53297 -0.133 -1.70282 5.69651 0.488773 -2.07575 5.65396 -0.315284 -2.12795 
5.86466 -0.434727 -2.20727 5.10473 -0.218853 -2.11008 6.299 -0.432538 -2.26199 
5.61339 0.286703 -2.33146 2.19045 -0.125371 -2.60013 2.14541 -0.156993 -2.59921 
2.09441 -0.180774 -2.59899 2.03425 -0.192523 -2.59988 1.98345 -0.216818 -2.60705 
1.93911 -0.250071 -2.62827 1.89628 -0.285796 -2.66414 1.85331 -0.321094 -2.69261 
1.80971 -0.354849 -2.69892 1.7657 -0.387577 -2.69046 1.72204 -0.421244 -2.69677 
1.6779 -0.455011 -2.72539 1.62794 -0.481363 -2.76211 1.5682 -0.494141 -2.77777 
1.51678 -0.516893 -2.76278 1.47055 -0.545518 -2.71753 1.42522 -0.575072 -2.66475 
1.38016 -0.605228 -2.61936 1.33573 -0.636927 -2.59612 1.29171 -0.669653 -2.58766 
1.24784 -0.702807 -2.58659 1.20266 -0.734002 -2.57827 1.15109 -0.75632 -2.55589 
1.09085 -0.766532 -2.51232 1.04559 -0.796173 -2.45953 1.01571 -0.846274 -2.41232 
0.978275 -0.886927 -2.38083 0.936033 -0.921262 -2.34992 0.899204 -0.961991 -2.29613 
0.876862 -1.02103 -2.21837 0.854102 -1.07905 -2.12584 0.816581 -1.11815 -2.04989 
0.772612 -1.1495 -1.99696 0.729138 -1.18221 -1.96619 0.690559 -1.22118 -1.93486 
0.654742 -1.26005 -1.88117 0.600825 -1.25793 -1.80855 0.546429 -1.22967 -1.72293 
0.484133 -1.21654 -1.65131 0.423329 -1.22235 -1.5932 0.352128 -1.21773 -1.54354 
0.274265 -1.20364 -1.47245 0.195917 -1.18496 -1.37196 0.124832 -1.1586 -1.24953 
0.0654036 -1.12205 -1.11262 -0.00624165 -1.09424 -0.968013 -0.084953 -1.0734 -0.815691 
-0.158783 -1.06203 -0.670003 -0.221715 -1.06203 -0.530646 -0.282641 -1.04223 -0.400041 
-0.319994 -0.992024 -0.270887 -0.335647 -0.922396 -0.135041 -0.354052 -0.854045 0.00824836 
-0.366602 -0.781923 0.144009 -0.383377 -0.717045 0.23559 -0.392793 -0.652637 0.260553 
-0.406314 -0.596053 0.233949 -0.415475 -0.537507 0.19247 -0.439939 -0.489227 0.166134 
-0.479372 -0.450962 0.154924 -0.524276 -0.416848 0.143848 -0.54306 -0.364931 0.109989 
-0.556656 -0.313113 0.0317186 -0.561685 -0.259504 -0.0984408 -0.569263 -0.212034 -0.274665 
-0.561673 -0.153757 -0.460499 -0.540175 -0.0794512 -0.611777 5.51595 -0.416083 -2.26894 
5.44598 -0.483497 -2.33457 5.4139 -0.541249 -2.31065 5.3821 -0.588323 -2.23251 
5.35352 -0.638931 -2.14808 5.31496 -0.676665 -2.07226 5.27161 -0.708342 -2.00443 
5.23346 -0.747104 -1.94338 5.20565 -0.799683 -1.88851 5.17362 -0.846714 -1.83415 
5.13783 -0.887854 -1.75058 5.08133 -0.900337 -1.62503 5.69117 -0.397348 -2.24548 
5.76328 -0.430517 -2.27233 5.94759 -0.435376 -2.32621 6.02739 -0.443955 -2.39021 
6.10434 -0.452984 -2.38245 6.17896 -0.458805 -2.33784 6.24636 -0.45513 -2.29162 
5.63195 0.355895 -2.28623 5.66298 0.416425 -2.20042 5.05235 -0.240579 -2.10262 
4.9915 -0.250706 -2.08135 4.93951 -0.272003 -2.0442 4.89466 -0.302674 -2.00619 
4.85737 -0.343745 -1.9821 4.8295 -0.397451 -1.96429 4.79248 -0.439123 -1.94758 
4.74921 -0.472354 -1.92421 4.70471 -0.504078 -1.89912 4.65788 -0.534976 -1.85001 
4.5996 -0.565647 -1.75481 5.60304 -0.196479 -1.9163 5.85564 -0.344289 -2.09744 
5.79422 -0.303003 -2.07085 5.76428 0.531502 -2.13128 5.83618 0.539662 -2.13725 
5.90175 0.52845 -2.08509 5.95509 0.506745 -2.01026 6.0192 0.492585 -1.94061 
6.08385 0.476818 -1.89311 6.13727 0.449842 -1.87487 6.19543 0.424442 -1.87889 
6.24845 0.39379 -1.89754 6.30664 0.367744 -1.90893 6.3574 0.337401 -1.90539 
6.4036 0.305616 -1.87958 6.42338 0.256474 -1.82361 6.44648 0.211867 -1.74556 
6.47414 0.172007 -1.65287 6.49449 0.124439 -1.5747 6.49397 0.0592883 -1.51075 
5.59717 -0.356321 -1.81025 5.55384 -0.356829 -1.53065 5.48883 -0.338166 -1.305 
5.4177 -0.326445 -1.12063 5.36136 -0.338248 -0.972838 5.31161 -0.359596 -0.846484 
5.25761 -0.376083 -0.742861 5.19474 -0.381155 -0.647724 5.14164 -0.399793 -0.57364 
5.09521 -0.427903 -0.520999 5.78115 -0.188067 -2.0099 5.85315 -0.117882 -1.91766 
5.89973 -0.0757264 -1.85392 5.94371 -0.0406845 -1.80905 5.99427 -0.0144085 -1.75003 
6.06057 -0.00808258 -1.66688 6.13344 -0.00967492 -1.56072 6.20762 -0.0132249 -1.4618 
6.28184 -0.0180284 -1.39994 6.35188 -0.0190197 -1.39046 6.41394 -0.010724 -1.419 
5.62748 0.540142 -1.81634 5.56488 0.554773 -1.57399 -0.0252838 0.0943637 -1.67527 
0.0748543 0.141028 -1.77968 0.154322 0.124535 -1.86543 0.232273 0.110514 -1.93654 
0.303913 0.105024 -2.00097 0.365297 0.11301 -2.06665 0.429738 0.11698 -2.13196 
0.489681 0.127099 -2.1904 0.552328 0.134144 -2.23369 0.605401 0.154248 -2.2633 
0.658414 0.174433 -2.29292 0.71989 0.183017 -2.33634 0.772291 0.203285 -2.38828 
0.817349 0.233442 -2.43367 0.854646 0.274513 -2.45775 0.882303 0.328733 -2.46818 
0.918907 0.371434 -2.47011 0.961546 0.406207 -2.47133 1.00528 0.439536 -2.47241 
1.04909 0.472777 -2.47349 1.09289 0.506019 -2.47456 1.13677 0.539173 -2.47563 
1.18174 0.570882 -2.47657 1.23281 0.594576 -2.47677 1.2942 0.604714 -2.47574 
1.35364 0.617407 -2.47494 1.4234 0.616545 -2.47291 1.49947 0.607152 -2.47754 
1.57706 0.595287 -2.4968 1.65525 0.581725 -2.53821 1.7322 0.566549 -2.58698 
1.80099 0.54585 -2.62816 1.857 0.51747 -2.64689 1.92311 0.498102 -2.6511 
1.98747 0.478083 -2.64788 2.03173 0.442808 -2.64418 2.06658 0.40039 -2.64024 
2.09998 0.356871 -2.63626 2.13474 0.314386 -2.63232 2.17754 0.278006 -2.62858 
2.23388 0.252036 -2.62518 2.28656 0.225563 -2.62185 2.34672 0.217277 -2.61957 
2.40422 0.22596 -2.61855 2.46284 0.216506 -2.61623 2.50602 0.182824 -2.61266 
2.5408 0.140493 -2.60873 2.5742 0.0969747 -2.60476 2.60896 0.0544901 -2.60082 
2.65176 0.0181095 -2.59708 2.70809 -0.00800857 -2.59366 2.7603 -0.0372512 -2.59015 
2.81671 -0.063303 -2.58674 2.86106 -0.0985169 -2.58304 2.90511 -0.133277 -2.57194 
2.95943 -0.158898 -2.54634 3.00246 -0.190934 -2.49833 3.04572 -0.219843 -2.44308 
3.10296 -0.225636 -2.38907 3.15921 -0.213869 -2.34373 3.21799 -0.218489 -2.28975 
3.27076 -0.240047 -2.23475 3.3356 -0.252443 -2.18006 3.40257 -0.251386 -2.13367 
3.46052 -0.235239 -2.08116 3.52141 -0.222527 -2.0209 3.5778 -0.203666 -1.95376 
3.63725 -0.18882 -1.88625 3.68672 -0.1611 -1.82735 3.73139 -0.127322 -1.77645 
3.78128 -0.100631 -1.73233 3.84093 -0.0863001 -1.67221 3.89712 -0.0669241 -1.59768 
3.95708 -0.0522226 -1.50788 4.01296 -0.0356322 -1.43317 4.07168 -0.0401654 -1.37919 
4.12343 -0.0646471 -1.34631 4.1774 -0.0897269 -1.31333 4.20916 -0.129779 -1.25764 
4.21844 -0.184201 -1.17188 4.22807 -0.235659 -1.05661 -0.0082231 0.228491 -1.64698 
-0.030662 0.28638 -1.5848 -0.0538491 0.346393 -1.49306 -0.0572301 0.422108 -1.39444 
4.42946 -0.548144 -1.44142 4.38112 -0.489287 -1.28904 4.35371 -0.42785 -1.17152 
4.30539 -0.386264 -1.07365 4.26191 -0.342993 -0.99617 1.84557 -1.97105 -1.10964 
1.76363 -1.96584 -1.0009 1.68307 -1.94928 -0.88795 1.60296 -1.93142 -0.782512 
1.95579 -1.87759 -1.35074 1.98805 -1.82514 -1.4649 2.01704 -1.77428 -1.55923 
2.05706 -1.73871 -1.64477 2.10824 -1.71803 -1.73389 2.16322 -1.70187 -1.80775 
2.19948 -1.66064 -1.86902 2.23733 -1.62101 -1.91528 2.27436 -1.58055 -1.96904 
2.30438 -1.53087 -2.02366 2.34944 -1.50072 -2.06905 2.40905 -1.48896 -2.09046 
2.46027 -1.4657 -2.09806 2.50641 -1.43553 -2.09886 2.55748 -1.41183 -2.09907 
2.61764 -1.40008 -2.09818 2.66844 -1.37579 -2.09101 2.71299 -1.34305 -2.07717 
2.75609 -1.30793 -2.04869 2.80023 -1.27416 -2.02008 2.85019 -1.24781 -1.98335 
2.90951 -1.234 -1.95292 2.95968 -1.20817 -1.92359 3.00424 -1.17543 -1.90976 
3.04796 -1.14185 -1.90343 3.09293 -1.11014 -1.90436 3.14373 -1.08584 -1.89719 
3.20326 -1.07254 -1.87415 3.25302 -1.04568 -1.83004 3.29632 -1.00986 -1.77189 
3.33837 -0.972166 -1.70646 3.38147 -0.935828 -1.64092 3.43059 -0.907419 -1.57466 
3.48864 -0.890356 -1.49744 3.53761 -0.859341 -1.39174 3.58466 -0.817713 -1.23732 
1.5212 1.33759 -1.51752 1.47019 1.31381 -1.51731 1.41003 1.30206 -1.51819 
1.35896 1.27836 -1.51799 1.31303 1.24767 -1.52458 1.26259 1.22243 -1.54653 
1.20368 1.2076 -1.59173 1.15407 1.18031 -1.64324 1.10919 1.14704 -1.68676 
1.05874 1.12181 -1.70871 0.998726 1.10962 -1.71699 0.94655 1.08738 -1.71692 
0.894373 1.06514 -1.71685 0.83415 1.05347 -1.71774 0.783079 1.02978 -1.71753 
0.736942 0.999601 -1.71674 0.685804 0.975994 -1.71654 0.624267 0.966292 -1.71017 
0.565226 0.954028 -1.68128 0.501952 0.948526 -1.61583 0.446999 0.933049 -1.51974 
0.391898 0.918007 -1.41626 0.328899 0.913102 -1.32113 0.273731 0.898147 -1.21765 
0.216628 0.886694 -1.08476 5.57768 0.503623 -1.1739 5.59436 0.46114 -1.0219 
5.60284 0.414461 -0.899556 5.58399 0.37111 -0.815362 5.53207 0.353633 -0.756186 
5.47996 0.332924 -0.711653 5.42639 0.314195 -0.659868 5.36492 0.305611 -0.616434 
5.31349 0.282858 -0.601452 5.26978 0.248064 -0.644831 5.4903 0.476717 -1.47163 
5.45683 0.426302 -1.58049 5.43174 0.365832 -1.6587 5.39777 0.317991 -1.70833 
5.36297 0.272207 -1.72841 5.33579 0.21688 -1.73275 5.29918 0.174178 -1.73082 
5.25649 0.139485 -1.72961 5.2113 0.108297 -1.72128 5.15823 0.0881926 -1.69167 
5.08763 0.0927315 -1.61971 5.01003 0.110917 -1.50431 4.93868 0.138281 -1.3671 
4.8815 0.174512 -1.25238 4.82309 0.205778 -1.18193 4.78099 0.245382 -1.15617 
4.75551 0.295585 -1.15295 4.74376 0.355531 -1.15746 4.72004 0.406393 -1.16167 
6.56612 -0.569542 -1.24208 6.53894 -0.624869 -1.24643 6.50296 -0.669114 -1.26665 
6.46158 -0.706972 -1.30975 6.4193 -0.743901 -1.36038 6.37703 -0.780828 -1.411 
6.33571 -0.818774 -1.4541 6.30146 -0.866014 -1.49635 6.28081 -0.930638 -1.52215 
6.25192 -0.98323 -1.51187 6.19023 -0.991301 -1.46106 6.11317 -0.977966 -1.37503 
6.03342 -0.960933 -1.28004 5.95223 -0.943898 -1.18324 5.86602 -0.927677 -1.10695 
-0.0412838 0.584714 -1.23446 -0.0248363 0.656778 -1.14987 0.0059554 0.710954 -1.03391 
0.035978 0.767099 -0.888405 -0.132236 0.52646 -1.11412 -0.205844 0.538132 -0.938731 
-0.262259 0.526255 -0.790932 -0.310847 0.503374 -0.664438 -0.357754 0.477609 -0.555015 
-0.404271 0.449443 -0.437992 -0.447824 0.404692 -0.309833 2.02601 -1.95668 -0.937164 
3.69673 -0.71275 -1.04832 3.73721 -0.659167 -1.02862 3.76262 -0.598099 -0.982632 
3.78748 -0.540953 -0.921527 3.79374 -0.47567 -0.851615 3.78142 -0.410505 -0.76736 
3.77944 -0.333191 -0.661375 5.74287 -0.827845 -1.04311 5.74094 -0.748491 -1.04682 
5.75011 -0.671152 -1.05567 5.76067 -0.594343 -1.06257 3.58906 -0.824979 -0.738991 
3.15669 0.900181 -0.9357 3.12079 0.95149 -0.806572 3.05886 0.973948 -0.636559 
2.99475 0.975247 -0.435422 2.92255 0.971439 -0.214353 4.14532 -0.278271 -0.833122 
4.06544 -0.260749 -0.732609 3.98686 -0.245186 -0.639343 3.91515 -0.239609 -0.574911 
3.85371 -0.248713 -0.546302 -0.511282 0.130369 -0.600807 -0.505271 0.230256 -0.416313 
1.49238 -2.05541 -0.680437 1.51134 -1.98952 -0.684488 1.49317 -1.85755 -0.429244 
2.17564 -1.95534 -0.697794 2.23634 -1.94573 -0.741312 2.30036 -1.94073 -0.791856 
2.35988 -1.92958 -0.835514 2.42184 -1.92091 -0.856648 2.47298 -1.8973 -0.856845 
2.51869 -1.8661 -0.842873 2.56921 -1.84095 -0.820913 2.63033 -1.83022 -0.8125 
2.68874 -1.81641 -0.81924 2.75069 -1.80773 -0.840375 2.80191 -1.78447 -0.847977 
2.84529 -1.7502 -0.834274 2.88071 -1.7045 -0.791889 2.9067 -1.64617 -0.743209 
2.94205 -1.60038 -0.700831 2.05904 -1.95438 -0.500595 2.00902 -1.92979 -0.355154 
1.94646 -1.91445 -0.231715 1.88585 -1.91565 -0.121913 1.82344 -1.90074 -0.00587198 
1.77301 -1.87673 0.109885 1.71926 -1.87394 0.204742 1.65154 -1.8682 0.237095 
1.58693 -1.85488 0.179867 1.53648 -1.83144 0.0356618 0.167588 0.962876 -0.727462 
0.213865 0.999343 -0.528128 0.112103 0.850829 -0.825224 3.29756 -1.34015 -0.67918 
3.35051 -1.31893 -0.67916 3.38394 -1.27205 -0.681478 3.41333 -1.21988 -0.684279 
3.43227 -1.15373 -0.680918 3.45169 -1.08757 -0.660214 3.48408 -1.03645 -0.608384 
3.51407 -0.974815 -0.530117 0.0513319 0.860537 -0.458681 3.71518 -0.220686 -0.411034 
3.65758 -0.18342 -0.281541 3.59608 -0.149793 -0.159346 3.54056 -0.11297 -0.0520566 
3.48019 -0.0818477 0.0332099 3.42588 -0.0474681 0.103569 3.36914 -0.0156106 0.166595 
3.33211 0.0318842 0.23653 3.30545 0.0885843 0.32097 0.811809 1.30326 -0.532376 
0.760738 1.27957 -0.532171 0.699409 1.26935 -0.533194 0.641204 1.25503 -0.533843 
0.579667 1.24533 -0.527477 0.527969 1.22318 -0.505115 0.481649 1.19468 -0.459875 
0.43466 1.1673 -0.407292 0.380547 1.14904 -0.362986 3.465 -0.835174 -0.206957 
3.4119 -0.834714 -0.0153473 3.36219 -0.853234 0.130627 3.30692 -0.86778 0.239023 
3.23678 -0.863305 0.333289 3.16616 -0.858919 0.405275 3.10533 -0.8681 0.45619 
3.04317 -0.876269 0.484715 2.99243 -0.899437 0.514606 2.95334 -0.937434 0.560711 
2.92319 -0.986941 0.615311 2.87813 -1.0171 0.660702 2.81852 -1.02885 0.682117 
2.7673 -1.05211 0.689719 2.72116 -1.08229 0.690515 2.67009 -1.10598 0.69072 
2.60993 -1.11773 0.689836 2.55892 -1.14151 0.690049 2.51374 -1.17271 0.698374 
2.46939 -1.20474 0.714202 2.42379 -1.23491 0.737295 2.37247 -1.25779 0.752298 
2.31355 -1.27069 0.766382 2.27096 -1.30482 0.789847 1.38172 -1.75963 0.0559996 
1.32102 -1.7071 0.25119 1.27078 -1.66031 0.404987 1.21088 -1.62582 0.522223 
1.15617 -1.59041 0.607351 1.09775 -1.55915 0.677802 1.05307 -1.51814 0.740541 
1.01663 -1.47154 0.795694 0.981983 -1.42494 0.836035 0.946597 -1.38091 0.854252 
0.903672 -1.34395 0.857895 0.848881 -1.31667 0.854446 0.806078 -1.28029 0.850703 
0.769693 -1.23903 0.846802 0.725344 -1.20382 0.843097 0.66098 -1.1838 0.839883 
0.595159 -1.16489 0.836705 0.541324 -1.13688 0.833233 0.483372 -1.112 0.829861 
0.431075 -1.08282 0.826351 0.374747 -1.0567 0.82294 0.331943 -1.02032 0.819197 
0.292205 1.08448 -0.331276 0.218084 1.00511 -0.174326 0.180387 0.964399 -0.0858935 
0.123214 0.932989 -0.100185 -0.450255 0.267285 0.0413643 -0.409018 0.234293 0.223109 
-0.347151 0.224493 0.376585 -0.276583 0.223308 0.507415 -0.21094 0.231032 0.612736 
-0.159344 0.256194 0.679292 -0.106771 0.278873 0.708913 0.0319761 0.805242 -0.143392 
2.90046 0.876008 0.0293648 2.95898 0.839311 0.0261538 3.01176 0.807899 0.0199252 
3.06816 0.781529 0.0208792 3.11005 0.747139 0.0541713 3.14201 0.706574 0.102475 
3.16437 0.659384 0.158388 3.17478 0.602457 0.207211 3.19704 0.555195 0.263127 
3.22726 0.513977 0.318857 3.25905 0.473278 0.367155 3.28996 0.430023 0.393323 
3.31069 0.379981 0.404824 3.30402 0.320986 0.408742 3.27871 0.266819 0.411797 
3.26101 0.199453 0.415987 1.86455 1.32786 0.0973742 1.92958 1.31009 0.0930194 
1.99832 1.3063 0.0729448 2.05862 1.31307 0.0296139 2.12041 1.30131 -0.0198266 
2.17588 1.27292 -0.0608468 2.24234 1.25261 -0.0798359 2.307 1.23215 -0.0840134 
2.3528 1.19804 -0.0803437 2.39723 1.16289 -0.0766404 2.45365 1.13684 -0.0732313 
2.50573 1.10818 -0.062332 2.56297 1.08477 -0.036801 2.61402 1.05868 0.0110242 
2.66916 1.03587 0.0612237 2.71384 1.00231 0.0895834 2.76674 0.965781 0.0713396 
3.19307 0.110243 0.516848 3.12252 0.115747 0.625892 3.05175 0.121766 0.742326 
2.99528 0.108769 0.853057 2.94074 0.0922724 0.934373 2.87899 0.0842816 0.985179 
2.82604 0.0640099 1.01481 2.7742 0.042294 1.04457 2.71986 0.0243284 1.08885 
2.68251 -0.0157179 1.14258 2.63512 -0.0428026 1.18769 2.56823 -0.0450013 1.20824 
2.50073 -0.0468703 1.21389 2.44856 -0.0691116 1.21396 1.22592 1.24647 0.515821 
1.1893 1.20523 0.562222 1.14643 1.17244 0.615298 1.10864 1.13273 0.661559 
1.08062 1.07946 0.686758 1.04505 1.03565 0.696233 1.01078 0.989877 0.69845 
2.17993 -1.36441 0.865699 0.217566 0.495016 0.911033 0.260271 0.529702 0.909826 
0.298041 0.570872 0.908028 0.332695 0.616138 0.905857 0.385651 0.637355 0.905877 
0.43549 0.662668 0.905524 0.480394 0.694464 0.904581 1.08542 -0.910935 1.24145 
1.14501 -0.897723 1.2645 1.19476 -0.870857 1.3086 1.23827 -0.835548 1.35938 
1.28068 -0.798794 1.41001 1.32302 -0.761953 1.46064 1.36474 -0.72357 1.53343 
2.27146 -0.197449 1.28475 2.20098 -0.193491 1.34933 2.14687 -0.211024 1.41587 
2.09995 -0.238018 1.48328 2.05441 -0.267058 1.54345 2.00935 -0.297214 1.58884 
1.96513 -0.329427 1.60469 1.92174 -0.363697 1.59099 1.87919 -0.400024 1.54775 
1.83705 -0.437379 1.48973 
LINES 49 725
14 53 125 126 127 128 129 130 131 132 133 134 135 136 47 
4 53 137 138 54 
7 54 139 140 141 142 143 56 
4 57 144 145 52 
3 53 157 51 
4 54 158 159 53 
12 53 177 178 179 180 181 182 183 184 185 186 24 
4 52 198 199 44 
3 50 200 49 
82 49 201 202 203 204 205 206 207 208 209 210 211 212 213 214 215 216 217 218 219 220 221 222 223 224 225 226 227 228 229 230 231 232 233 234 235 236 237 238 239 240 241 242 243 244 245 246 247 248 249 250 251 252 253 254 255 256 257 258 259 260 261 262 263 264 265 266 267 268 269 270 271 272 273 274 275 276 277 278 279 280 36 
6 49 281 282 283 284 42 
6 41 290 291 292 293 32 
38 41 294 295 296 297 298 299 300 301 302 303 304 305 306 307 308 309 310 311 312 313 314 315 316 317 318 319 320 321 322 323 324 325 326 327 328 329 38 
27 45 330 331 332 333 334 335 336 337 338 339 340 341 342 343 344 345 346 347 348 349 350 351 352 353 354 30 
12 44 355 356 357 358 359 360 361 362 363 364 27 
21 44 365 366 367 368 369 370 371 372 373 374 375 376 377 378 379 380 381 382 383 40 
6 42 399 400 401 402 26 
9 42 403 404 405 406 407 408 409 18 
3 41 410 31 
9 38 411 412 413 414 415 416 417 25 
3 38 422 22 
7 37 423 424 425 426 427 14 
7 36 428 429 430 431 432 25 
4 33 435 436 32 
3 32 437 21 
18 31 438 439 440 441 442 443 444 445 446 447 448 449 450 451 452 453 29 
12 31 454 455 456 457 458 459 460 461 462 463 21 
4 30 464 465 20 
3 30 466 26 
10 28 467 468 469 470 471 472 473 474 22 
3 26 475 16 
11 25 476 477 478 479 480 481 482 483 484 13 
24 21 518 519 520 521 522 523 524 525 526 527 528 529 530 531 532 533 534 535 536 537 538 539 11 
5 20 541 542 543 16 
9 18 544 545 546 547 548 549 550 10 
3 17 551 16 
18 14 552 553 554 555 556 557 558 559 560 561 562 563 564 565 566 567 13 
19 15 568 569 570 571 572 573 574 575 576 577 578 579 580 581 582 583 584 14 
16 13 585 586 587 588 589 590 591 592 593 594 595 596 597 598 2 
9 12 599 600 601 602 603 604 605 7 
9 6 607 608 609 610 611 612 613 5 
9 4 614 615 616 617 618 619 620 0 
12 3 621 622 623 624 625 626 627 628 629 630 1 
71 58 59 60 61 62 63 64 65 66 67 68 69 70 71 72 73 74 75 76 77 78 79 80 81 82 83 84 85 86 87 88 89 90 91 92 93 94 95 96 97 98 99 100 101 102 103 104 105 106 107 108 109 110 111 112 113 114 115 116 117 118 119 120 121 122 123 124 34 433 434 18 
19 55 146 147 148 149 150 151 152 153 154 155 156 48 285 286 287 288 289 36 
31 52 160 161 162 163 164 165 166 167 168 169 170 171 172 173 174 175 176 46 197 196 195 194 193 192 191 190 189 188 187 53 
22 43 384 385 386 387 388 389 390 391 392 393 394 395 396 397 398 35 418 419 420 421 39 
13 23 485 486 487 488 489 490 491 492 493 19 540 20 
28 22 494 495 496 497 498 499 500 501 502 503 504 505 506 507 508 509 510 511 512 513 514 515 516 517 8 606 9 

POINT_DATA 631
SCALARS DY_raw double
LOOKUP_TABLE default
205.342 72.9824 57.9489 66.8545 191.826 202.441 112.24 76.2965 193.388 
213.451 59.572 107.332 167.564 238.691 249.964 229.402 166.29 108.113 
149.129 175.052 161.604 293.047 279.5 260.035 248.725 222.551 215.467 
333.565 279.681 286.97 204.059 227.284 200.094 90.9205 182.753 236.091 
254.189 301.013 335.579 452.345 233.521 169.929 245.104 302.211 245.06 
136.116 271.888 349.546 285.16 188.824 106.838 361.354 283.419 314.951 
318.878 248.211 383.665 149.003 208.906 203.103 203.103 206.52 209.664 
209.664 161.568 151.031 134.243 143.425 119.976 119.976 105.065 112.448 
112.448 143.176 162.421 158.836 143.754 143.754 116.629 113.76 136.571 
166.236 189.241 171.215 207.543 202.613 143.585 149.522 194.301 173.036 
170.273 187.475 193.057 205.488 201.904 230.542 179.356 141.118 115.836 
109.834 145.509 188.429 226.784 220.519 224.853 219.947 222.815 182.482 
141.951 170.626 134.846 133.616 138.027 83.5571 48.2106 65.5505 46.9609 
46.9609 69.7733 127.852 119.964 98.0642 166.736 183.196 199.115 311.334 
280.268 257.319 271.261 270.843 318.647 275.111 271.629 293.668 286.057 
312.928 360.497 335.628 342.983 306.858 285.272 282.673 298.269 314.387 
187.687 212.954 245.443 245.443 277.103 269.397 290.193 242.787 242.787 
227.387 221.938 213.244 236.319 318.948 314.194 268.134 268.329 295.41 
310.389 294.125 251.342 243.829 225.96 224.718 245.153 216.437 223.467 
252.121 246.003 259.502 248.282 268.599 251.277 394.612 471.711 436.29 
369.15 352.216 369.401 308.841 297.121 317.053 288.052 242.529 268.629 
287.423 315.429 333.853 386.145 404.91 382.634 329.4 311.395 306.516 
295.74 243.52 199.201 180.443 185.082 196.069 143.138 150.21 165.499 
176.618 148.018 185.122 161.075 131.329 122.619 146.343 146.343 191.911 
191.911 197.534 194.421 194.421 175.315 156.875 156.875 146.045 137.557 
155.778 190.262 200.281 174.966 183.832 191.869 216.519 207.395 207.395 
182.367 137.055 137.055 152.063 159.713 159.713 174.195 180.863 177.49 
178.207 176.173 178.36 178.36 192.564 192.564 183.188 172.414 196.366 
193.732 182.792 205.297 202.455 250.205 247.155 245.68 216.452 207.305 
221.268 212.048 207.65 189.205 199.746 176.123 168.223 216.928 155.273 
165.367 197.781 226.095 250.448 272.308 257.089 213.755 218.92 245.17 
255.519 255.912 221.148 211.135 156.24 164.272 249.78 273.124 313.641 
350.535 294.188 196.347 216.149 201.243 161.404 186.734 189.002 176.757 
213.054 183.928 157.65 156.388 153.877 134.004 147.83 122.628 141.821 
164.199 180.622 176.829 158.747 158.747 142.02 169.453 169.453 188.111 
175.759 203.337 175.099 180.155 177.609 181.358 200.996 222.819 214.749 
268.051 216.244 215.924 232.593 238.154 272.383 136.116 130.077 129.452 
129.452 142.89 158.322 139.032 111.877 95.2402 103.868 123.198 122.275 
115.094 104.246 104.246 114.32 113.496 113.496 104.373 116.327 162.702 
145.188 172.513 113.103 145.185 261.042 266.394 281.099 322.782 341.761 
304.31 335.425 366.535 377.959 377.959 232.622 224.506 220.958 214.015 
255.503 226.122 226.122 213.844 187.999 211.488 197.422 200.773 211.881 
190.124 213.679 229.303 226.638 226.638 212.884 336.249 350.551 350.551 
344.053 357.296 321.979 292.177 264.516 264.516 245.787 255.778 243.953 
219.698 209.919 201.651 200.424 203.265 146.352 183.221 210.566 162.28 
144.878 165.893 136.805 135.658 127.402 248.463 344.546 291.736 300.596 
254.484 258.579 228.021 256.746 289.886 322.341 373.924 397.411 267.59 
346.148 346.732 278.361 221.712 238.549 260.262 326.538 364.543 354.776 
299.179 190.24 168.787 117.231 163.726 214.499 229.967 200.438 175.012 
153.191 162.639 134.507 146.573 201.605 201.605 239.28 251.422 251.422 
248.019 289.716 306.328 297.443 256.1 245.845 231.248 265.959 264.877 
286.66 269.902 283.795 280.809 300.935 232.392 181.077 227.484 234.517 
278.408 278.408 321.8 396.128 357.885 315.385 339.206 201.904 270.155 
292.059 287.591 274.533 264.276 199.347 226.672 203.421 208.493 260.035 
233.974 188.778 163.852 140.035 155.364 156.577 173.074 161.438 207.515 
234.109 229.311 246.81 273.762 245.622 215.243 232.719 201.766 207.717 
232.309 204.62 204.62 200.849 179.601 179.601 182.607 199.7 199.7 
191.68 174.687 189.733 170.937 169.687 256.958 228.083 204.733 230.31 
157.53 203.893 237.47 199.439 146.154 146.154 112.016 112.016 96.9949 
28.5838 28.5838 70.0917 99.5803 84.104 110.895 95.6405 95.6405 100.867 
151.334 188.171 178.495 178.593 168.655 156.463 123.97 94.5025 94.939 
88.4445 59.572 135.629 272.791 284.516 332.739 309.132 209.634 225.097 
188.193 176.767 201.485 230.623 201.927 229.405 242.042 212.11 196.162 
204.291 276.989 328.234 340.852 314.075 276.634 257.51 222.991 237.402 
190.478 68.7043 68.7043 57.5749 67.5581 128.54 221.163 237.259 242.958 
208.929 203.749 228.705 234.526 239.668 261.938 176.824 156.444 137.542 
111.339 123.303 78.9112 65.4542 65.4542 186.486 230.763 283.671 306.383 
246.929 243.199 188.781 248.615 112.64 119.828 119.828 126.389 123.171 
123.171 144.25 236.899 236.899 288.132 242.965 217.247 239.802 196.694 
174.246 208.173 231.163 213.621 236.289 228.644 194.994 194.994 177.842 
116.122 
FIELD FieldData 7
DY_minmax 1 631 double
0.398888 0.100194 0.066268 0.086365 0.368388 0.392342 0.188786 0.107673 0.371912 
0.417187 0.0699309 0.17771 0.313634 0.474147 0.499587 0.453184 0.31076 0.179473 
0.272032 0.330533 0.300184 0.59681 0.56624 0.522313 0.49679 0.437723 0.421737 
0.688247 0.566648 0.583098 0.395992 0.448403 0.387046 0.140675 0.347912 0.46828 
0.509121 0.614788 0.692792 0.956296 0.462478 0.318971 0.488619 0.617492 0.48852 
0.242666 0.549062 0.724312 0.579013 0.361613 0.176596 0.750959 0.575084 0.646241 
0.655104 0.495631 0.801307 0.271749 0.406932 0.393835 0.393835 0.401547 0.408641 
0.408641 0.300103 0.276326 0.238441 0.25916 0.206244 0.206244 0.172593 0.189255 
0.189255 0.2586 0.302029 0.29394 0.259903 0.259903 0.198691 0.192217 0.243693 
0.310639 0.362554 0.321875 0.403855 0.392729 0.259523 0.272919 0.373971 0.325983 
0.319747 0.358569 0.371166 0.399218 0.39113 0.455756 0.340246 0.253955 0.196902 
0.183355 0.263865 0.36072 0.447276 0.433138 0.442918 0.431846 0.438318 0.347301 
0.255834 0.320545 0.239801 0.237025 0.24698 0.124058 0.0442916 0.0834225 0.0414716 
0.0414716 0.092952 0.224018 0.206217 0.156796 0.311766 0.348911 0.384836 0.638078 
0.567974 0.516185 0.547646 0.546703 0.654582 0.556334 0.548478 0.598213 0.581037 
0.641677 0.749025 0.692903 0.709501 0.627977 0.579266 0.573399 0.608596 0.644969 
0.359047 0.416066 0.489383 0.489383 0.560829 0.543439 0.590369 0.48339 0.48339 
0.448638 0.43634 0.41672 0.468793 0.65526 0.644532 0.540589 0.54103 0.602143 
0.635947 0.599242 0.502695 0.48574 0.445417 0.442614 0.488729 0.423926 0.439791 
0.504454 0.490648 0.521109 0.495791 0.541639 0.502549 0.826011 1 0.920065 
0.768552 0.730337 0.769119 0.632452 0.606005 0.650985 0.585539 0.482807 0.541706 
0.584119 0.647321 0.688897 0.806905 0.84925 0.79898 0.678847 0.638216 0.627206 
0.602888 0.485043 0.38503 0.342698 0.353168 0.377962 0.258513 0.274472 0.308975 
0.334066 0.269526 0.353259 0.298991 0.231865 0.212209 0.265746 0.265746 0.36858 
0.36858 0.381269 0.374244 0.374244 0.331127 0.289513 0.289513 0.265073 0.245918 
0.287037 0.364857 0.387467 0.330339 0.350347 0.368485 0.42411 0.40352 0.40352 
0.347042 0.244787 0.244787 0.278653 0.295917 0.295917 0.328598 0.343646 0.336035 
0.337653 0.333063 0.337998 0.337998 0.370052 0.370052 0.348893 0.32458 0.378631 
0.372687 0.348 0.398787 0.392373 0.500131 0.493247 0.489919 0.423959 0.403319 
0.434827 0.414022 0.404095 0.362473 0.386259 0.332951 0.315123 0.425034 0.285899 
0.308677 0.381826 0.445721 0.500678 0.55001 0.515665 0.417874 0.42953 0.488767 
0.512123 0.51301 0.434556 0.411961 0.288081 0.306206 0.499171 0.55185 0.643285 
0.726544 0.599385 0.37859 0.423277 0.389637 0.299733 0.356896 0.362013 0.334381 
0.416293 0.350563 0.291262 0.288415 0.282748 0.2379 0.269102 0.212229 0.255542 
0.306041 0.343102 0.334544 0.293739 0.293739 0.255991 0.317899 0.317899 0.360002 
0.332129 0.394362 0.33064 0.34205 0.336303 0.344764 0.38908 0.438328 0.420117 
0.540404 0.423491 0.422769 0.460385 0.472934 0.550178 0.242666 0.229039 0.227629 
0.227629 0.257953 0.292779 0.249246 0.187966 0.150423 0.169893 0.213514 0.211431 
0.195227 0.170746 0.170746 0.193481 0.191619 0.191619 0.171033 0.19801 0.302662 
0.263138 0.324803 0.190734 0.263133 0.524586 0.536663 0.569848 0.663914 0.706743 
0.622227 0.692444 0.762651 0.788431 0.788431 0.460451 0.442134 0.434128 0.418459 
0.512085 0.445781 0.445781 0.418075 0.35975 0.412758 0.381015 0.388577 0.413645 
0.364546 0.417703 0.45296 0.446946 0.446946 0.415908 0.694305 0.726579 0.726579 
0.711915 0.7418 0.6621 0.594847 0.532426 0.532426 0.490161 0.512706 0.486021 
0.431284 0.409218 0.390559 0.38779 0.394201 0.265767 0.348968 0.410678 0.301711 
0.262439 0.309864 0.244221 0.241633 0.223002 0.496199 0.713028 0.593851 0.613847 
0.509787 0.519028 0.450067 0.514891 0.589678 0.662918 0.779326 0.832327 0.539363 
0.716642 0.717961 0.56367 0.43583 0.473827 0.522825 0.67239 0.758154 0.736115 
0.610649 0.364809 0.316396 0.20005 0.304973 0.419552 0.45446 0.387821 0.330443 
0.281199 0.302522 0.239035 0.266265 0.390454 0.390454 0.475476 0.502876 0.502876 
0.495198 0.589293 0.626783 0.606732 0.513433 0.490291 0.457349 0.535682 0.53324 
0.582398 0.544581 0.575933 0.569193 0.614612 0.459933 0.34413 0.448857 0.464727 
0.563776 0.563776 0.661697 0.829433 0.74313 0.64722 0.700978 0.39113 0.545151 
0.594582 0.584499 0.55503 0.531883 0.38536 0.447022 0.394553 0.405998 0.522313 
0.463501 0.361507 0.305258 0.251511 0.286103 0.288841 0.326069 0.299811 0.403792 
0.463805 0.45298 0.492469 0.55329 0.489787 0.421231 0.460669 0.390819 0.404247 
0.459744 0.397259 0.397259 0.388749 0.340799 0.340799 0.347582 0.386156 0.386156 
0.368057 0.329709 0.363664 0.321247 0.318426 0.51537 0.450208 0.397514 0.455232 
0.290992 0.395619 0.471392 0.385568 0.265319 0.265319 0.188281 0.188281 0.154383 
0 0 0.0936705 0.160217 0.125292 0.18575 0.151326 0.151326 0.163121 
0.277009 0.360139 0.338303 0.338523 0.316098 0.288584 0.215257 0.148758 0.149743 