# vtk DataFile Version 3.0
vtk output
ASCII
DATASET POLYDATA
POINTS 421 float
1.01672 0.686922 1.81751 0.922206 0.802716 1.64501 2.07465 0.751977 1.20021 
-0.300414 0.215197 1.20487 2.60139 -0.692541 0.765586 -0.250441 0.755053 1.2657 
2.71985 0.208412 0.792999 2.64886 -1.07892 0.315881 2.50619 -1.18283 0.432122 
1.91001 1.30624 0.703242 1.25473 1.52413 0.78768 -0.102622 -1.03828 0.162084 
1.80594 1.49654 0.550914 2.86434 -0.890253 -0.208801 0.0137855 -1.04178 -0.119693 
2.98613 -0.683968 -0.283201 -0.661263 0.546675 0.191532 -0.72884 0.462148 0.17182 
0.0404166 -1.25593 -0.315715 0.355845 1.76817 0.0605622 1.42713 -1.38781 -0.821143 
4.95341 -0.460869 -0.92497 4.79596 -0.456074 -0.917314 4.59255 -0.401917 -0.963719 
3.0647 0.20282 -0.672121 3.03534 -0.179741 -0.772546 2.42715 -0.940481 -0.949957 
4.81042 -0.578618 -1.15754 4.21974 -0.364498 -1.02304 2.87367 0.148098 -1.01026 
2.72197 0.406643 -1.08731 -0.0942856 -0.254328 -1.07968 4.29887 0.0277043 -1.38995 
4.39511 -0.111295 -1.43077 2.56442 0.71143 -1.13803 2.51596 0.477886 -1.1981 
-0.0713812 1.39171 -0.850487 -0.0184818 1.28496 -0.880987 -0.127677 1.20947 -1.1037 
1.6108 0.471606 -1.85339 1.50172 1.00994 -1.84404 1.55461 0.903182 -1.87454 
1.59415 0.595379 -1.94767 1.5806 0.697049 -2.00449 1.57016 0.777546 -2.00314 
1.56185 0.843875 -1.95194 1.53529 0.965473 -1.85721 1.63545 0.888413 -1.78202 
1.71423 0.877863 -1.71132 1.78488 0.86393 -1.66419 1.84009 0.830687 -1.62157 
1.89552 0.795458 -1.57182 1.96549 0.776157 -1.51074 2.03547 0.756854 -1.44967 
2.0909 0.721626 -1.39992 2.14582 0.690283 -1.36445 2.21531 0.683951 -1.34594 
2.29168 0.688664 -1.33244 2.36809 0.69403 -1.3111 2.43757 0.699636 -1.26641 
2.4956 0.710388 -1.20455 1.51594 0.470392 -1.88565 1.45331 0.497097 -1.91437 
1.40599 0.535996 -1.93792 1.36173 0.573193 -1.94669 1.31816 0.607423 -1.94351 
1.27629 0.639251 -1.92569 1.24114 0.674956 -1.89177 1.21589 0.718509 -1.84082 
1.18096 0.752228 -1.79977 1.13784 0.782491 -1.78232 1.08575 0.806069 -1.78161 
1.01875 0.806455 -1.77113 0.95261 0.801139 -1.73918 0.902202 0.813232 -1.69557 
0.858474 0.83821 -1.66415 0.815353 0.86847 -1.64669 0.771941 0.900631 -1.63639 
0.727412 0.931393 -1.62642 0.676745 0.954479 -1.61823 0.616765 0.965915 -1.61276 
0.56632 0.987016 -1.59744 0.521475 1.01059 -1.56635 0.47248 1.0222 -1.51527 
0.41453 1.02033 -1.45971 0.365603 1.03202 -1.40861 0.321943 1.05708 -1.37718 
0.279112 1.08544 -1.35256 0.236706 1.11207 -1.32076 0.196577 1.1325 -1.26002 
0.163456 1.1549 -1.17602 0.140289 1.18523 -1.07499 0.108293 1.20904 -0.990661 
0.0742402 1.23707 -0.928147 0.0400164 1.27393 -0.89396 1.68393 0.425949 -1.83524 
1.73981 0.385804 -1.81749 1.79448 0.355785 -1.79444 1.86488 0.342939 -1.75213 
1.94147 0.336435 -1.70327 2.01051 0.322758 -1.66368 2.05598 0.28638 -1.65218 
2.0846 0.231184 -1.65265 2.1228 0.185724 -1.64327 2.17528 0.151323 -1.60852 
2.24571 0.137291 -1.5614 2.32181 0.135474 -1.51895 2.39063 0.1448 -1.48858 
2.44759 0.163089 -1.45535 2.51736 0.166795 -1.40351 2.59605 0.158266 -1.32919 
2.6783 0.144075 -1.23198 2.76818 0.137001 -1.12552 -0.112622 1.18757 -0.972073 
-0.0841584 1.19828 -0.886011 -0.0510429 1.23518 -0.862208 -0.037805 1.34725 -0.863658 
2.56303 0.441636 -1.18407 2.62595 0.413031 -1.14819 2.55886 0.759253 -1.01772 
2.55153 0.809392 -0.912064 2.53636 0.854248 -0.822827 2.50517 0.883594 -0.752406 
2.47363 0.914757 -0.689161 2.45611 0.965732 -0.628895 2.44 1.01621 -0.561146 
2.41572 1.05645 -0.495773 2.39932 1.10882 -0.435181 2.38116 1.16351 -0.389237 
2.34756 1.19889 -0.347796 2.30833 1.22271 -0.293863 2.27321 1.24941 -0.23165 
2.24098 1.28198 -0.175675 2.19068 1.29647 -0.139107 2.14969 1.3226 -0.0998225 
2.12388 1.36094 -0.0349037 2.09099 1.38137 0.0562254 2.05341 1.38462 0.181336 
2.01467 1.37737 0.334385 1.96977 1.35336 0.513914 2.61147 0.654398 -1.05537 
2.65609 0.604072 -1.00408 2.69174 0.555102 -0.998069 2.7101 0.488871 -1.03175 
4.37572 -0.0490888 -1.41346 4.34089 -0.00619272 -1.40065 4.42728 -0.190773 -1.34069 
4.48347 -0.243473 -1.2368 4.53919 -0.310487 -1.11113 4.32519 -0.158743 -1.2948 
4.26374 -0.206817 -1.19003 4.22685 -0.274531 -1.10681 -0.136402 -0.229599 -1.04072 
-0.176753 -0.207186 -0.987118 -0.209842 -0.175693 -0.931385 -0.228363 -0.119186 -0.892617 
-0.248556 -0.0511955 -0.896747 -0.28394 0.00458537 -0.926523 -0.32038 0.0590422 -0.956598 
-0.346643 0.11944 -0.962498 -0.374439 0.173397 -0.954713 -0.392639 0.237093 -0.937056 
-0.411894 0.299469 -0.919707 -0.44518 0.342031 -0.89938 -0.477819 0.380879 -0.86473 
-0.494149 0.433338 -0.804118 -0.502705 0.490993 -0.727095 -0.510904 0.546832 -0.642896 
-0.524882 0.593181 -0.553322 -0.547723 0.623917 -0.452189 -0.562388 0.655656 -0.32044 
-0.58288 0.668021 -0.162921 -0.625039 0.625651 0.0116198 2.8285 0.257159 -1.03213 
2.78749 0.343545 -1.05814 2.94721 0.180275 -0.875843 3.01518 0.189833 -0.765607 
2.92714 0.0405262 -0.950493 2.97495 -0.0337234 -0.884718 3.01315 -0.0991445 -0.823871 
4.26031 -0.447214 -0.916256 4.33124 -0.483614 -0.823979 4.40987 -0.484787 -0.791682 
4.49395 -0.455334 -0.848629 4.80372 -0.521633 -1.04242 2.40363 -0.851751 -1.03281 
2.36413 -0.787544 -1.1062 2.31146 -0.742074 -1.17636 2.24711 -0.711209 -1.24993 
2.18438 -0.676059 -1.33008 2.11181 -0.657745 -1.39899 2.03502 -0.651497 -1.4479 
1.96447 -0.646487 -1.46672 1.90487 -0.632312 -1.46821 1.84239 -0.624011 -1.46347 
1.78308 -0.611737 -1.45781 1.71304 -0.610609 -1.46234 1.63631 -0.613509 -1.48301 
1.55932 -0.615073 -1.51866 1.49042 -0.624478 -1.54905 1.43441 -0.64839 -1.56079 
1.36814 -0.665812 -1.55507 1.29994 -0.667866 -1.55285 1.24076 -0.656373 -1.55506 
1.18071 -0.666034 -1.54753 1.12873 -0.698464 -1.51568 1.07071 -0.721427 -1.45807 
1.01434 -0.72887 -1.38873 0.946939 -0.744994 -1.32891 0.872799 -0.764844 -1.28516 
0.79779 -0.778994 -1.26287 0.72856 -0.783654 -1.24596 0.668934 -0.778563 -1.21918 
0.600864 -0.790821 -1.17366 0.527237 -0.814557 -1.11562 0.45285 -0.841509 -1.05073 
0.37987 -0.868959 -0.978366 0.314442 -0.889231 -0.896718 0.2651 -0.893903 -0.796254 
0.217285 -0.900376 -0.683542 0.160322 -0.9286 -0.537882 0.0993706 -0.969968 -0.346968 
2.49319 -0.922214 -0.947782 2.54614 -0.895893 -0.935265 2.59625 -0.872504 -0.900402 
2.63226 -0.849618 -0.814478 2.69611 -0.859891 -0.670998 2.77821 -0.884422 -0.46301 
2.38874 -1.01636 -0.799815 2.33693 -1.07386 -0.68259 2.28725 -1.12114 -0.616439 
2.23167 -1.15393 -0.592215 2.1868 -1.18795 -0.599431 2.13999 -1.21716 -0.620626 
2.07414 -1.22883 -0.651739 2.00685 -1.23944 -0.68251 1.94977 -1.25595 -0.722935 
1.8824 -1.26649 -0.753686 1.81503 -1.27703 -0.784436 1.75874 -1.29919 -0.803374 
1.6908 -1.31436 -0.812322 1.61671 -1.32664 -0.812581 1.54906 -1.34372 -0.814375 
1.49334 -1.36966 -0.819008 4.70143 -0.420398 -0.937245 4.88961 -0.445879 -0.918403 
0.435494 1.75191 0.152732 0.508197 1.73376 0.221661 0.570729 1.70968 0.266419 
0.642859 1.69534 0.321047 0.721638 1.68478 0.391758 0.800997 1.67044 0.476762 
0.873997 1.65039 0.552859 0.937689 1.61871 0.626231 1.01061 1.59857 0.702297 
1.0885 1.58464 0.779809 1.15902 1.57054 0.826896 1.21123 1.54712 0.826231 
0.0340224 -1.20198 -0.214198 0.0254062 -1.13263 -0.149401 -0.695052 0.504412 0.181676 
-0.627719 0.524156 0.391285 -0.599477 0.478702 0.577487 -0.551593 0.419773 0.743979 
-0.487077 0.37075 0.885579 -0.428868 0.315091 1.0065 -0.36677 0.263386 1.10914 
2.97338 -0.843174 -0.260545 3.02151 -0.788012 -0.289263 3.01791 -0.72836 -0.291683 
2.98054 -0.645228 -0.134625 2.9691 -0.616066 0.019316 2.9474 -0.602014 0.177333 
2.92677 -0.588872 0.342737 2.88775 -0.594212 0.488633 2.82502 -0.622422 0.606406 
2.7524 -0.651689 0.685946 2.67737 -0.674923 0.736506 2.92551 -0.727432 -0.207918 
2.88696 -0.792236 -0.18215 -0.052985 -1.03783 0.0195739 2.75613 -0.993767 0.0513745 
1.84941 1.45315 0.575978 1.88685 1.39315 0.627549 -0.0625407 -1.03775 0.329338 
-0.0253434 -1.02666 0.461173 0.00224109 -0.998311 0.551956 0.0167186 -0.953471 0.616968 
0.0434332 -0.919421 0.686291 0.0789771 -0.896992 0.775178 0.118637 -0.884362 0.891976 
0.168066 -0.880685 1.01367 0.238171 -0.889022 1.116 0.314784 -0.893776 1.18066 
0.383819 -0.886291 1.2182 0.439592 -0.869486 1.25109 0.502024 -0.874942 1.3008 
0.563819 -0.903532 1.36741 0.6355 -0.924277 1.45102 0.704663 -0.925855 1.51683 
0.761837 -0.909547 1.5572 0.829576 -0.89254 1.55897 0.905101 -0.881326 1.55889 
0.980916 -0.872013 1.56596 1.04952 -0.860707 1.58919 1.1059 -0.838611 1.60811 
1.17386 -0.82359 1.61702 1.24828 -0.813923 1.61657 1.3182 -0.814844 1.62116 
1.37797 -0.830132 1.63769 1.43859 -0.832547 1.68061 1.48555 -0.812555 1.73004 
1.53276 -0.785463 1.75833 1.5981 -0.761619 1.73901 1.67182 -0.739087 1.69598 
1.74594 -0.719088 1.65227 1.81481 -0.712614 1.62819 1.87383 -0.722988 1.61537 
1.93632 -0.731289 1.61063 1.99556 -0.743647 1.60495 2.06376 -0.74254 1.5948 
2.13026 -0.73904 1.57003 2.18015 -0.74725 1.51214 2.22303 -0.757442 1.43098 
2.27036 -0.757559 1.337 2.32833 -0.746609 1.25318 2.38349 -0.74145 1.17562 
2.44294 -0.73092 1.09931 2.49752 -0.72196 1.00743 2.5544 -0.703327 0.895023 
-0.148483 -0.979763 0.0797699 -0.187046 -0.921174 0.027871 -0.213796 -0.85912 0.0147569 
-0.243902 -0.808054 0.0218686 -0.2755 -0.761116 0.0356169 -0.319211 -0.731594 0.0529033 
-0.342616 -0.681197 0.0902465 -0.352353 -0.623085 0.159766 -0.355711 -0.571972 0.257848 
-0.340514 -0.541144 0.380472 -0.291385 -0.538929 0.509465 -0.243438 -0.535834 0.63874 
-0.195695 -0.530901 0.760828 -0.145915 -0.524118 0.868001 -0.121896 -0.496482 0.974073 
-0.10409 -0.459174 1.05997 -0.102048 -0.405083 1.12794 -0.108922 -0.339307 1.17637 
-0.117299 -0.272548 1.22513 -0.126368 -0.211006 1.28786 -0.142407 -0.160451 1.35563 
-0.174534 -0.125487 1.40457 -0.209234 -0.0824298 1.41741 -0.236146 -0.0172637 1.39362 
-0.265045 0.0519664 1.34416 -0.280767 0.136942 1.27916 1.92488 1.2067 0.783577 
1.94569 1.11625 0.859523 1.97827 1.03253 0.947722 2.01547 0.914737 1.06285 
2.65309 -1.0285 0.464603 2.66844 -0.992248 0.588661 2.67035 -0.947466 0.689964 
2.6575 -0.899676 0.769656 2.63256 -0.853634 0.813577 2.61481 -0.782585 0.81016 
2.57896 -1.14199 0.373544 2.67745 0.235041 0.824799 2.63616 0.26307 0.856926 
2.60043 0.302574 0.87654 2.57372 0.355628 0.891715 2.5377 0.397033 0.904173 
2.4967 0.423161 0.943456 2.45545 0.44219 1.00387 2.4145 0.459319 1.07144 
2.37408 0.481645 1.12504 2.33864 0.519251 1.1518 2.31164 0.574206 1.15982 
2.27465 0.621103 1.15186 2.22942 0.658812 1.15276 2.16819 0.699166 1.16814 
-0.260464 0.851808 1.19209 -0.252226 0.928238 1.14303 -0.209187 0.970357 1.12179 
-0.166295 1.00753 1.12225 -0.119832 1.03855 1.13628 -0.0539382 1.04951 1.15953 
0.0160033 1.04016 1.20023 0.0783566 1.0162 1.24503 0.148385 1.00679 1.28571 
0.21603 1.01463 1.31573 0.271728 1.03135 1.3486 0.333816 1.02772 1.39113 
0.393636 1.00327 1.43591 0.457709 0.983549 1.4741 0.516993 0.962191 1.4967 
0.580572 0.946205 1.52056 0.641555 0.922447 1.55779 0.712074 0.90835 1.60489 
0.781179 0.89475 1.64449 0.833907 0.867456 1.65811 0.878794 0.834877 1.65531 
1.97706 0.641322 1.32928 1.90433 0.5709 1.44172 1.85193 0.519759 1.52559 
1.79555 0.494581 1.59679 1.74747 0.499766 1.66148 1.70463 0.518895 1.71432 
1.66084 0.543789 1.74571 1.60927 0.563483 1.76071 1.54197 0.565768 1.76404 
1.47468 0.568052 1.76738 1.42275 0.589563 1.77519 1.37668 0.620658 1.77765 
1.325 0.649274 1.76434 1.26239 0.668729 1.73369 1.20317 0.690171 1.7111 
1.14075 0.698557 1.71586 1.08296 0.701414 1.75732 0.983862 0.761698 1.73899 
0.955357 0.726043 1.73068 
LINES 42 507
6 39 42 43 44 45 41 
3 41 46 40 
16 41 47 48 49 50 51 52 53 54 55 56 57 58 59 60 34 
36 39 61 62 63 64 65 66 67 68 69 70 71 72 73 74 75 76 77 78 79 80 81 82 83 84 85 86 87 88 89 90 91 92 93 94 37 
20 39 95 96 97 98 99 100 101 102 103 104 105 106 107 108 109 110 111 112 29 
5 38 113 114 115 37 
3 37 116 36 
4 35 117 118 30 
23 34 119 120 121 122 123 124 125 126 127 128 129 130 131 132 133 134 135 136 137 138 139 9 
6 34 140 141 142 143 30 
4 33 144 145 32 
5 33 146 147 148 23 
23 31 152 153 154 155 156 157 158 159 160 161 162 163 164 165 166 167 168 169 170 171 172 16 
4 29 173 174 30 
4 29 175 176 24 
5 29 177 178 179 25 
3 27 184 22 
39 26 185 186 187 188 189 190 191 192 193 194 195 196 197 198 199 200 201 202 203 204 205 206 207 208 209 210 211 212 213 214 215 216 217 218 219 220 221 14 
8 26 222 223 224 225 226 227 13 
18 26 228 229 230 231 232 233 234 235 236 237 238 239 240 241 242 243 20 
3 23 244 22 
3 22 245 21 
14 19 246 247 248 249 250 251 252 253 254 255 256 257 10 
4 18 258 259 14 
3 17 260 16 
5 13 267 268 269 15 
10 15 270 271 272 273 274 275 276 277 4 
4 15 278 279 13 
3 14 280 11 
3 13 281 7 
4 12 282 283 9 
48 11 284 285 286 287 288 289 290 291 292 293 294 295 296 297 298 299 300 301 302 303 304 305 306 307 308 309 310 311 312 313 314 315 316 317 318 319 320 321 322 323 324 325 326 327 328 329 4 
6 9 356 357 358 359 2 
8 7 360 361 362 363 364 365 4 
3 8 366 7 
16 6 367 368 369 370 371 372 373 374 375 376 377 378 379 380 2 
23 5 381 382 383 384 385 386 387 388 389 390 391 392 393 394 395 396 397 398 399 400 401 1 
19 2 402 403 404 405 406 407 408 409 410 411 412 413 414 415 416 417 418 0 
3 1 419 0 
3 1 420 0 
10 33 149 150 151 28 180 181 182 183 23 
35 16 261 262 263 264 265 266 3 355 354 353 352 351 350 349 348 347 346 345 344 343 342 341 340 339 338 337 336 335 334 333 332 331 330 11 

POINT_DATA 421
SCALARS DY_raw double
LOOKUP_TABLE default
469.186 387.506 322.538 294.489 300.982 296.237 304.033 393.225 360.439 
352.691 263.561 314.959 236.689 400.861 339.652 458.256 269.369 261.129 
346.078 169.477 264.476 416.01 368.294 322.502 597.613 307.965 217.363 
279.801 265.171 283.746 273.916 318.626 269.61 204.955 274.724 265.348 
206.779 236.967 178.181 325.206 407 334.893 302.251 299.092 305.277 
325.437 324.076 312.05 295.699 310.761 319.624 348.839 383.604 358.898 
344.038 356.217 299.313 299.908 285.799 258.075 258.328 326.385 338.251 
331.806 357.901 373.449 373.449 385.485 391.599 393.218 377.041 345.817 
357.934 313.891 340.396 298.657 265.174 265.174 245.811 251.983 251.983 
251.849 260.999 292.087 320.83 320.83 325.653 279.329 279.329 285.423 
272.376 259.337 293.329 311.201 257.205 332.818 304.517 316.235 327.094 
341.193 334.417 349.741 349.741 333.837 327.299 348.01 312.995 310.41 
289.553 299.477 279.364 271.153 286.958 214.93 236.491 253.432 241.21 
262.134 249.209 333.069 366.093 347.62 371.973 303.98 354.145 328.402 
321.871 344.396 318.473 324.028 343.788 312.749 307.132 331.282 265.777 
288.838 308.073 276.249 332.996 362.617 320.187 331.687 368.162 303.239 
226.666 269.61 237.17 257.449 280.821 260.463 281.395 277.252 318.626 
283.03 309.135 286.528 330.575 309.88 349.413 352.803 365.135 343.712 
274.29 288.783 288.783 345.9 324.935 349.841 362.524 251.932 285.794 
289.71 269.518 275.976 299.749 360.042 446.764 289.509 275.03 302.683 
302.411 319.797 293.099 325.375 297.533 220.684 218.789 217.586 225.639 
208.604 226.813 201.408 186.905 212.068 212.068 231.743 241.39 229.166 
213.971 214.068 219.711 222.991 234.153 250.623 274.302 294.536 299.581 
289.327 331.387 322.065 328.66 292.665 263.377 273.233 251.505 303.396 
313.306 278.36 321.43 289.162 349.811 359.319 216.488 207.115 246.652 
304.501 435.423 365.774 245.645 265.617 259.032 255.501 262.21 262.66 
257.09 257.09 258.184 258.184 243.97 257.001 264.677 274.563 298.254 
295.517 364.386 388.681 218.279 222.412 227.434 220.684 210.041 213.176 
230.006 253.204 240.974 227.752 245.598 249.95 352.734 355.54 263.301 
302.607 314.385 328.296 310.007 298.856 289.414 463.721 445.936 407.174 
332.811 412.228 419.75 442.09 486.435 334.973 344.687 376.932 383.238 
377.957 332.435 367.777 249.013 338.168 343.832 336.386 338.433 310.772 
325.233 347.146 314.634 320.677 352.001 334.755 350.497 320.42 327.028 
323.226 321.257 337.748 353.111 357.852 341.772 341.329 352.869 430.043 
414.063 379.228 337.14 295.234 308.004 311.628 324.875 331.835 326.757 
319.04 322.118 309.09 309.09 313.058 317.649 299.226 291.685 312.801 
257.016 295.841 336.628 275.02 321.439 323.758 323.22 297.409 318.754 
346.183 346.183 303.005 319.838 299.553 295.181 283.699 305.502 312.454 
367.799 324.587 294.702 264.903 241.995 267.82 253.439 299.732 356.195 
371.176 377.365 356.495 338.705 310.331 356.877 310.176 288.248 294.476 
480.191 552.856 481.293 441.272 405.866 391.999 348.101 295.101 295.101 
304.911 307.665 307.665 309.696 388.654 455.227 557.274 557.274 476.986 
406.525 327.319 316.517 258.095 241.771 241.771 228.671 229.107 239.03 
268.902 298.822 336.154 332.624 346.217 319.972 300.46 291.974 308.153 
308.153 343.526 353.516 376.76 376.76 394.474 260.298 298.01 305.231 
362.725 418.483 442.685 441.366 418.201 418.201 429.49 451.584 447.637 
453.605 434.988 377.878 421.291 456.105 419.151 410.287 
FIELD FieldData 7
DY_minmax 1 421 double
0.700032 0.509252 0.357504 0.291991 0.307156 0.296074 0.314283 0.52261 0.446031 
0.427932 0.219751 0.339802 0.156986 0.540444 0.397477 0.674503 0.233318 0.214072 
0.412487 0 0.221888 0.575828 0.464379 0.357421 1 0.323467 0.111848 
0.257684 0.223512 0.266897 0.243938 0.348369 0.23388 0.0828646 0.245825 0.223927 
0.0871254 0.157637 0.0203287 0.363737 0.554784 0.386362 0.310121 0.302742 0.317188 
0.364275 0.361098 0.333007 0.294817 0.329998 0.3507 0.418936 0.500136 0.442432 
0.407723 0.43617 0.303259 0.304648 0.271693 0.206939 0.207528 0.36649 0.394207 
0.379152 0.440103 0.476419 0.476419 0.50453 0.51881 0.522594 0.484808 0.411879 
0.440179 0.337308 0.399216 0.301726 0.223518 0.223518 0.178293 0.192709 0.192709 
0.192397 0.213769 0.28638 0.353516 0.353516 0.364779 0.256582 0.256582 0.270814 
0.240342 0.209887 0.289282 0.331024 0.204907 0.381517 0.315413 0.342783 0.368146 
0.401077 0.385252 0.421042 0.421042 0.383895 0.368625 0.416999 0.335215 0.329177 
0.280461 0.303642 0.256663 0.237485 0.274401 0.106164 0.156524 0.196093 0.167545 
0.216419 0.18623 0.382102 0.459237 0.416088 0.47297 0.31416 0.431329 0.371201 
0.355946 0.408559 0.348009 0.360985 0.407139 0.33464 0.32152 0.377928 0.224928 
0.278792 0.323718 0.249386 0.381933 0.451118 0.352013 0.378875 0.464069 0.312428 
0.133575 0.23388 0.158109 0.205476 0.260067 0.212516 0.261406 0.251729 0.348369 
0.265227 0.326199 0.273396 0.376276 0.327939 0.420277 0.428194 0.456999 0.40696 
0.244812 0.278664 0.278664 0.412072 0.363103 0.421278 0.450901 0.19259 0.271682 
0.280829 0.233666 0.24875 0.304277 0.445104 0.647661 0.280358 0.246541 0.31113 
0.310494 0.351103 0.288745 0.364132 0.299099 0.119603 0.115178 0.112369 0.131178 
0.091387 0.133919 0.0745814 0.0407049 0.0994795 0.0994795 0.145433 0.167967 0.139414 
0.103925 0.104151 0.11733 0.124993 0.151062 0.189532 0.24484 0.2921 0.303883 
0.279934 0.378173 0.3564 0.371803 0.287731 0.219321 0.242343 0.191593 0.312795 
0.335941 0.254319 0.354916 0.279547 0.421206 0.443414 0.109803 0.0879112 0.180258 
0.315377 0.621172 0.458491 0.177905 0.224554 0.209173 0.200926 0.216596 0.217648 
0.204637 0.204637 0.207192 0.207192 0.173993 0.204429 0.222358 0.245449 0.300784 
0.294392 0.45525 0.511997 0.113985 0.12364 0.135369 0.119604 0.0947436 0.102068 
0.141377 0.195561 0.166996 0.136112 0.177796 0.187961 0.428033 0.434589 0.219144 
0.310951 0.338461 0.370954 0.328236 0.30219 0.280136 0.687268 0.645727 0.55519 
0.3815 0.566994 0.584563 0.636743 0.74032 0.386549 0.409238 0.484554 0.499283 
0.486947 0.380622 0.463171 0.185772 0.394012 0.407241 0.38985 0.39463 0.330022 
0.363801 0.414982 0.339044 0.353159 0.426321 0.38604 0.422808 0.352557 0.367993 
0.359113 0.354512 0.39303 0.428915 0.439987 0.402429 0.401394 0.428349 0.608605 
0.57128 0.489917 0.391611 0.29373 0.323557 0.332023 0.362964 0.37922 0.367359 
0.349335 0.356524 0.326095 0.326095 0.335362 0.346086 0.303055 0.28544 0.334762 
0.204464 0.295147 0.390414 0.246516 0.354937 0.360355 0.359098 0.298811 0.348666 
0.412733 0.412733 0.311881 0.351197 0.30382 0.293607 0.266789 0.317713 0.333952 
0.463222 0.362291 0.292488 0.222886 0.16938 0.229699 0.196109 0.304237 0.436119 
0.471108 0.485565 0.436819 0.395266 0.328993 0.43771 0.32863 0.277415 0.29196 
0.725737 0.895461 0.728311 0.634834 0.552135 0.519745 0.417212 0.29342 0.29342 
0.316333 0.322766 0.322766 0.32751 0.511932 0.667427 0.905781 0.905781 0.718251 
0.553674 0.368672 0.343441 0.206984 0.168856 0.168856 0.13826 0.139277 0.162455 
0.232227 0.302111 0.389307 0.381064 0.412813 0.351511 0.305938 0.286115 0.323905 
0.323905 0.406527 0.429861 0.484151 0.484151 0.525526 0.21213 0.300214 0.31708 
0.45137 0.581604 0.638134 0.635053 0.580945 0.580945 0.607313 0.658918 0.6497 
0.66364 0.620156 0.486763 0.588162 0.669479 0.583166 0.56246 
WidthEq 1 421 double
3.05316 3.70561 5.32042 3.7999 4.04695 3.01251 5.4197 3.84077 2.64163 
7.36535 4.23514 5.18851 7.34601 3.26417 5.77577 2.72194 6.74765 4.05186 
1 3.96535 2.92215 2.70041 4.1574 5.00319 2.03081 3.8892 8.2137 
2.55513 5.76051 5.09808 4.98838 3.75222 2.85182 4.30382 5.94855 5.29066 
6.26035 6.43366 4.90422 4.60322 2.46938 3.76099 4.71882 4.133 3.92705 
3.7866 3.8685 4.3975 5.08712 4.87158 5.00349 4.62491 4.07626 4.294 
4.42409 4.18823 5.08146 4.98332 5.35397 5.89846 5.78536 4.11517 4.01665 
3.82762 3.59319 3.45259 3.45259 3.70282 3.76462 4.0536 4.9837 5.16804 
5.41751 6.07751 5.82782 6.6458 6.52681 6.52681 6.76344 6.41522 6.41522 
5.70165 5.36598 4.94479 4.71935 4.71935 4.63057 5.05116 5.05116 5.2247 
6.05493 6.46713 6.25075 6.04246 6.57652 4.48574 5.14122 4.78137 4.52291 
4.35345 4.6444 4.51846 4.51846 4.45741 3.98394 4.23439 4.48892 4.48114 
4.98392 4.96972 5.20241 5.5986 5.76466 4.88646 5.81573 6.42172 6.64384 
5.26142 5.3134 5.44773 4.93043 4.69101 4.53538 4.81537 4.40551 4.64848 
4.79633 4.69366 4.8162 4.80819 4.53991 4.71307 4.78719 4.66744 4.94101 
4.87777 4.93126 6.23489 5.72945 6.17565 5.71291 4.92514 4.16843 4.58638 
3.75623 2.85182 4.49859 4.7927 5.40678 4.71874 4.88012 5.41479 3.75222 
5.55947 5.39786 5.98398 5.28824 5.28537 4.3156 3.87613 3.71249 3.66277 
3.89743 3.62538 3.62538 3.39464 3.38301 3.52671 3.67222 5.05131 5.07897 
5.69531 6.55666 5.43224 4.67334 4.30457 3.19905 5.37165 5.22047 4.78893 
5.66463 5.5467 5.43443 4.81265 3.83601 8.31071 8.04303 8.07968 7.47444 
7.19694 6.99258 7.30778 7.49937 7.19324 7.19324 6.88983 6.59405 6.61944 
6.49614 6.4227 6.0921 5.74985 5.23483 4.86108 4.40513 4.39705 4.28969 
4.39962 4.05329 4.22305 4.27654 4.84317 5.45188 5.57087 5.79601 5.12603 
4.91283 4.74352 4.56998 5.1586 5.07239 5.11259 7.79326 6.74024 6.4663 
5.33327 3.29817 3.68861 6.47279 6.13048 5.28567 4.94917 5.10601 4.8094 
5.12112 5.12112 5.22712 5.22712 5.64884 5.63585 5.62028 5.29663 4.11827 
4.05783 4.6067 3.36458 5.61039 7.2629 7.29433 7.45019 7.71378 7.7669 
7.43984 6.76963 6.64747 6.98404 6.62382 5.45475 3.77043 4.92394 6.14475 
5.89491 5.3514 5.04693 4.80872 4.54135 4.20356 2.42337 2.24998 3.15742 
4.71768 4.03796 3.57279 3.20577 2.93258 3.97691 3.99829 3.80662 4.15582 
4.07686 5.84444 3.69065 7.92601 7.48305 4.97161 4.99488 4.98808 4.59945 
4.50002 3.96853 3.66224 3.58073 2.95169 2.73728 2.58467 2.56095 2.40584 
2.21878 2.21613 2.09321 1.80257 1.68418 1.51548 1.57124 1.6319 1.84065 
1.95337 2.12109 2.40629 2.67337 2.88136 3.04031 3.04606 3.00881 2.99816 
2.88521 2.92389 2.99717 2.99717 2.88936 2.91022 3.03676 3.38324 3.72556 
4.1497 4.19661 4.09137 4.41095 4.49292 4.39667 5.38948 5.56135 4.93995 
5.14507 5.14507 5.71888 5.70067 5.77569 5.44289 5.50688 4.99329 4.03758 
3.64525 3.5465 3.16845 3.60332 3.20192 2.89881 2.89722 2.72376 2.50028 
2.4418 2.66709 2.72693 3.05678 3.32325 6.77054 6.53671 6.06747 5.68216 
3.16769 2.55339 2.58271 2.86541 3.50706 3.79944 4.20613 5.58591 5.58591 
5.13313 4.6651 4.6651 3.53517 3.11866 2.6204 2.17239 2.17239 2.78526 
3.40734 4.24338 4.65248 3.63165 4.75342 4.75342 5.21616 5.31279 5.06061 
4.45983 4.15053 3.65484 3.52346 3.25541 3.37198 3.68823 3.77746 3.98477 
3.98477 4.03395 4.14871 4.2087 4.2087 3.91526 5.3245 4.8097 4.56401 
4.01582 3.68854 3.40031 3.57702 3.75766 3.75766 3.52097 3.29008 3.12183 
3.13913 3.17691 3.18817 3.31184 3.15968 3.64925 3.58556 
rRFP 1 421 double
2660.06 2746.42 2960.16 2758.9 2791.6 2654.68 2973.3 2764.31 2605.59 
3230.83 2816.51 2942.7 3228.27 2687.99 3020.43 2616.22 3149.07 2792.25 
2388.3 2780.8 2642.72 2613.37 2806.22 2918.17 2524.74 2770.72 3343.12 
2594.14 3018.41 2930.73 2916.21 2752.59 2633.41 2825.6 3043.3 2956.22 
3084.57 3107.51 2905.07 2865.23 2582.79 2753.75 2880.53 2802.99 2775.73 
2757.14 2767.98 2838 2929.28 2900.75 2918.21 2868.1 2795.48 2824.3 
2841.52 2810.3 2928.53 2915.54 2964.6 3036.67 3021.7 2800.63 2787.59 
2762.57 2731.54 2712.93 2712.93 2746.05 2754.23 2792.48 2915.59 2939.99 
2973.01 3060.37 3027.32 3135.59 3119.84 3119.84 3151.16 3105.07 3105.07 
3010.62 2966.19 2910.44 2880.6 2880.6 2868.85 2924.52 2924.52 2947.49 
3057.38 3111.94 3083.3 3055.73 3126.42 2849.68 2936.44 2888.81 2854.6 
2832.17 2870.68 2854.01 2854.01 2845.93 2783.26 2816.41 2850.1 2849.07 
2915.62 2913.74 2944.54 2996.98 3018.96 2902.72 3025.72 3105.93 3135.33 
2952.35 2959.23 2977.01 2908.54 2876.85 2856.25 2893.31 2839.06 2871.22 
2890.79 2877.2 2893.42 2892.36 2856.85 2879.77 2889.58 2873.73 2909.94 
2901.57 2908.65 3081.2 3014.3 3073.36 3012.11 2907.84 2807.68 2863 
2753.12 2633.41 2851.38 2890.31 2971.59 2880.52 2901.88 2972.65 2752.59 
2991.8 2970.41 3047.99 2955.9 2955.52 2827.16 2768.99 2747.33 2740.75 
2771.81 2735.8 2735.8 2705.26 2703.72 2722.74 2742 2924.54 2928.2 
3009.78 3123.79 2974.96 2874.51 2825.7 2679.37 2966.94 2946.93 2889.81 
3005.72 2990.11 2975.25 2892.95 2763.68 3355.96 3320.53 3325.38 3245.27 
3208.54 3181.49 3223.21 3248.57 3208.05 3208.05 3167.89 3128.74 3132.1 
3115.78 3106.06 3062.3 3017 2948.83 2899.36 2839.01 2837.94 2823.73 
2838.28 2792.44 2814.91 2821.99 2896.99 2977.56 2993.31 3023.11 2934.43 
2906.21 2883.8 2860.83 2938.74 2927.33 2932.65 3287.47 3148.09 3111.83 
2961.86 2692.49 2744.17 3112.69 3067.38 2955.56 2911.02 2931.78 2892.52 
2933.78 2933.78 2947.81 2947.81 3003.63 3001.91 2999.85 2957.01 2801.04 
2793.04 2865.69 2701.28 2998.54 3217.27 3221.43 3242.06 3276.95 3283.98 
3240.69 3151.98 3135.81 3180.36 3132.68 2977.94 2755 2907.68 3069.27 
3036.2 2964.26 2923.96 2892.43 2857.04 2812.33 2576.7 2553.75 2673.86 
2880.38 2790.41 2728.84 2680.26 2644.1 2782.33 2785.16 2759.79 2806.01 
2795.56 3029.52 2744.44 3305.04 3246.41 2913.99 2917.07 2916.17 2864.73 
2851.57 2781.22 2740.68 2729.89 2646.63 2618.25 2598.05 2594.91 2574.38 
2549.62 2549.27 2533 2494.53 2478.86 2456.53 2463.91 2471.94 2499.57 
2514.49 2536.69 2574.44 2609.79 2637.32 2658.36 2659.12 2654.19 2652.78 
2637.83 2642.95 2652.65 2652.65 2638.38 2641.14 2657.89 2703.75 2749.06 
2805.2 2811.41 2797.48 2839.78 2850.63 2837.89 2969.3 2992.05 2909.8 
2936.95 2936.95 3012.9 3010.49 3020.42 2976.37 2984.84 2916.86 2790.36 
2738.43 2725.36 2675.32 2732.88 2679.75 2639.63 2639.42 2616.46 2586.88 
2579.14 2608.96 2616.88 2660.54 2695.81 3152.1 3121.15 3059.04 3008.04 
2675.22 2593.91 2597.79 2635.21 2720.14 2758.84 2812.67 2995.3 2995.3 
2935.37 2873.42 2873.42 2723.86 2668.73 2602.78 2543.48 2543.48 2624.6 
2706.94 2817.6 2871.75 2736.63 2885.11 2885.11 2946.36 2959.15 2925.77 
2846.25 2805.31 2739.7 2722.31 2686.83 2702.26 2744.12 2755.93 2783.37 
2783.37 2789.88 2805.07 2813.01 2813.01 2774.17 2960.7 2892.56 2860.04 
2787.48 2744.16 2706.01 2729.4 2753.31 2753.31 2721.98 2691.42 2669.15 
2671.44 2676.44 2677.93 2694.3 2674.16 2738.96 2730.53 
rGFP 1 421 double
3943.56 3947.01 4227.1 3630.09 3729.12 3403.48 4158.83 4021.35 3463.21 
5108.75 3627.28 4145.23 4249.78 3819.54 4472.81 3758.41 4328.67 3569.12 
2857.14 3183.1 3283.9 3634.46 4042.21 4124.6 3724.7 3708.8 4296.42 
3225.99 4038.58 3957.62 3877.46 3706.62 3279.94 3393.15 4145.27 3914.93 
3805.57 4035.63 3384.9 4008.06 3516.1 3770.59 3937.33 3747.21 3709.9 
3743.36 3764.75 3883.3 4015.32 4024.96 4110.3 4124.41 4074.73 4052.17 
4033.12 4002.98 4032.01 4005.6 4041.22 4033.31 4005.58 3854.19 3869.7 
3781.09 3797.07 3800.43 3800.43 3938.44 3985.28 4105.01 4390.12 4298.26 
4450.17 4418.74 4494.83 4495.88 4241.8 4241.8 4173.59 4127.59 4127.59 
3947.02 3911.58 3955.37 4025.17 4025.17 4019.02 3922 3922 4002.31 
4160.28 4188.23 4344.59 4391.48 4202.58 4004 4076.65 4023.1 3990.48 
3996.43 4064.23 4091.35 4091.35 3999.11 3815 3984.67 3916.07 3902.05 
3954.17 3999.38 3964.43 4029.14 4165.28 3561.31 3886.43 4138.53 4113.62 
3890.26 3835.21 4325.53 4316.06 4141.75 4198.1 3974.84 4071.25 4037.63 
4054.86 4127.54 4044.89 4069.05 4071.83 3985.07 3981.36 4057.3 3824.27 
3919.95 4030.25 4233.44 4418.95 4750.46 4340.26 4144.67 4045.72 3901.83 
3362.47 3279.94 3577.99 3744.94 4029.4 3740.12 3884.3 4012.32 3706.62 
4084.56 4179.73 4225.64 4259.22 4148.89 4018.99 3878.57 3866.62 3770 
3580.09 3558.01 3558.01 3685.27 3610.32 3744.85 3842.33 3783.65 3962.6 
4161.05 4278.2 4010.23 3911.89 4060.89 3940.28 4066.2 3946.85 3960.59 
4224.11 4284.88 4103.89 4076.98 3652.4 4345.1 4270.79 4269.09 4197.59 
4012.37 4097.07 3982.91 3912.73 4036.52 4036.52 4107.73 4102.8 4028.01 
3901.05 3885.96 3849.56 3793.23 3736.81 3729.36 3719.4 3806.15 3796.17 
3783.99 3854.27 3871.16 3916.59 3928.49 3946.96 4033.21 3968.79 4066.28 
4050.28 3831.47 3979.99 4002.73 4285.44 4348.11 4198.21 3907.07 4105.99 
4135.05 3947.16 3860.26 4101.07 4139.42 3880.22 3775.58 3849.91 3774.3 
3827.65 3827.65 3860.62 3860.62 3889.21 3959.48 3998.62 3965.32 3739.35 
3710.22 4189.68 3818.81 3735.69 4126.42 4170.04 4155.2 4131.27 4166.78 
4222.27 4225.16 4112.93 4101.69 4137.86 3874.48 3841.02 4261.72 4128.98 
4294.9 4193.46 4167.95 4001.8 3868.27 3727.63 3634.83 3514.41 3796.68 
4081.16 4175.62 4010.74 3928.3 3937.57 3843.22 3889.22 3945.9 4103.73 
4051.94 4453.96 3868.4 4484.74 5041.59 4220.46 4191.27 4199.19 3940.44 
3974.62 3888.72 3663.33 3659.32 3550.06 3427.38 3416.98 3331.64 3297.84 
3228.23 3223.01 3218.04 3147.57 3113.75 3029.01 3047.37 3086.91 3302.62 
3319.88 3315.44 3322.32 3300.33 3398.53 3458.51 3500.65 3509.49 3490.73 
3431.56 3452.9 3437.46 3437.46 3415.6 3435.49 3419.74 3497.9 3676.42 
3577.6 3752.59 3888.33 3724.16 3955.26 3934.52 4253.05 4165.06 4085.69 
4292.2 4292.2 4243.91 4334.35 4241.19 4117.7 4073.36 4036.52 3772.62 