# vtk DataFile Version 3.0
vtk output
ASCII
DATASET POLYDATA
POINTS 696 float
1.65363 -0.429454 0.901636 -0.0694016 0.425207 0.547339 2.24004 -0.757518 0.728004 
-0.0766602 0.107372 0.394842 1.73034 -1.04588 0.470904 0.697755 -1.08428 0.120077 
2.76094 -0.862613 0.360933 -0.265732 0.222118 -0.0153105 0.0326595 0.933462 -0.369045 
1.44725 -1.24273 0.0357726 0.704947 1.21306 -0.0172958 2.76853 -1.14745 0.077504 
1.5124 -1.39808 -0.168851 0.853736 1.36178 -0.0642273 0.198749 -1.12962 -0.524298 
3.30611 -0.682061 -0.189009 2.95365 1.35249 -0.101473 -0.439009 0.124685 -0.637161 
0.413394 1.28949 -0.619953 3.29717 1.05688 -0.694122 5.30582 0.379789 -0.575353 
6.14199 -0.243846 -0.545247 -0.167862 0.315162 -1.20797 6.75852 0.72358 -0.643236 
6.89319 0.817595 -0.627387 -0.0382854 0.0261731 -1.54906 6.84646 0.24875 -0.864151 
3.89708 0.425994 -1.28569 4.61553 0.703979 -1.21378 2.24054 1.4611 -1.5576 
3.52159 0.67851 -1.5017 6.90038 -0.0482029 -1.27859 6.41794 1.69438 -1.21774 
0.825044 -0.398702 -1.97443 0.93483 -0.204476 -2.05532 1.60488 1.35311 -1.81434 
3.30332 0.928988 -1.70552 4.24266 0.44446 -1.65948 4.54349 0.587396 -1.62787 
6.95682 -0.477941 -1.49942 7.38128 -0.181287 -1.61689 2.224 1.15994 -2.11174 
3.56279 -0.365165 -1.95937 3.26529 0.634528 -1.92608 4.99591 -0.504974 -1.85522 
6.95694 1.46777 -1.59027 6.00743 -0.781949 -2.12667 7.20702 0.569519 -1.82246 
7.73699 0.671193 -1.77526 7.2296 -0.33634 -2.22356 7.35798 0.653078 -2.07383 
7.45923 0.00876902 -2.35687 7.60883 0.381672 -2.40445 7.41519 0.850181 -2.39309 
6.62344 -0.372935 -2.72512 7.47164 0.420443 -2.61391 6.65988 0.386068 -3.10166 
6.27131 1.05894 -3.07351 6.77917 0.733363 -3.16704 7.03041 1.11935 -3.01074 
5.42929 0.672734 -3.36214 6.38203 0.264636 -3.31072 6.72897 0.637891 -3.15271 
6.70166 0.552572 -3.13256 6.68594 0.468174 -3.11225 6.44175 0.258586 -3.20965 
6.48967 0.274908 -3.13986 6.53601 0.303172 -3.10859 6.59366 0.336648 -3.10033 
5.43766 0.740217 -3.26092 5.4618 0.790085 -3.18924 5.51871 0.799233 -3.1545 
5.58482 0.800187 -3.14928 5.63984 0.819504 -3.15877 5.69451 0.840558 -3.17562 
5.75665 0.848439 -3.17776 5.81461 0.859815 -3.16514 5.87438 0.866118 -3.13779 
5.92507 0.886668 -3.11778 5.97159 0.914424 -3.10513 6.02337 0.9359 -3.09986 
6.08376 0.945044 -3.09462 6.13547 0.966601 -3.08936 6.18147 0.996357 -3.08408 
6.22642 1.02761 -3.0788 7.00902 1.05437 -3.01609 6.97895 1.00181 -3.02141 
6.95184 0.945018 -3.02674 6.92091 0.894203 -3.03629 6.89245 0.838642 -3.05867 
6.84724 0.790057 -3.10322 6.86315 0.636678 -3.14042 6.94234 0.595871 -3.14292 
7.01499 0.589767 -3.17267 7.07618 0.603082 -3.20009 7.1309 0.620335 -3.19483 
7.16372 0.661501 -3.14528 7.19712 0.696858 -3.06625 7.23405 0.724683 -2.97249 
7.27253 0.751523 -2.8861 7.31108 0.778273 -2.79971 7.34847 0.804189 -2.69858 
7.38298 0.828019 -2.56058 7.43822 0.377647 -2.64872 7.41986 0.314729 -2.69092 
7.40851 0.242135 -2.71527 7.40439 0.169732 -2.678 7.42228 0.0979811 -2.54969 
7.46584 0.483405 -2.53143 7.43753 0.532162 -2.42174 7.39785 0.582497 -2.26571 
7.54052 0.401266 -2.51286 6.68262 -0.350879 -2.78623 6.754 -0.348768 -2.83262 
6.82411 -0.349817 -2.84952 6.8832 -0.342539 -2.82216 6.94865 -0.34935 -2.76534 
7.017 -0.364117 -2.68455 7.08022 -0.371971 -2.57587 7.14152 -0.359182 -2.41965 
7.38743 0.756931 -2.23185 7.41879 0.91952 -2.26237 7.42345 0.989632 -2.14641 
7.42875 1.06025 -2.06014 7.42514 1.12471 -2.00469 7.39367 1.16977 -1.98228 
7.34275 1.20129 -1.97703 7.31069 1.24596 -1.96957 7.2964 1.30302 -1.94513 
7.26136 1.34555 -1.90082 7.20466 1.37292 -1.84417 7.15667 1.40636 -1.77905 
7.10701 1.43864 -1.71413 7.03675 1.45654 -1.65164 7.58275 0.296066 -2.24762 
7.56032 0.213239 -2.13944 7.54201 0.135817 -2.11847 7.51536 0.0671902 -2.20183 
7.63712 0.420624 -2.30329 7.65379 0.479938 -2.22421 7.67063 0.541496 -2.15988 
7.69442 0.589382 -2.07345 7.71278 0.637586 -1.94277 7.3925 -0.0377006 -2.49272 
7.34226 -0.075237 -2.56091 7.30021 -0.123561 -2.52675 7.26591 -0.210493 -2.40151 
7.41884 -0.0872436 -1.98915 7.15656 -0.413973 -2.05692 7.12641 -0.458073 -1.88503 
7.08903 -0.464149 -1.72458 7.03147 -0.475545 -1.59763 7.27359 0.609782 -1.94397 
7.28827 -0.305065 -2.00449 7.33375 -0.261024 -1.8031 6.09406 -0.787362 -2.12268 
6.15845 -0.779662 -2.09489 6.21878 -0.776307 -2.0478 6.27366 -0.767485 -1.9934 
6.33287 -0.764106 -1.94393 6.38854 -0.756905 -1.88708 6.45283 -0.762045 -1.83025 
6.51664 -0.765266 -1.78079 6.56774 -0.746542 -1.75341 6.61264 -0.717711 -1.73338 
6.65586 -0.687714 -1.70598 6.69793 -0.658552 -1.66383 6.74104 -0.630881 -1.62169 
6.79097 -0.610486 -1.5943 6.84909 -0.600585 -1.57432 6.89283 -0.570081 -1.55428 
6.92154 -0.519301 -1.52684 5.94097 -0.824687 -2.12933 5.8749 -0.826371 -2.08249 
5.82185 -0.799878 -1.96855 5.76649 -0.771937 -1.81006 5.69956 -0.75192 -1.643 
5.6468 -0.721967 -1.49659 5.60442 -0.684711 -1.37873 5.56501 -0.645306 -1.29772 
5.52124 -0.608888 -1.24699 5.47406 -0.574932 -1.22644 5.44406 -0.531166 -1.21887 
5.39412 -0.513623 -1.22178 5.33809 -0.52103 -1.23402 5.27784 -0.525034 -1.26873 
5.22389 -0.530983 -1.3477 5.16473 -0.522 -1.47089 5.10724 -0.511684 -1.61619 
5.05628 -0.513204 -1.74678 6.00182 -0.687591 -1.93076 6.00223 -0.611897 -1.76273 
6.01438 -0.554451 -1.62705 6.04959 -0.529894 -1.49889 6.1059 -0.536031 -1.36832 
6.16442 -0.545341 -1.23775 6.21659 -0.543068 -1.12192 6.27974 -0.551548 -1.0356 
6.34917 -0.565294 -0.971412 6.41287 -0.568343 -0.921958 6.45363 -0.539987 -0.865075 
6.47049 -0.480756 -0.808305 6.47026 -0.416545 -0.760043 6.44841 -0.364903 -0.736507 
6.41634 -0.320227 -0.729043 6.37297 -0.283444 -0.722909 6.30568 -0.263404 -0.69727 
6.22577 -0.252241 -0.635917 2.27226 1.09491 -2.14389 2.29393 1.03174 -2.16809 
2.32762 0.986537 -2.17794 2.38212 0.957447 -2.18525 2.43629 0.928233 -2.20499 
2.50474 0.909027 -2.24537 2.57376 0.890238 -2.29314 2.62975 0.862338 -2.33499 
2.68673 0.835082 -2.35439 2.72871 0.797324 -2.36069 2.76344 0.754494 -2.3604 
2.80583 0.717001 -2.35176 2.86909 0.694042 -2.32579 2.94035 0.676623 -2.27656 
3.01202 0.659469 -2.21239 3.08315 0.64205 -2.14083 3.15317 0.626214 -2.06927 
3.21643 0.62007 -1.9977 2.12312 1.1725 -2.15116 2.04745 1.19241 -2.17084 
1.9907 1.22067 -2.16128 1.92079 1.23891 -2.12355 1.84362 1.25201 -2.07674 
1.7746 1.2708 -2.02898 1.72601 1.30385 -1.97882 1.67578 1.33571 -1.90653 
6.92277 1.39871 -1.4629 6.86744 1.35995 -1.33546 6.79051 1.35356 -1.21533 
6.70887 1.36081 -1.11711 6.6366 1.37716 -1.04742 6.57994 1.40458 -0.99821 
6.52124 1.43058 -0.956674 6.47762 1.46715 -0.928248 6.44521 1.51162 -0.935711 
6.41992 1.56115 -0.994422 6.40781 1.61998 -1.09622 6.9631 1.53933 -1.68248 
6.93838 1.58929 -1.74856 6.88868 1.62172 -1.78038 6.84597 1.65898 -1.78161 
6.80143 1.69492 -1.76074 6.74422 1.72197 -1.71904 6.69735 1.75609 -1.66867 
6.64996 1.78762 -1.6185 6.5878 1.7964 -1.57077 6.52458 1.78119 -1.49472 
6.46119 1.75542 -1.37462 3.27639 0.70929 -1.89122 3.28633 0.783218 -1.84161 
3.29511 0.856311 -1.77726 3.3331 0.631801 -1.91349 3.39045 0.640335 -1.87876 
3.44624 0.643636 -1.79979 3.48821 0.65802 -1.66918 3.49033 -0.368201 -1.89823 
3.43467 -0.387845 -1.88137 3.38351 -0.406478 -1.90875 3.32594 -0.413447 -1.95086 
3.2759 -0.433671 -1.97824 3.22995 -0.46101 -1.99827 3.17984 -0.481144 -2.02565 
3.1218 -0.486195 -2.07512 3.06724 -0.494977 -2.13198 3.00809 -0.498446 -2.18145 
2.95116 -0.508807 -2.20881 2.88971 -0.513944 -2.2288 2.83277 -0.524306 -2.25616 
2.77356 -0.527685 -2.30563 2.71789 -0.534884 -2.36249 2.65297 -0.530073 -2.41194 
2.58631 -0.526513 -2.43928 2.52718 -0.536215 -2.45189 2.46445 -0.542007 -2.45713 
2.40468 -0.552037 -2.46237 2.33519 -0.548145 -2.46758 2.25991 -0.535974 -2.47278 
2.1836 -0.522309 -2.47797 2.10722 -0.508555 -2.48317 2.03084 -0.494801 -2.48836 
1.95446 -0.481046 -2.49356 1.87817 -0.467229 -2.49874 1.80336 -0.452375 -2.50375 
1.7368 -0.431767 -2.50779 1.6841 -0.401483 -2.5102 1.62727 -0.374082 -2.51309 
1.57614 -0.342699 -2.51531 1.51931 -0.315298 -2.51821 1.46603 -0.285432 -2.51324 
1.39716 -0.266492 -2.48779 1.31717 -0.255391 -2.42644 1.23301 -0.247168 -2.3321 
1.14627 -0.238997 -2.22679 1.0505 -0.226304 -2.1331 2.2298 1.24664 -1.96747 
2.23394 1.32198 -1.82893 2.23732 1.39198 -1.69323 0.92086 -0.0874401 -2.18747 
0.870472 -0.0342639 -2.26653 0.806526 -0.00870741 -2.27009 0.749278 0.0183477 -2.2321 
0.680273 0.034809 -2.19192 0.610627 0.0385485 -2.17483 0.549794 0.027747 -2.16531 
0.484758 0.020287 -2.14105 0.419799 0.0065033 -2.07994 0.342812 0.00497252 -1.9893 
0.2592 0.0111509 -1.88883 0.173113 0.0186264 -1.78846 0.0773222 0.0242304 -1.67658 
7.29824 -0.12491 -1.48004 7.21614 -0.0984251 -1.39194 7.13748 -0.0838372 -1.36501 
7.06063 -0.0702889 -1.36406 6.98195 -0.058203 -1.33976 6.94903 -0.416555 -1.37004 
6.92993 -0.36303 -1.25688 6.91594 -0.305877 -1.17288 6.89248 -0.25527 -1.12721 
6.87454 -0.200702 -1.13296 6.88124 -0.128831 -1.1879 4.46929 0.583109 -1.54461 
4.4119 0.562214 -1.50563 4.36023 0.543073 -1.52564 4.30441 0.53485 -1.57512 
4.26409 0.504423 -1.62464 4.57459 0.542358 -1.7917 4.58225 0.481006 -1.92109 
4.57569 0.411998 -2.00736 4.55836 0.350085 -2.06431 4.52384 0.31154 -2.11385 
4.4761 0.292806 -2.14841 4.41859 0.302561 -2.14491 4.37227 0.33469 -2.08718 
4.33052 0.372274 -1.97669 4.28741 0.408961 -1.82915 4.55798 0.644861 -1.5193 
4.58455 0.680055 -1.38127 4.15877 0.452694 -1.56883 4.07399 0.458719 -1.47093 
3.98728 0.453794 -1.37381 3.30199 0.995134 -1.70188 3.27199 1.04127 -1.70162 
3.21841 1.07094 -1.70413 3.16596 1.1014 -1.70651 3.10107 1.12317 -1.71035 
3.03758 1.14593 -1.71403 2.9932 1.18202 -1.71546 2.9503 1.21915 -1.71671 
2.89655 1.2487 -1.71924 2.85366 1.28584 -1.7205 2.80919 1.32187 -1.72194 
2.74421 1.34358 -1.72579 2.67107 1.3596 -1.7306 2.60393 1.37979 -1.72727 
2.54793 1.40772 -1.70774 2.47782 1.42577 -1.66756 2.39898 1.4377 -1.62095 
2.31923 1.44902 -1.5819 3.37045 0.908586 -1.60468 3.43025 0.883124 -1.53447 
3.47073 0.844255 -1.50374 3.50165 0.798745 -1.49645 3.52192 0.745818 -1.49786 
[...]
POINT_DATA 696
SCALARS DY_raw double
LOOKUP_TABLE default
135.755 261.896 170.058 204.362 230.93 193.616 146.49 181.87 279.908 
198.248 230.465 127.302 157.801 170.008 277.101 171.102 211.632 207.059 
299.319 96.4461 113.344 342.627 206.955 277.136 152.024 243.817 374.851 
199.581 349.167 274.16 404.318 405.225 255.597 396.418 370.705 207.869 
219.244 240.232 284.795 300.383 322.463 239.097 142.448 361.931 229.387 
356.304 251.655 448.829 227.292 327.295 384.587 270.039 255.627 292.594 
296.315 289.21 419.101 367.93 390.956 346.724 279.095 439.567 400.334 
414.885 393.159 462.585 481.681 491.582 442.261 371.039 451.945 473.372 
445.85 471.692 400.657 474.884 597.862 677.869 677.869 590.738 511.47 
476.813 476.813 419.658 367.93 349.503 308.766 325.46 344.95 372.972 
356.122 334.442 312.58 319.479 290.195 266.229 253.391 246.847 295.967 
302.849 276.063 325.673 333.633 314.208 274.432 285.469 296.352 274.855 
332.648 410.365 382.121 247.305 251.213 220.811 225.33 213.232 236.397 
244.637 292.222 324.612 362.277 290.172 352.796 391.908 373.84 388.392 
388.392 380.672 360.544 380.735 364.932 352.416 361.664 343.794 259.568 
363.095 312.089 280.989 281.507 218.708 201.56 289.105 315.675 271.397 
274.069 320.261 323.021 322.444 369.174 380.715 318.251 287.476 430.766 
366.976 335.358 240.478 220.255 216.726 194.97 226.194 265.534 293.135 
298.925 344.065 373.638 363.156 326.158 318.918 330.818 318.396 292.058 
291.09 273.274 297.053 345.983 389.48 383.131 364.23 301.821 304.018 
328.575 300.875 290.047 300.266 322.178 352.51 320.095 355.617 313.257 
238.617 292.163 328.589 369.987 367.084 287.452 268.188 279.903 338.345 
382.557 393.53 394.468 357.749 317.145 317.891 291.263 291.263 297.615 
332.914 235.032 247.03 257.841 307.009 257.407 299.644 270.263 232.679 
202.34 189.577 183.373 178.156 205.008 240.578 285.075 328.61 325.45 
333.98 206.592 192.674 187.241 211.746 216.52 227.017 190.735 179.308 
336.251 265.754 299.712 322.787 307.929 309.803 335.348 327.465 327.465 
288.11 287.319 344.078 310.436 262.517 262.517 202.147 234.016 265.829 
290.803 299.936 312.757 349.15 337.177 305.824 335.776 305.042 237.251 
305.001 310.739 161.114 209.013 247.554 222.936 252.219 244.625 249.757 
246.617 242.113 226.018 267.087 267.087 260.738 264.875 243.136 230.745 
202.692 207.544 233.167 242.797 271.515 290.933 290.933 314.457 386.979 
386.979 433.962 425.208 404.994 369.864 361.586 361.52 346.142 382.21 
385.856 349.619 335.184 328.409 349.773 257.422 249.937 231.315 376.855 
325.771 295.782 290.603 301.711 280.565 294.011 284.333 247.422 289.133 
233.735 209.47 210.606 338.34 330.708 299.02 298.692 314.78 308.279 
300.963 323.454 335.016 335.016 365.187 283.315 288.425 270.058 251.754 
258.234 250.777 230.311 209.519 198.747 198.747 175.331 184.058 187.223 
202.148 236.389 275.104 265.417 263.09 218.279 184.306 219.244 208.295 
182.42 220.436 219.49 216.247 216.247 189.462 192.46 196.306 210.694 
196.26 199.465 201.141 200.763 185.369 218.315 243.651 298.882 253.342 
311.494 369.29 369.29 194.709 176.418 196.053 195.957 216.629 240.714 
282.379 267.48 267.48 281.149 254.358 254.358 204.177 183.332 183.332 
171.239 163.858 184.672 169.927 184.606 182.669 181.37 205.437 226.586 
242.856 271.325 191.562 192.438 221.238 254.984 267.738 262.258 234.584 
213.777 224.8 249.339 262.749 262.749 378.14 394.399 265.175 228.545 
239.027 297.997 275.844 230.796 184.167 183.958 142.232 142.232 146.76 
186.532 181.005 155.401 169.087 191.127 169.458 177.459 182.993 199.421 
179.923 206.065 226.749 236.511 206.851 222.808 172.066 200.781 193.182 
230.922 194.754 260.584 294.129 248.2 244.957 255.345 303.728 401.392 
376.7 403.385 355.496 293.494 293.494 233.288 198.628 192.188 198.703 
273.612 312.342 242.128 231.488 239.016 211.728 203.828 221.554 241.891 
235.011 198.76 164.165 145.315 245.859 281.07 247.181 204.714 226.299 
210.64 190.334 197.886 222.364 222.364 205.35 202.822 184.652 203.303 
183.691 190.545 199.355 176.794 239.178 247.697 225.508 208.105 260.581 
275.799 248.811 227.245 181.289 195.08 258.496 203.767 217.64 217.64 
192.32 211.47 233.761 254.465 254.465 243.992 246.187 306.173 152.024 
192.93 227.192 262.259 296.383 308.44 273.987 226.423 184.957 175.829 
221.535 233.958 271.806 290.945 291.928 138.277 150.17 173.719 171.997 
198.146 181.785 187.763 275.08 205.356 229.152 311.233 313.17 339.891 
280.846 272.168 176.886 198.244 179.517 205.103 190.911 181.008 197.223 
182.68 193.875 209.068 273.812 298.896 322.983 292.421 284.47 242.028 
240.363 240.363 271.735 252.229 232.719 300.762 280.599 275.648 173.781 
161.689 165.648 167.571 157.036 151.212 156.127 169.845 177.467 164.115 
164.115 139.898 124.514 122.724 180.77 174.459 160.099 152.136 150.823 
148.52 141.942 141.942 244.618 214.045 197.611 207.558 192.276 163.995 
176.551 193.362 183.263 200.311 188.779 179.991 158.358 166.17 147.273 
127.123 144.402 146.135 162.463 158.22 156.999 152.869 166.602 170.364 
182.401 173.26 168.037 161.482 170.096 292.614 280.203 302.57 275.613 
209.126 199.689 188.826 244.226 242.466 257.749 236.874 245.105 206.555 
188.641 233.634 257.56 218.071 231.074 218.368 237.668 223.999 208.016 
208.994 203.961 203.961 206.032 205.69 284.321 281.956 250.386 185.602 
196.466 201.048 225.79 246.652 271.238 163.983 148.922 185.723 160.183 
166.314 169.892 206.704 252.251 269.204 261.402 271.311 228.644 185.094 
195.952 191.149 199.175 199.175 212.76 212.76 227.195 275.915 275.915 
233.033 176.898 150.427 168.258 210.435 210.435 226.279 232.449 268.995 
264.643 183.329 194.571 204.819 223.752 244.311 212.532 157.186 150.789 
131.801 125.926 125.926 
FIELD FieldData 7
DY_minmax 1 696 double
0.0676082 0.28456 0.126606 0.185606 0.231301 0.167123 0.0860722 0.146922 0.31554 
0.175091 0.230502 0.05307 0.105526 0.126521 0.310712 0.128402 0.198111 0.190245 
0.348925 0 0.0290633 0.42341 0.190066 0.310772 0.0955891 0.253465 0.478834 
0.177383 0.43466 0.305653 0.529513 0.531075 0.273726 0.515928 0.471703 0.191638 
0.211202 0.247301 0.323944 0.350755 0.388731 0.245347 0.0791197 0.456612 0.228648 
0.446934 0.266947 0.606069 0.225043 0.397041 0.495579 0.298565 0.273778 0.337358 
0.343758 0.331538 0.554939 0.46693 0.506533 0.430458 0.314141 0.59014 0.522663 
0.547689 0.510321 0.629728 0.662573 0.679601 0.594773 0.472278 0.611428 0.648282 
0.600946 0.645391 0.523217 0.650882 0.862393 1 1 0.850141 0.713807 
0.6542 0.6542 0.555898 0.46693 0.435236 0.365172 0.393885 0.427406 0.475601 
0.446621 0.409333 0.371732 0.383598 0.333231 0.292012 0.269932 0.258677 0.343159 
0.354996 0.308927 0.394251 0.407943 0.374532 0.306121 0.325104 0.343822 0.306849 
0.406247 0.539915 0.491337 0.259465 0.266187 0.213897 0.22167 0.200863 0.240704 
0.254877 0.336718 0.392427 0.457208 0.333193 0.4409 0.508171 0.477095 0.502122 
0.502122 0.488846 0.454227 0.488954 0.461773 0.440248 0.456153 0.425419 0.280556 
0.458614 0.370889 0.317398 0.318289 0.21028 0.180788 0.331357 0.377055 0.300901 
0.305496 0.384943 0.38969 0.388697 0.46907 0.488918 0.381486 0.328556 0.575003 
0.465288 0.410908 0.247723 0.21294 0.206872 0.169452 0.223156 0.290817 0.338289 
0.348247 0.425885 0.476747 0.458718 0.395085 0.382634 0.4031 0.381735 0.336437 
0.334772 0.304129 0.345027 0.429183 0.503994 0.493075 0.460566 0.353227 0.357007 
0.399243 0.351601 0.332977 0.350553 0.38824 0.440408 0.384657 0.445753 0.372897 
0.244522 0.336618 0.399267 0.470468 0.465475 0.328515 0.295381 0.315531 0.416046 
0.492087 0.51096 0.512574 0.44942 0.379583 0.380867 0.335069 0.335069 0.345993 
0.406706 0.238356 0.258991 0.277586 0.362151 0.27684 0.349484 0.29895 0.23431 
0.182129 0.160178 0.149507 0.140535 0.186717 0.247895 0.324425 0.399303 0.393867 
0.40854 0.189442 0.165504 0.15616 0.198307 0.206518 0.224571 0.16217 0.142516 
0.412444 0.291195 0.349601 0.389288 0.363733 0.366957 0.410891 0.397334 0.397334 
0.329646 0.328286 0.425906 0.368044 0.285629 0.285629 0.181798 0.236609 0.291325 
0.334277 0.349986 0.372037 0.434629 0.414037 0.360112 0.411628 0.358767 0.242173 
0.358698 0.368566 0.111224 0.193606 0.259893 0.217552 0.267916 0.254856 0.263682 
0.258282 0.250534 0.222853 0.293488 0.293488 0.282569 0.289684 0.252294 0.230983 
0.182734 0.191078 0.235149 0.251712 0.301103 0.334502 0.334502 0.374961 0.499693 
0.499693 0.5805 0.565443 0.530676 0.470255 0.45602 0.455905 0.429456 0.491489 
0.49776 0.435437 0.410609 0.398958 0.435701 0.276865 0.263991 0.231963 0.48228 
0.39442 0.342841 0.333934 0.353039 0.316669 0.339794 0.32315 0.259667 0.331406 
0.236126 0.194391 0.196346 0.416038 0.402911 0.34841 0.347846 0.375517 0.364334 
0.351753 0.390435 0.41032 0.41032 0.462213 0.321398 0.330188 0.298599 0.267116 
0.278261 0.265437 0.230237 0.194476 0.17595 0.17595 0.135676 0.150684 0.156129 
0.181799 0.240691 0.307276 0.290616 0.286614 0.209543 0.151112 0.211202 0.192372 
0.147867 0.213253 0.211626 0.206048 0.206048 0.15998 0.165136 0.17175 0.196497 
0.171672 0.177184 0.180066 0.179416 0.15294 0.209604 0.25318 0.348173 0.269849 
0.369865 0.469269 0.469269 0.169004 0.137545 0.171316 0.171151 0.206705 0.248129 
0.31979 0.294164 0.294164 0.317674 0.271596 0.271596 0.185288 0.149436 0.149436 
0.128637 0.115943 0.151741 0.126382 0.151628 0.148295 0.146062 0.187455 0.22383 
0.251813 0.300776 0.163591 0.165097 0.214632 0.272673 0.294608 0.285183 0.237586 
0.2018 0.220758 0.262964 0.286027 0.286027 0.484489 0.512454 0.2902 0.227199 
0.245228 0.346651 0.308549 0.231071 0.150872 0.150513 0.0787481 0.0787481 0.0865364 
0.154941 0.145434 0.101397 0.124937 0.162844 0.125574 0.139335 0.148853 0.177108 
0.143573 0.188536 0.224111 0.2409 0.189887 0.217332 0.13006 0.179447 0.166378 
0.231288 0.169081 0.282304 0.339998 0.261004 0.255427 0.273293 0.356508 0.524481 
0.482013 0.52791 0.445544 0.338906 0.338906 0.235356 0.175744 0.164668 0.175873 
0.304711 0.371323 0.250562 0.232261 0.245208 0.198275 0.184688 0.215176 0.250152 
0.23832 0.175971 0.116471 0.0840503 0.256978 0.317537 0.259252 0.186211 0.223336 
0.196403 0.16148 0.174469 0.216569 0.216569 0.187305 0.182957 0.151708 0.183786 
0.150055 0.161843 0.176995 0.138192 0.245488 0.260139 0.221975 0.192044 0.282298 
0.308472 0.262055 0.224963 0.145923 0.169641 0.278712 0.184583 0.208444 0.208444 
0.164894 0.197832 0.236171 0.271779 0.271779 0.253767 0.257541 0.360713 0.0955891 
0.165944 0.224872 0.285185 0.343874 0.364611 0.305356 0.22355 0.152232 0.136531 
0.215142 0.236508 0.301605 0.334522 0.336213 0.0719451 0.0924006 0.132903 0.129941 
0.174916 0.146776 0.157058 0.307235 0.187315 0.228244 0.369415 0.372747 0.418706 
0.317152 0.302228 0.13835 0.175084 0.142875 0.18688 0.162471 0.14544 0.173328 
0.148316 0.167569 0.193701 0.305054 0.348197 0.389625 0.337061 0.323386 0.250389 
0.247526 0.247526 0.301483 0.267934 0.234379 0.351407 0.316727 0.308213 0.13301 
0.112213 0.119021 0.122329 0.10421 0.0941921 0.102646 0.126241 0.139349 0.116384 
0.116384 0.074733 0.0482746 0.0451959 0.14503 0.134176 0.109477 0.0957826 0.0935246 
0.089562 0.0782488 0.0782488 0.254844 0.202261 0.173994 0.191104 0.164819 0.116179 
0.137773 0.166688 0.149318 0.17864 0.158805 0.14369 0.106483 0.119919 0.0874173 
0.0527624 0.0824801 0.0854603 0.113544 0.106247 0.104146 0.097042 0.120662 0.127132 
0.147834 0.132113 0.12313 0.111856 0.126672 0.337392 0.316047 0.354517 0.308152 
0.193799 0.177568 0.158885 0.254169 0.251143 0.277427 0.241524 0.255681 0.189378 
0.158568 0.235951 0.277102 0.209185 0.231548 0.209696 0.24289 0.219381 0.19189 
0.193572 0.184916 0.184916 0.188479 0.187891 0.32313 0.319061 0.264763 0.153341 
0.172026 0.179906 0.222461 0.258342 0.300628 0.116158 0.0902536 0.153548 0.109622 
0.120167 0.12632 0.189635 0.267972 0.29713 0.28371 0.300753 0.22737 0.152467 
0.171142 0.162882 0.176685 0.176685 0.200051 0.200051 0.224878 0.308672 0.308672 
0.234919 0.138371 0.0928425 0.12351 0.196052 0.196052 0.223302 0.233913 0.29677 
0.289285 0.149431 0.168767 0.186392 0.218956 0.254315 0.199657 0.104467 0.0934649 
0.0608073 0.0507029 0.0507029 
WidthEq 1 696 double
2.4348 2.48308 2.91064 2.57395 2.39045 2.81014 2.66281 3.66331 4.99534 
3.70438 4.63986 2.27873 3.79945 3.38 2.7693 3.33267 1.71877 4.25283 
3.15157 2.06651 1.6642 1.04331 4.34968 1.31656 1.65926 3.75593 2.45542 
3.30572 2.73487 2.9509 1.85631 3.2877 1.63244 1.52876 2.15888 2.68278 
1.94057 2.90151 3.17554 3.16708 3.69778 2.66205 2.08221 2.44991 2.61757 
2.45217 4.64674 1.46982 1.21693 3.967 2.6291 3.99082 3.33434 2.94592 
2.61413 3.54547 2.47878 1.24936 2.92019 2.02203 1.03007 1 2.90611 
2.83507 2.75023 1.13771 1.7147 1.93882 2.25877 1.7635 1.6852 1.55913 
1.60105 1.32508 1.53495 1.3837 1.35887 1.2531 1.2531 1.48923 1.70117 
1.68493 1.68493 1.37125 1.24936 2.55153 2.8733 2.83687 2.93082 2.83348 
3.04294 3.19253 3.02865 2.75529 2.6263 2.54179 2.53275 2.66763 2.71178 
2.79617 2.94413 2.85841 2.76554 3.54465 3.74642 3.50132 3.41987 3.60316 
3.12077 2.58764 2.63369 3.61811 3.11674 3.11777 3.30749 3.29067 3.27122 
3.38291 3.57286 3.67474 2.68799 3.05469 3.07769 3.36979 3.47704 3.4261 
3.4261 3.29668 2.90152 2.85247 2.73138 2.66914 2.64643 2.60675 2.99531 
2.77538 3.07978 3.52807 3.2073 2.88461 2.57142 2.45353 1.95444 4.00892 
3.98002 3.62416 3.70031 3.6859 3.3823 3.15338 3.24231 3.44796 2.22428 
4.00206 3.7355 4.41191 3.90656 3.56467 2.84207 2.27348 1.8599 1.81697 
1.55479 1.61021 1.55331 1.68362 2.09833 2.38828 2.33898 2.6042 3.0955 
3.21655 4.79441 4.3204 3.88637 3.08757 2.94825 2.82151 2.96049 3.19496 
3.05938 3.33862 3.44616 3.42482 3.13472 2.83481 2.55136 2.28183 2.78336 
2.95351 4.32343 3.82023 3.47587 3.41992 3.05159 2.72282 2.68538 2.28136 
2.06073 1.90526 1.86907 2.03192 2.22932 2.26589 2.34814 2.34814 2.25999 
1.62083 2.57802 2.4737 2.31514 2.14227 2.44079 2.48107 3.06338 3.17534 
3.65166 3.7401 3.67316 3.34991 2.70993 2.34958 1.97821 1.91618 2.43684 
2.68856 2.59427 2.29723 2.00675 1.87001 2.01943 2.00671 2.4657 2.71408 
2.45991 1.93479 1.93051 1.83798 1.7602 1.61201 1.56848 1.39586 1.39586 
1.37148 1.50455 2.49234 2.25724 2.15668 2.15668 2.1922 2.25419 2.2014 
2.07951 1.86789 1.58649 1.47844 2.41154 2.13982 2.03882 2.65392 2.50598 
2.36418 2.24612 2.08565 2.37209 2.34073 2.40301 2.22853 2.1588 2.11084 
1.95463 1.93136 2.02089 2.04868 2.04868 2.26187 2.23478 2.42365 2.59657 
2.63916 2.49826 2.46757 2.31624 2.07483 1.8774 1.8774 1.65261 1.52018 
1.52018 1.40525 1.47106 1.51715 1.62232 1.67763 1.70294 2.00114 2.08008 
2.31671 2.7035 2.82414 2.6821 2.44464 2.30411 2.28637 2.64634 1.90927 
2.0316 2.14292 2.28827 2.29105 2.35363 2.31957 2.34847 2.31655 2.36167 
3.00347 3.46827 3.75971 3.65572 3.68853 3.91465 3.94111 4.03709 3.33856 
3.57322 3.54795 3.86106 3.86106 3.90664 3.17656 2.9626 2.91295 2.96785 
2.86805 3.36369 3.35059 3.53351 3.5714 3.5714 3.58577 3.39778 3.33136 
3.17543 3.17826 3.24233 3.24036 2.61343 3.0535 3.50481 1.94057 1.9151 
1.92516 1.99435 2.07739 2.36385 2.36385 2.76438 2.84712 2.94615 3.01246 
3.03937 2.94125 2.45822 2.3946 2.33284 2.7981 2.71904 1.95371 1.86671 
1.82115 1.90817 1.90817 2.86452 2.86415 2.72312 2.65868 2.32086 2.18141 
1.77363 1.69414 1.69414 1.57278 1.7478 1.7478 2.09204 2.39204 2.39204 
3.12106 3.52504 3.60102 4.33448 4.37107 4.77032 5.11478 5.07269 4.77125 
4.84163 5.15566 2.59581 2.30962 2.10035 2.00564 2.00546 2.14928 2.23586 
2.49249 2.69443 2.87607 3.0094 3.0094 2.20772 1.90116 1.70026 1.65249 
1.57629 1.22993 1.18218 1.17882 1.26992 1.2775 1.42715 1.42715 1.42128 
1.48959 1.52945 1.55699 1.58307 1.77624 1.8608 1.7702 1.68087 1.57555 
1.58527 1.53532 1.428 1.32398 1.35497 1.33037 1.63836 1.63176 1.84736 
1.92081 2.00786 2.0987 2.00445 2.35624 2.62289 2.66129 2.62066 3.06889 
3.28837 2.87248 2.71974 1.97216 1.97216 2.24078 2.56574 2.8537 3.10925 
2.99342 2.59599 2.404 2.19211 2.16236 2.02537 1.91645 1.90692 1.84624 
1.94901 2.10031 2.16591 1.95786 2.94086 2.75094 2.70626 2.95763 2.79103 
2.92085 3.16394 3.07124 2.9519 2.9519 3.04396 2.8834 3.0626 2.87544 
2.95195 2.94663 3.11046 3.25987 3.63397 3.55703 3.74842 4.17345 3.40361 
2.74282 2.4785 2.5721 3.22251 3.46939 3.16607 3.30033 2.87615 2.87615 
2.37577 2.31856 1.9797 1.54228 1.54228 1.44602 1.59349 1.94001 1.65926 
1.72813 4.7175 4.23549 3.99547 3.98683 4.47655 4.48985 4.13256 3.72497 
3.33079 3.32704 3.48641 3.95531 4.40793 2.42049 2.36696 2.31855 2.21781 
2.26614 2.14411 2.01358 2.99421 3.7767 4.5381 3.48051 3.80185 4.08121 
4.83678 4.95835 3.9683 3.3784 2.68876 2.36426 2.26073 2.18055 1.98703 
2.10596 1.98915 1.91419 1.75196 1.80801 1.72894 2.1525 2.27415 2.42694 
2.52529 2.52529 2.28516 2.27395 2.27921 2.29223 2.36065 2.60189 4.27116 
3.98324 3.8502 3.11938 3.09041 2.78409 2.54739 2.53129 2.44393 2.39605 
2.39605 2.38651 2.33184 2.2499 3.08485 2.86318 2.56352 2.5517 2.17166 
2.23551 2.48135 2.48135 3.09747 2.95525 2.52556 2.21734 2.27448 2.42566 
2.73415 2.96628 4.08018 4.58225 3.94666 3.89891 2.38528 2.4293 2.61907 
2.23049 2.25023 2.19391 2.29545 2.23901 2.40662 2.4585 2.38711 2.27312 
2.25661 2.32522 2.39095 3.14968 3.21005 3.65884 3.15981 2.77911 2.54693 
2.51632 2.58551 2.57109 2.54546 2.57127 2.72 3.34789 4.5577 3.60465 
2.90455 2.89537 2.84904 3.19481 3.09943 3.45099 3.3266 3.1729 3.42329 
2.96414 2.75488 2.75488 2.50649 2.47609 3.85742 3.19074 2.84504 3.26066 
2.74758 3.33561 2.72854 2.69147 2.5577 2.51817 2.09672 2.00943 2.42303 
2.86763 3.08424 2.43346 2.23752 2.0699 2.00369 1.9196 2.11436 2.59536 
2.52637 2.84635 2.76279 2.76279 2.35536 2.35536 2.10465 1.89206 1.89206 
1.93619 2.09345 2.11483 2.22514 2.26643 2.26643 2.40122 2.54601 2.33167 
2.3283 2.81274 2.50632 2.1371 1.95228 1.90134 1.93923 2.26901 2.24305 
2.5382 2.58737 2.58737 
rRFP 1 696 double
4512.65 4557.33 4953.07 4641.44 4471.6 4860.05 4723.69 5649.72 6882.6 
5687.73 6553.58 4368.19 5775.72 5387.49 4822.25 5343.69 3849.91 6195.36 
5176.07 4171.77 3799.4 3224.73 6285 3477.64 3794.83 5735.44 4531.73 
5318.74 4790.38 4990.33 3977.21 5302.06 3770.01 3674.04 4257.26 4742.17 
4055.2 4944.62 5198.25 5190.42 5681.62 4722.98 4186.3 4526.63 4681.81 
4528.72 6559.95 3619.49 3385.42 5930.8 4692.48 5952.85 5345.23 4985.72 
4678.63 5540.65 4553.35 3415.44 4961.91 4130.6 3212.47 3184.64 4948.88 
4883.12 4804.6 3312.1 3846.14 4053.58 4349.72 3891.31 3818.84 3702.15 
3740.95 3485.52 3679.77 3539.78 3516.8 3418.9 3418.9 3637.46 3833.62 
3818.59 3818.59 3528.26 3415.44 4620.69 4918.51 4884.79 4971.75 4881.65 
5075.52 5213.98 5062.3 4809.28 4689.89 4611.67 4603.31 4728.15 4769.01 
4847.12 4984.07 4904.73 4818.77 5539.89 5726.64 5499.78 5424.4 5594.04 
5147.56 4654.11 4696.73 5607.88 5143.83 5144.78 5320.38 5304.81 5286.81 
5390.19 5566 5660.3 4746.99 5086.4 5107.69 5378.04 5477.31 5430.16 
5430.16 5310.38 4944.63 4899.23 4787.15 4729.54 4708.52 4671.8 5031.44 
4827.88 5109.62 5524.54 5227.65 4928.98 4639.1 4529.98 4068.04 5969.6 
5942.85 5613.48 5683.96 5670.63 5389.62 5177.74 5260.05 5450.4 4317.8 
5963.25 5716.53 6342.6 5874.86 5558.42 4889.6 4363.33 3980.54 3940.8 
3698.14 3749.43 3696.77 3817.38 4201.22 4469.59 4423.96 4669.44 5124.17 
5236.21 6696.63 6257.9 5856.17 5116.83 4987.88 4870.57 4999.21 5216.23 
5090.74 5349.19 5448.73 5428.98 5160.47 4882.88 4620.53 4371.06 4835.26 
4992.75 6260.7 5794.96 5476.23 5424.44 5083.53 4779.23 4744.58 4370.63 
4166.42 4022.52 3989.02 4139.75 4322.46 4356.31 4432.44 4432.44 4350.85 
3759.26 4645.21 4548.65 4401.89 4241.89 4518.19 4555.47 5094.44 5198.07 
5638.93 5720.79 5658.83 5359.64 4767.3 4433.77 4090.04 4032.63 4514.53 
4747.52 4660.25 4385.32 4116.46 3989.89 4128.19 4116.42 4541.25 4771.14 
4535.89 4049.85 4045.89 3960.25 3888.26 3751.1 3710.81 3551.04 3551.04 
3528.47 3651.64 4565.9 4348.3 4255.23 4255.23 4288.1 4345.48 4296.62 
4183.8 3987.93 3727.48 3627.47 4491.12 4239.62 4146.14 4715.46 4578.53 
4447.28 4338.01 4189.48 4454.6 4425.58 4483.22 4321.73 4257.19 4212.8 
4068.22 4046.68 4129.54 4155.27 4155.27 4352.59 4327.51 4502.33 4662.38 
4701.8 4571.38 4542.98 4402.91 4179.47 3996.73 3996.73 3788.68 3666.1 
3666.1 3559.73 3620.64 3663.3 3760.64 3811.83 3835.26 4111.26 4184.33 
4403.35 4761.35 4873.01 4741.54 4521.75 4391.68 4375.26 4708.44 4026.23 