# vtk DataFile Version 3.0
vtk output
ASCII
DATASET POLYDATA
POINTS 489 float
1.31802 -1.84333 -0.180764 0.821094 -1.74521 -0.808848 0.861641 -1.38561 -0.764057 
2.35301 -0.958688 0.570673 -0.244661 -0.863424 0.150695 0.240421 -0.958133 0.0892518 
0.046456 -1.07108 -0.38178 1.51057 -1.39943 -0.706871 1.00625 -1.30695 -0.662653 
1.81867 -0.634977 1.26922 2.4379 -1.13651 -0.060021 2.26123 -1.17204 -0.267743 
-0.0359152 -0.879734 -0.490073 1.91644 -0.392622 1.42131 2.68747 -0.392429 0.290723 
2.97883 -0.868257 -0.289291 0.168945 -0.605117 -0.871475 1.31821 -1.00007 -1.57755 
1.01682 0.658607 1.23694 2.83369 -0.327555 -0.323857 2.52643 -0.26243 0.0792605 
2.34871 -0.5545 -0.97203 2.45201 0.216425 0.919861 2.54315 0.22354 0.758605 
2.39038 0.500673 1.12754 0.144409 0.0145404 -1.62647 2.45011 0.572706 0.700348 
2.88679 0.261223 -0.0983647 2.80341 0.345265 -0.328223 0.140558 0.446013 -1.5999 
-0.10996 1.31175 0.42137 2.69072 0.657764 -0.632895 0.254107 0.67511 -1.48325 
1.11916 0.518781 -1.55152 1.16127 1.26754 0.236022 -0.328557 1.39683 -0.106268 
-0.0106351 1.92587 0.406609 1.25776 1.74742 0.241773 2.52723 1.13509 -1.11673 
-0.524845 1.94658 -0.484785 2.22972 1.4357 -0.745195 -0.592958 1.89345 -0.694458 
2.36145 1.26993 -1.22208 2.18333 1.43352 -1.23934 1.09646 2.05043 0.271116 
-0.393545 2.08723 -0.649643 1.06923 2.39702 0.426949 1.70125 1.70088 -1.53521 
1.53149 1.69632 -1.63761 0.870338 2.31846 -0.628286 1.18278 2.26894 -0.758774 
0.689554 2.33596 -0.779642 1.6183 1.87032 -1.48422 1.17486 2.47915 -0.638085 
1.16262 2.40013 -0.672503 1.15893 2.3258 -0.712839 1.6637 1.80972 -1.50562 
1.56176 1.85501 -1.51219 1.51317 1.80346 -1.55224 1.50297 1.74575 -1.59277 
0.752645 2.32876 -0.732245 0.813349 2.32272 -0.682226 0.641686 2.344 -0.842195 
0.594249 2.37001 -0.896932 0.545651 2.4126 -0.936382 0.493648 2.44079 -0.986301 
0.43603 2.43465 -1.03614 0.372813 2.39299 -1.07695 0.307508 2.33779 -1.11186 
0.242939 2.28539 -1.1372 0.182326 2.24396 -1.15021 0.131327 2.18936 -1.1758 
0.104502 2.12792 -1.2114 0.0776716 2.06595 -1.24874 0.0290359 2.01468 -1.28792 
-0.0206985 1.9564 -1.32496 -0.0485256 1.88738 -1.36028 -0.0755463 1.81104 -1.3935 
-0.114896 1.72951 -1.42439 -0.130434 1.63693 -1.45359 -0.122267 1.53333 -1.48111 
-0.126031 1.43884 -1.51052 -0.136552 1.35264 -1.54192 -0.137098 1.26486 -1.57341 
-0.112011 1.16625 -1.60149 -0.0767184 1.05458 -1.61585 -0.0395541 0.940356 -1.61185 
-0.0047264 0.810668 -1.60846 0.031778 0.682577 -1.59893 0.0765866 0.557678 -1.60038 
1.2413 2.25373 -0.778615 1.30668 2.28063 -0.759463 1.36864 2.31038 -0.732726 
1.42384 2.30545 -0.720489 1.47386 2.26919 -0.710981 1.52267 2.22541 -0.701083 
1.57377 2.19609 -0.693917 1.62758 2.18309 -0.683196 1.68282 2.17859 -0.66956 
1.73517 2.15902 -0.681156 1.78615 2.12917 -0.67584 1.83456 2.08152 -0.653114 
1.87944 2.016 -0.665184 1.92481 1.95472 -0.688849 1.97493 1.92103 -0.696593 
2.02688 1.8976 -0.695361 2.07773 1.86717 -0.691998 2.12345 1.80538 -0.691412 
2.16307 1.70793 -0.708224 2.19755 1.5791 -0.727919 1.57799 1.63596 -1.60619 
1.63486 1.63874 -1.56778 1.45948 1.59856 -1.66146 1.39198 1.52936 -1.69211 
1.3306 1.49803 -1.72375 1.27359 1.49253 -1.74543 1.21638 1.48613 -1.77019 
1.15804 1.47049 -1.77444 1.09582 1.42912 -1.76234 1.02978 1.36386 -1.75351 
0.960656 1.26968 -1.76414 0.902546 1.17023 -1.78639 0.869943 1.0589 -1.80885 
0.849203 0.945634 -1.83151 0.829011 0.811297 -1.846 0.816347 0.657682 -1.84275 
0.81907 0.488478 -1.80563 0.821212 0.333512 -1.74775 0.848623 0.226024 -1.6752 
0.89774 0.190385 -1.61264 0.961954 0.239107 -1.57385 1.03727 0.357922 -1.55629 
1.7564 1.69598 -1.52291 1.8124 1.69486 -1.49777 1.86755 1.68996 -1.48547 
1.92161 1.67805 -1.47105 1.97431 1.6559 -1.4395 2.02256 1.60665 -1.41357 
2.0694 1.544 -1.38091 2.12123 1.48427 -1.31896 1.08997 2.28416 0.401215 
1.08931 2.19583 0.367886 1.08348 2.12754 0.320576 2.19403 1.48655 -1.17104 
2.22362 1.52205 -1.11633 2.23973 1.54547 -1.06541 2.24543 1.563 -1.01342 
2.2479 1.57146 -0.95863 2.24696 1.55891 -0.897437 2.24054 1.51132 -0.825583 
-0.354603 1.97419 -0.563653 -0.314194 1.87241 -0.491388 -0.273348 1.78769 -0.440002 
-0.242324 1.71618 -0.37602 -0.241499 1.63811 -0.297695 -0.269472 1.5293 -0.206539 
-0.459744 2.0134 -0.566149 -0.461034 2.01807 -0.680076 -0.527785 1.95223 -0.699299 
1.15193 1.96362 0.263119 1.20594 1.86207 0.265983 2.25294 1.35617 -1.23473 
2.30946 1.30253 -1.2275 2.42406 1.3049 -1.195 2.47747 1.25851 -1.16557 
2.40417 1.1824 -1.19616 2.45759 1.136 -1.16673 2.28293 1.41374 -0.687036 
2.3332 1.37445 -0.635921 2.38067 1.32051 -0.6086 2.42849 1.27021 -0.594923 
2.47826 1.23282 -0.589225 2.52617 1.18505 -0.592903 2.56749 1.09812 -0.612858 
2.60304 0.96941 -0.631594 2.64083 0.816338 -0.639168 2.57449 0.921699 -1.01322 
2.60173 0.752315 -0.912588 2.6147 0.652292 -0.827248 2.64107 0.618827 -0.760674 
2.66313 0.629726 -0.700648 1.20503 1.50475 0.231915 1.33376 1.70774 0.262016 
1.39416 1.67771 0.271601 1.44824 1.65899 0.272239 1.50258 1.65153 0.258561 
1.55748 1.64967 0.229259 1.61505 1.66189 0.221886 1.67201 1.66717 0.242839 
1.72594 1.65468 0.255314 1.77594 1.61836 0.264622 1.82352 1.56697 0.274583 
1.86473 1.47716 0.283702 1.89696 1.34498 0.277588 1.91419 1.18304 0.268874 
1.91755 1.03051 0.258191 1.9398 0.899383 0.250406 1.97736 0.799472 0.250172 
2.0186 0.711867 0.240793 2.06149 0.633214 0.235976 2.10504 0.559634 0.222437 
2.15013 0.495033 0.213457 2.196 0.436018 0.1975 2.24183 0.374741 0.199828 
2.28708 0.308754 0.212113 2.33059 0.232913 0.21686 2.37241 0.149479 0.195784 
2.41348 0.0626986 0.163291 2.45333 -0.0316449 0.131087 2.49098 -0.140031 0.103042 
-0.0437435 1.72116 0.41153 -0.076852 1.51646 0.41645 -0.277832 1.46214 -0.0713598 
-0.254107 1.51745 -0.031738 -0.247538 1.53962 0.0187544 -0.249354 1.52003 0.0820766 
-0.255963 1.45809 0.158162 -0.251906 1.38724 0.236168 -0.217827 1.33309 0.307295 
-0.166493 1.31206 0.367548 -0.40405 1.26368 -0.119604 -0.469685 1.12892 -0.133114 
-0.518461 0.991434 -0.146929 -0.569318 0.861465 -0.162819 -0.601122 0.742784 -0.183277 
-0.618465 0.650504 -0.212448 -0.628902 0.578661 -0.248081 -0.627184 0.519224 -0.28816 
-0.611503 0.450334 -0.326376 -0.609958 0.376548 -0.362224 -0.607608 0.295442 -0.395973 
-0.581443 0.203295 -0.42804 -0.544706 0.102267 -0.458074 -0.507046 -0.00554888 -0.484272 
-0.466455 -0.0965679 -0.505168 -0.421614 -0.162287 -0.517949 -0.373328 -0.204209 -0.553671 
-0.323359 -0.23442 -0.60148 -0.27068 -0.248309 -0.645732 -0.214858 -0.24395 -0.679838 
-0.157793 -0.229836 -0.732727 -0.102454 -0.225546 -0.793048 -0.0517313 -0.249785 -0.846578 
-0.00720438 -0.301796 -0.891651 0.0263778 -0.359159 -0.934212 0.0463404 -0.405994 -0.974923 
0.0816649 -0.455553 -0.990942 0.125861 -0.519494 -0.946772 0.253913 0.536716 -1.50074 
0.208799 0.461969 -1.53806 2.71673 0.580865 -0.533445 2.7548 0.475534 -0.43547 
2.72981 0.426438 -0.575354 2.75867 0.198415 -0.499385 2.78731 -0.0548655 -0.429312 
-0.113892 1.17692 0.516582 -0.0859558 1.08435 0.586948 -0.0363301 1.05568 0.621186 
0.0237239 1.0795 0.653206 0.0860838 1.11732 0.680958 0.145409 1.13737 0.700222 
0.203491 1.14768 0.738256 0.260988 1.15327 0.786247 0.317965 1.15653 0.826309 
0.373881 1.15505 0.850219 0.430115 1.15499 0.878973 0.484804 1.14591 0.903063 
0.537623 1.12429 0.936367 0.585096 1.07036 0.963686 0.629266 0.995369 0.997309 
0.672087 0.910156 1.04804 0.716101 0.832152 1.08269 0.767585 0.765902 1.1157 
0.856121 0.714842 1.16994 0.15726 0.225624 -1.62087 2.84271 0.328991 -0.241423 
2.87621 0.299177 -0.167764 1.20569 0.971353 1.11229 1.32901 1.21487 1.00202 
1.41276 1.36755 0.936752 1.48211 1.45535 0.889757 1.5426 1.49107 0.832434 
1.59807 1.49596 0.774172 1.65198 1.48965 0.729742 1.70647 1.48389 0.713161 
1.7594 1.46693 0.710412 1.80512 1.40514 0.710989 1.84487 1.30827 0.696139 
1.88572 1.21843 0.679255 1.93596 1.18522 0.673158 1.99403 1.19968 0.673397 
2.05474 1.23012 0.676052 2.11014 1.2305 0.65436 2.16073 1.20097 0.634815 
2.20586 1.13863 0.607549 2.2489 1.06275 0.586197 2.29242 0.986967 0.591145 
2.33559 0.907511 0.609542 2.37669 0.814578 0.634053 2.4145 0.700652 0.665067 
2.82849 0.00890334 -0.318629 2.43961 0.396422 0.810311 2.48894 0.400849 0.713028 
1.14309 0.571885 1.23385 1.21042 0.458016 1.23246 1.24926 0.323926 1.25658 
1.28545 0.198403 1.28908 1.32544 0.0984365 1.31561 1.36752 0.0119703 1.33614 
1.40884 -0.0778613 1.34526 1.44737 -0.182277 1.33068 1.48637 -0.282514 1.30442 
1.5271 -0.372918 1.28558 1.57061 -0.448759 1.29032 1.61585 -0.514777 1.3025 
1.66268 -0.569528 1.30105 1.71134 -0.609756 1.27109 1.76294 -0.632677 1.24807 
2.39631 0.454921 1.08316 2.41501 0.392731 1.04278 2.42739 0.324367 1.00462 
2.44608 0.262177 0.96424 2.6035 0.19152 0.693038 2.64711 0.181426 0.630886 
2.663 0.181777 0.571588 2.67501 0.161376 0.519314 2.70777 0.111274 0.474453 
2.75098 0.0522875 0.431517 2.79421 -0.00529359 0.388073 2.81852 -0.0846827 0.350675 
2.78574 -0.215062 0.322148 2.5017 0.220373 0.846926 2.29097 -0.561181 -1.02372 
2.23323 -0.567862 -1.0754 2.17549 -0.574543 -1.12709 2.11775 -0.581224 -1.17878 
2.06112 -0.580863 -1.23249 2.00679 -0.565978 -1.28873 1.95529 -0.534259 -1.33966 
1.90366 -0.505255 -1.37386 1.84679 -0.508034 -1.41227 1.78443 -0.545857 -1.44002 
1.72072 -0.593883 -1.45056 1.65629 -0.645174 -1.47219 1.59468 -0.679642 -1.48853 
1.53497 -0.706112 -1.47761 1.47514 -0.741431 -1.49583 1.42062 -0.804987 -1.52697 
1.37764 -0.893058 -1.55547 2.90339 -0.526922 -0.312781 2.94717 -0.703804 -0.292599 
2.59168 -0.333321 0.173189 2.5448 -0.403626 0.0621271 2.54922 -0.53536 0.0431277 
2.55901 -0.653606 0.0198106 2.55014 -0.768818 -0.0031742 2.52145 -0.880825 -0.0258001 
2.47371 -1.0041 -0.0438615 2.73828 -0.62154 -0.24563 2.64779 -0.855505 -0.19917 
2.56906 -1.00373 -0.160739 2.50072 -1.08618 -0.11956 0.941513 0.243437 1.25996 
0.867007 -0.0608069 1.28033 0.826243 -0.238265 1.2753 0.805071 -0.34122 1.24951 
0.779063 -0.409975 1.21601 0.729262 -0.45758 1.18828 0.671943 -0.477989 1.16887 
0.612865 -0.49535 1.13288 0.551952 -0.522511 1.08943 0.487631 -0.571206 1.05065 
0.422203 -0.626952 1.01389 0.358973 -0.668667 0.972868 0.30124 -0.675317 0.921286 
0.249112 -0.646421 0.860787 0.199918 -0.600698 0.80558 0.153473 -0.551008 0.764861 
0.113845 -0.521225 0.713713 0.089251 -0.503972 0.654829 0.0562539 -0.507444 0.60069 
0.027952 -0.526088 0.550588 -0.0083462 -0.550614 0.50274 -0.0374546 -0.561938 0.45054 
-0.0810172 -0.55655 0.394374 -0.13374 -0.556856 0.340483 -0.178692 -0.572799 0.290681 
-0.20032 -0.614082 0.246797 -0.21238 -0.671284 0.206966 -0.226927 -0.756829 0.175632 
0.145756 -0.772154 -0.763398 0.133814 -0.919458 -0.661862 0.133446 -1.02553 -0.57321 
0.108967 -1.07737 -0.498918 0.0844926 -1.0861 -0.437302 0.210892 -0.687974 -0.890588 
0.254414 -0.763777 -0.885748 0.298562 -0.836775 -0.87133 0.342204 -0.912042 -0.864629 
0.385998 -0.984535 -0.874472 0.431844 -1.04575 -0.871933 0.480522 -1.0901 -0.864 
0.529427 -1.13343 -0.852559 0.580066 -1.16691 -0.833591 0.630559 -1.20314 -0.797973 
0.680898 -1.23898 -0.778333 0.730746 -1.28501 -0.766754 0.788373 -1.33161 -0.761548 
2.58557 -0.640584 0.403014 2.49678 -0.829596 0.477169 2.41994 -0.931176 0.523162 
1.89491 -0.433921 1.37742 1.85804 -0.4871 1.33804 1.83403 -0.556742 1.30265 
0.0054513 -0.975641 -0.423754 2.19133 -1.27017 -0.291741 2.13739 -1.34214 -0.324481 
2.11374 -1.38309 -0.368329 2.09228 -1.41004 -0.41644 2.04603 -1.43292 -0.464003 
1.98713 -1.4604 -0.50748 1.92916 -1.47072 -0.545516 1.87434 -1.46223 -0.571559 
1.8203 -1.44819 -0.604683 1.76439 -1.44667 -0.628487 1.70527 -1.46338 -0.662408 
1.64613 -1.47219 -0.696061 1.58434 -1.45049 -0.708033 2.35701 -1.29286 -0.04946 
2.28209 -1.41411 -0.0233652 2.2134 -1.49699 0.0033802 2.14814 -1.55827 0.0256844 
2.08518 -1.60502 0.0454645 2.02494 -1.63545 0.0688 1.96832 -1.64341 0.0906792 
1.91198 -1.64588 0.0792823 1.85707 -1.63992 0.070597 1.80254 -1.63221 0.0678672 
1.74738 -1.62736 0.055371 1.69052 -1.63008 0.0171567 1.63303 -1.63565 -0.0307286 
1.57605 -1.63894 -0.0708869 1.51891 -1.64501 -0.0945205 1.45753 -1.67637 -0.126263 
1.39003 -1.74557 -0.156909 2.30808 -0.958887 0.63691 2.26943 -0.967495 0.704517 
2.24159 -0.989782 0.7713 2.20832 -1.00785 0.836291 2.18393 -1.00223 0.893681 
2.14608 -0.972857 0.944972 2.10155 -0.920846 0.990045 2.05523 -0.868543 1.03515 
2.00989 -0.809213 1.07812 1.96346 -0.756893 1.12323 1.91703 -0.704573 1.16834 
1.8684 -0.666274 1.21771 0.938185 -1.34464 -0.710078 1.43581 -1.43122 -0.746915 
1.37031 -1.46192 -0.752887 1.3108 -1.48178 -0.745868 1.25659 -1.47247 -0.743177 
1.20746 -1.43227 -0.739309 1.16037 -1.38078 -0.722983 1.11026 -1.34702 -0.715028 
1.05807 -1.32676 -0.701067 1.01062 -1.2988 -0.607894 1.02266 -1.30627 -0.549048 
1.04825 -1.33752 -0.484213 1.06835 -1.38279 -0.416797 1.10358 -1.44061 -0.357115 
1.14673 -1.51136 -0.310094 1.19139 -1.58572 -0.248425 1.23483 -1.66818 -0.188317 
1.27703 -1.75408 -0.165831 1.48477 -1.40036 -0.620307 1.44974 -1.42625 -0.543305 
1.42866 -1.48543 -0.465657 1.41059 -1.58142 -0.378734 1.3783 -1.70387 -0.283169 
0.0860252 -1.0902 -0.321315 0.108338 -1.12088 -0.256316 0.132945 -1.15914 -0.189241 
0.1448 -1.18095 -0.126167 0.163841 -1.16799 -0.0737853 0.21127 -1.12371 -0.032476 
0.258893 -1.06508 0.00459927 0.268939 -1.00755 0.0444668 0.84378 -1.57405 -0.79215 

LINES 54 602
4 48 110 111 47 
22 48 112 113 114 115 116 117 118 119 120 121 122 123 124 125 126 127 128 129 130 131 33 
10 47 132 133 134 135 136 137 138 139 43 
9 43 143 144 145 146 147 148 149 40 
8 45 150 151 152 153 154 155 35 
3 45 156 39 
4 45 157 158 41 
4 43 161 162 42 
4 42 163 164 38 
4 42 165 166 38 
11 40 167 168 169 170 171 172 173 174 175 31 
7 38 176 177 178 179 180 31 
3 37 181 34 
30 37 182 183 184 185 186 187 188 189 190 191 192 193 194 195 196 197 198 199 200 201 202 203 204 205 206 207 208 209 20 
4 36 210 211 30 
10 35 212 213 214 215 216 217 218 219 30 
30 35 220 221 222 223 224 225 226 227 228 229 230 231 232 233 234 235 236 237 238 239 240 241 242 243 244 245 246 247 16 
4 32 248 249 29 
4 31 250 251 28 
5 31 252 253 254 19 
21 30 255 256 257 258 259 260 261 262 263 264 265 266 267 268 269 270 271 272 273 18 
3 29 274 25 
4 28 275 276 27 
25 18 277 278 279 280 281 282 283 284 285 286 287 288 289 290 291 292 293 294 295 296 297 298 299 26 
3 28 300 19 
3 26 301 22 
3 26 302 23 
17 18 303 304 305 306 307 308 309 310 311 312 313 314 315 316 317 9 
6 24 318 319 320 321 22 
11 23 322 323 324 325 326 327 328 329 330 14 
3 23 331 22 
19 21 332 333 334 335 336 337 338 339 340 341 342 343 344 345 346 347 348 17 
4 19 349 350 15 
3 20 351 14 
8 20 352 353 354 355 356 357 10 
6 19 358 359 360 361 10 
30 18 362 363 364 365 366 367 368 369 370 371 372 373 374 375 376 377 378 379 380 381 382 383 384 385 386 387 388 389 4 
7 16 390 391 392 393 394 6 
15 16 395 396 397 398 399 400 401 402 403 404 405 406 407 2 
5 13 411 412 413 9 
3 12 414 6 
15 11 415 416 417 418 419 420 421 422 423 424 425 426 427 7 
19 10 428 429 430 431 432 433 434 435 436 437 438 439 440 441 442 443 444 0 
3 2 457 8 
10 7 458 459 460 461 462 463 464 465 8 
11 8 466 467 468 469 470 471 472 473 474 0 
7 7 475 476 477 478 479 0 
10 6 480 481 482 483 484 485 486 487 5 
3 2 488 1 
25 53 54 55 50 90 91 92 93 94 95 96 97 98 99 100 101 102 103 104 105 106 107 108 109 40 
7 47 56 52 57 58 59 48 
33 49 61 60 51 62 63 64 65 66 67 68 69 70 71 72 73 74 75 76 77 78 79 80 81 82 83 84 85 86 87 88 89 29 
8 46 140 141 142 44 159 160 37 
18 14 408 409 410 3 445 446 447 448 449 450 451 452 453 454 455 456 9 

POINT_DATA 489
SCALARS DY_raw double
LOOKUP_TABLE default
143.607 154.816 92.4549 96.4182 87.0776 98.7828 84.0861 82.8624 118.527 
108.069 77.6644 83.9584 96.9611 128.967 122.363 122.382 118.883 100.253 
94.8899 93.8904 71.9672 85.6675 96.1926 78.3397 185.237 83.7331 82.6121 
104.063 84.6733 60.4144 77.9383 63.4821 60.4677 99.5422 83.8947 102.19 
62.2954 70.6349 80.6139 69.2421 122.293 71.9493 85.5798 75.4296 67.8946 
61.48 135.226 77.264 90.7821 175.011 76.3946 66.9675 92.5269 79.7464 
72.352 71.7098 110.645 107.829 113.446 105.223 78.3555 99.5792 64.1026 
61.7521 66.1011 73.2645 75.0648 71.165 77.4334 89.0176 89.5534 91.8981 
85.6446 89.0227 100.075 83.2563 90.5317 86.4432 76.8915 87.8359 79.8235 
71.4017 75.061 78.1718 70.1469 67.9558 65.0218 64.0714 59.0581 61.409 
69.6727 65.6025 68.5579 68.0252 67.6321 82.5702 80.8677 77.7501 77.7501 
84.787 90.0147 96.2459 82.8598 89.0532 90.805 70.2195 77.1877 84.9732 
76.891 86.0053 101.939 104.729 112.226 120.973 113.78 85.0445 81.1196 
81.1196 67.942 86.2592 74.6662 59.0896 70.3934 90.7617 94.3389 86.8753 
85.0524 77.4922 84.5735 103.452 107.644 107.293 96.924 83.2589 89.587 
82.5877 79.5233 79.0604 78.4981 71.8526 85.8085 74.7369 69.8889 82.2662 
80.665 87.8579 89.3507 96.8552 106.661 105.682 67.6583 77.5323 87.1549 
80.9589 83.1555 93.5153 68.2841 60.1857 63.2467 77.9774 70.3715 77.3786 
82.1895 73.0021 81.2301 88.1215 89.0638 126.596 137.957 119.366 112.413 
112.413 87.4819 75.4829 67.7595 62.7763 73.8217 64.1326 69.1807 64.6363 
66.0041 69.4616 68.1241 66.503 67.8827 72.9013 77.7783 75.0231 61.8624 
60.4305 63.2594 61.1496 63.552 64.5858 67.7143 77.5579 78.6033 67.0325 
70.2571 65.0025 62.6653 62.4314 66.0499 70.3041 67.53 72.5018 83.0415 
81.3567 92.7043 71.8729 72.9445 78.2164 93.6163 85.8583 75.9025 82.1177 
78.8511 78.118 79.5873 73.8141 99.0653 88.7652 100.267 96.297 99.8692 
115.313 86.2047 86.2047 86.3734 79.0868 92.7109 71.9305 83.7689 89.7179 
77.3279 74.3473 81.2456 94.7535 81.8734 93.7784 101.352 92.1569 104.367 
131.594 126.69 113.098 94.6523 105.416 55.7453 62.5088 70.5907 80.3239 
70.3189 80.2224 73.0061 76.5468 77.7622 79.5927 77.0715 72.4481 72.3815 
78.7639 85.9495 93.3142 86.8991 86.8991 79.3079 67.8048 73.7927 83.9162 
77.852 85.3391 80.1486 87.6356 63.4321 92.035 92.1465 74.5323 76.0499 
79.3729 80.666 91.6189 87.9564 88.2276 88.8183 77.3305 87.6677 95.0799 
106.074 109.469 109.469 96.3139 85.5462 71.1114 68.7419 62.6487 66.2425 
69.1097 66.6982 71.5419 85.7799 77.5862 79.757 83.2194 87.2246 90.3284 
91.9371 72.1602 76.0431 69.3982 65.0433 72.4605 71.8755 80.5403 91.3083 
87.4106 95.8051 90.5616 204.266 118.999 140.908 125.695 90.7157 105.089 
101.812 102.922 98.4165 95.6993 99.4382 105.098 112.168 81.3369 82.7943 
77.5656 85.3617 90.9239 94.039 107.772 92.1155 95.3554 111.287 111.287 
95.7257 94.4057 91.1701 85.8842 84.4585 85.2892 86.6709 91.3299 88.3815 
110.403 94.3051 89.0447 90.1876 102.78 80.5277 94.806 75.6389 78.9004 
88.2587 99.1669 76.6906 101.488 108.673 86.3457 82.2917 71.7547 71.6234 
66.2529 71.0128 81.5533 90.5987 100.064 104.57 85.8582 77.7669 77.622 
79.0516 79.3118 79.3118 77.4775 84.7117 80.2757 75.671 78.7945 79.4327 
85.0963 77.882 92.903 105.375 100.839 95.8433 96.7388 95.7756 110.75 
107.847 97.6399 84.8784 97.0343 87.4405 90.0388 99.3876 84.5175 90.3157 
89.2681 82.2892 84.5315 104.864 89.5598 98.4397 135.549 100.621 110.566 
86.8268 99.3604 107.629 97.8275 100.061 89.5084 84.7284 79.2336 74.9824 
74.9824 71.3132 87.0965 85.4324 86.5644 77.1373 96.7095 100.459 95.3889 
98.4872 89.1712 97.1075 98.8535 105.411 101.324 97.8577 89.5651 89.5651 
105.639 109.851 99.124 136.139 102.87 111.143 109.168 122.956 117.847 
98.886 95.7912 121.072 86.1764 93.7876 96.6983 90.7898 94.5751 77.2012 
88.0113 95.3483 108.128 108.128 108.991 118.931 118.931 128.642 125.668 
138.362 115.69 81.5693 77.9661 87.9102 100.667 124.809 84.9453 96.1853 
104.327 98.4496 96.9994 85.8878 81.7284 80.2303 82.774 82.9518 90.1535 
83.6876 93.8228 113.874 
FIELD FieldData 7
DY_minmax 1 489 double
0.591578 0.667049 0.247168 0.273853 0.210962 0.289774 0.19082 0.182581 0.422715 
0.352299 0.147582 0.18996 0.277508 0.493009 0.448539 0.448667 0.425109 0.299676 
0.263563 0.256833 0.109223 0.201467 0.272334 0.152129 0.871877 0.188443 0.180896 
0.325323 0.194773 0.0314367 0.149426 0.0520921 0.0317961 0.294887 0.189532 0.312714 
0.0441021 0.100252 0.167441 0.0908743 0.44807 0.109102 0.200877 0.132535 0.0818014 
0.038612 0.535151 0.144886 0.235905 0.803023 0.139033 0.0755596 0.247652 0.161601 
0.111813 0.10749 0.36964 0.350681 0.388504 0.333137 0.152236 0.295136 0.0562697 
0.0404437 0.0697258 0.117958 0.130079 0.103822 0.146027 0.224024 0.227632 0.243419 
0.201314 0.224058 0.298474 0.185233 0.234218 0.20669 0.142378 0.216068 0.16212 
0.105415 0.130053 0.150999 0.0969666 0.082214 0.0624588 0.0560601 0.0223048 0.0381339 
0.0937738 0.0663687 0.0862679 0.0826812 0.0800345 0.180614 0.169151 0.148159 0.148159 
0.195539 0.230738 0.272693 0.182563 0.224264 0.236059 0.0974555 0.144373 0.196793 
0.142375 0.203742 0.311025 0.329808 0.38029 0.439181 0.390751 0.197273 0.170846 
0.170846 0.082121 0.205452 0.127395 0.0225169 0.098626 0.235767 0.259853 0.2096 
0.197326 0.146423 0.194102 0.321212 0.349436 0.347077 0.277258 0.185251 0.227858 
0.180731 0.160098 0.156982 0.153196 0.108451 0.202417 0.127871 0.0952296 0.178567 
0.167785 0.216215 0.226267 0.276795 0.342818 0.336225 0.0802108 0.146693 0.211483 
0.169765 0.184554 0.254307 0.0844243 0.0298973 0.0505073 0.14969 0.0984787 0.145658 
0.17805 0.116191 0.171591 0.21799 0.224335 0.477041 0.553534 0.428364 0.381546 
0.381546 0.213684 0.132894 0.0808919 0.0473398 0.121709 0.0564719 0.090461 0.0598632 
0.0690729 0.0923525 0.0833468 0.0724322 0.0817213 0.115512 0.14835 0.129798 0.0411867 
0.0315454 0.0505927 0.0363874 0.0525624 0.0595234 0.0805878 0.146865 0.153904 0.0759968 
0.0977084 0.0623288 0.0465922 0.0450174 0.0693811 0.0980253 0.0793465 0.112822 0.183786 
0.172443 0.248847 0.108588 0.115803 0.151299 0.254988 0.202752 0.135719 0.177566 
0.155573 0.150636 0.16053 0.121658 0.291676 0.222324 0.299769 0.273036 0.297088 
0.401072 0.205084 0.205084 0.20622 0.157159 0.248891 0.108976 0.188684 0.228739 
0.145317 0.125248 0.171694 0.262644 0.175922 0.256079 0.307072 0.245161 0.327369 
0.510696 0.477677 0.38616 0.261963 0.334438 0 0.0455387 0.0999549 0.165489 
0.0981243 0.164805 0.116218 0.140057 0.148241 0.160566 0.14359 0.112461 0.112012 
0.154985 0.203366 0.252953 0.20976 0.20976 0.158648 0.0811968 0.121514 0.189676 
0.148845 0.199257 0.164308 0.214719 0.0517555 0.244341 0.245091 0.126493 0.136712 
0.159086 0.167792 0.241539 0.216879 0.218705 0.222682 0.145334 0.214935 0.264842 
0.338866 0.361725 0.361725 0.273151 0.200651 0.103461 0.0875065 0.0464807 0.0706778 
0.0899831 0.0737463 0.106359 0.202224 0.147056 0.161672 0.184984 0.211952 0.23285 
0.243681 0.110522 0.136666 0.0919254 0.0626035 0.112544 0.108606 0.166946 0.239448 
0.213204 0.269724 0.23442 1 0.425891 0.573407 0.470978 0.235457 0.332235 
0.310169 0.317644 0.287308 0.269012 0.294187 0.332296 0.379896 0.17231 0.182122 
0.146917 0.199409 0.236859 0.257834 0.350297 0.244883 0.266697 0.373966 0.373966 
0.26919 0.260302 0.238517 0.202927 0.193328 0.19892 0.208223 0.239593 0.219741 
0.368015 0.259625 0.224207 0.231902 0.316684 0.166861 0.262998 0.133944 0.155904 
0.218914 0.29236 0.141026 0.307988 0.356365 0.206034 0.178738 0.107792 0.106908 
0.0707482 0.102797 0.173766 0.23467 0.298403 0.328743 0.202752 0.148273 0.147297 
0.156922 0.158674 0.158674 0.146324 0.195032 0.165164 0.13416 0.155191 0.159488 
0.197621 0.149048 0.250185 0.33416 0.30362 0.269982 0.276012 0.269526 0.370349 
0.350801 0.282078 0.196155 0.278001 0.213405 0.2309 0.293846 0.193725 0.232764 
0.225711 0.178721 0.193819 0.33072 0.227675 0.287464 0.53732 0.302152 0.369108 
0.209274 0.293663 0.349333 0.283341 0.298377 0.227329 0.195144 0.158148 0.129524 
0.129524 0.104819 0.211089 0.199885 0.207506 0.144034 0.275814 0.30106 0.266922 
0.287783 0.225058 0.278494 0.29025 0.334405 0.306881 0.283545 0.22771 0.22771 
0.335937 0.364295 0.292071 0.541295 0.31729 0.372993 0.359697 0.452532 0.418132 
0.290468 0.269631 0.43985 0.204894 0.256141 0.275739 0.235956 0.261443 0.144463 
0.217248 0.266649 0.352696 0.352696 0.358506 0.425436 0.425436 0.490819 0.470794 
0.55626 0.403613 0.173874 0.149614 0.216568 0.302457 0.46501 0.196605 0.272285 
0.327105 0.287531 0.277766 0.202951 0.174946 0.164859 0.181985 0.183183 0.231672 
0.188137 0.256378 0.391381 
WidthEq 1 489 double
2.79789 1 3.25711 4.56611 1.77527 2.49432 4.14059 3.9996 3.10853 
5.05534 6.00708 3.29706 3.42246 2.10445 3.92796 2.90677 4.49649 1.84648 
6.0986 4.78245 6.35506 3.34813 5.43728 6.2037 1.36104 3.03412 5.68834 
2.10917 3.78781 4.79863 6.5151 5.32317 3.01212 1.96717 1.69326 6.96826 
3.00866 4.21585 2.86472 3.96184 3.23065 3.98636 2.76906 3.37687 5.78155 
4.89909 1.29025 2.54421 2.85536 1.32126 3.52402 3.45938 1.86612 2.78954 
3.38092 3.67378 1.70009 1.70034 2.01739 2.47603 2.90542 2.28969 3.90883 
3.87074 3.56751 3.26251 3.12058 3.06816 3.00369 2.79098 2.88393 3.16281 
3.52545 3.55006 3.31737 4.07376 3.85894 4.01797 4.32448 4.12264 4.43624 
4.84591 4.79458 4.41407 4.38103 4.36586 4.41938 4.65022 4.97182 4.84759 
3.62001 3.73943 3.6217 3.57332 3.26259 3.05577 3.06471 3.33937 3.33937 
3.1982 2.94959 2.85005 3.0696 3.00445 3.05232 3.51264 3.54054 3.74643 
4.05699 3.731 2.79477 2.32206 2.70307 2.56385 2.36259 2.83118 3.10845 
3.10845 3.78081 3.53337 4.28395 5.18833 5.16549 4.69235 4.53096 4.56661 
4.91704 5.61561 5.37256 4.04367 3.40536 2.91132 2.11347 2.09678 1.86384 
2.03863 2.37397 2.55508 2.61543 3.06901 3.02215 4.006 5.25314 3.37485 
3.12969 2.87972 2.76434 2.89118 2.78533 3.21329 5.17063 4.98471 5.13919 
5.58081 6.40638 6.08495 4.8674 5.01092 4.12837 5.24993 4.65097 3.34687 
3.06446 2.71959 2.6129 2.78963 2.73721 2.99754 2.99366 2.87163 2.77109 
2.77109 3.04516 3.73311 4.36199 5.26434 3.3258 3.73143 4.34378 4.9419 
5.14416 3.68457 4.38297 4.62409 4.79189 4.8572 5.36944 5.48119 6.70287 
6.97323 6.8914 7.58003 7.69018 7.33917 6.94441 6.02242 5.42135 4.83655 
4.61457 4.50315 4.70685 4.74098 4.67398 4.76652 4.6712 4.61128 4.18425 
4.05825 4.50568 6.2187 3.93883 5.62716 7.21056 7.63102 7.71142 7.5518 
7.65108 7.6279 7.20398 7.19126 6.13097 6.79372 6.53878 6.19257 5.67739 
5.08804 5.63028 5.63028 5.14332 4.53408 4.20195 4.1502 3.86332 3.52545 
3.71297 3.98341 4.38247 4.18534 4.53231 4.81397 4.93524 5.08281 5.13245 
4.97822 5.34331 5.49855 5.5658 5.01901 3.68777 4.57369 4.98218 4.07856 
5.18049 5.11922 5.62674 6.74223 6.48729 6.18381 5.87358 6.08402 6.25679 
5.78585 4.81953 4.74039 4.51807 4.51807 4.47264 4.04317 3.97608 3.98333 
4.28487 4.50222 4.81413 4.90903 4.77764 3.01642 2.82502 7.47738 6.12658 
4.7173 4.2906 4.08143 4.14826 4.36072 4.15079 4.66008 4.24257 4.0312 
3.98906 3.89248 3.89248 4.13435 4.15829 4.96103 5.15706 5.71354 5.74852 
5.40989 5.75737 5.90418 4.93398 5.93064 6.20505 7.52104 7.21191 6.82727 
6.58522 6.55716 6.53019 6.36711 6.48316 6.64329 5.32359 5.07691 4.18829 
4.85223 4.47509 5.30497 1.31351 3.26478 2.96779 3.82135 5.16709 4.26482 
4.38373 4.08101 4.38154 4.46885 4.87153 4.16073 3.827 6.27213 3.82413 
3.82084 3.9208 3.31097 3.28391 2.75718 2.7946 2.59478 2.29205 2.29205 
3.13297 3.75789 3.93184 4.2976 4.19183 3.63535 2.64029 4.82871 4.6782 
5.21159 6.11681 6.00042 5.94379 5.23544 5.50588 5.09099 5.02567 4.80259 
4.91392 4.80116 6.70481 5.15959 5.15377 6.26396 6.86772 6.81176 6.1147 
5.86836 5.23013 5.03224 4.05421 3.70867 3.52916 3.76337 3.70808 3.3928 
3.39609 3.28256 3.28256 3.23882 3.38083 3.55781 3.84343 3.66619 3.65676 
3.32184 3.06715 2.74648 3.72864 3.44227 3.45247 3.5552 3.84739 3.82995 
3.91144 4.01215 3.70749 3.63939 3.56009 3.73412 3.59397 3.57105 3.41952 
3.2561 3.27414 3.31434 4.61431 4.90751 4.63488 2.07664 4.45419 4.22352 
4.06137 3.45778 3.56203 3.75351 3.99024 4.28715 4.34218 4.3635 4.03676 
4.03676 3.71567 3.56944 3.7332 3.81688 5.94986 5.00308 4.74697 4.6787 
4.52431 4.09533 3.80677 3.61167 3.01482 3.29613 3.33777 3.44471 3.44471 
3.01684 3.00959 3.0637 3.0487 4.36325 4.28302 4.36123 4.24906 4.25024 
4.63479 4.70154 4.47787 5.80026 5.926 5.99562 6.1056 3.50236 3.95274 
3.70993 3.55419 3.40333 3.40333 3.27574 3.26706 3.26706 3.09227 2.36875 
2.2618 2.32661 2.78482 3.02434 3.33347 3.19854 3.18219 3.77744 3.25669 
2.95001 2.88671 3.34771 4.16807 4.49826 4.7666 4.53012 4.56333 4.12947 
4.03364 3.03707 2.31262 
rRFP 1 489 double
2546.35 2333.02 2600.84 2756.16 2425.01 2510.33 2705.67 2688.94 2583.21 
2814.21 2927.14 2605.58 2620.46 2464.07 2680.44 2559.27 2747.9 2433.46 
2938 2781.83 2968.43 2611.64 2859.53 2950.47 2375.86 2574.38 2889.32 
2464.63 2663.81 2783.75 2987.42 2845.99 2571.77 2447.78 2415.28 3041.19 
2571.36 2714.6 2554.28 2684.46 2597.7 2687.37 2542.93 2615.05 2900.38 
2795.67 2367.46 2516.25 2553.17 2371.14 2632.51 2624.84 2435.79 2545.36 
2615.53 2650.28 2416.09 2416.12 2453.74 2508.16 2559.11 2486.05 2678.17 
2673.65 2637.67 2601.48 2584.64 2578.42 2570.77 2545.53 2556.56 2589.65 
2632.68 2635.6 2607.99 2697.74 2672.25 2691.12 2727.49 2703.54 2740.75 
2789.36 2783.27 2738.12 2734.2 2732.4 2738.75 2766.14 2804.3 2789.56 
2643.9 2658.07 2644.1 2638.36 2601.49 2576.95 2578.01 2610.6 2610.6 
2593.85 2564.35 2552.54 2578.59 2570.86 2576.54 2631.16 2634.47 2658.9 
2695.75 2657.07 2545.98 2489.89 2535.1 2518.58 2494.7 2550.3 2583.2 
2583.2 2662.98 2633.62 2722.68 2829.99 2827.28 2771.14 2751.99 2756.22 
2797.8 2880.69 2851.85 2694.17 2618.43 2559.81 2465.14 2463.16 2435.52 
2456.26 2496.05 2517.54 2524.7 2578.52 2572.96 2689.7 2837.68 2614.81 
2585.72 2556.06 2542.37 2557.42 2544.86 2595.64 2827.89 2805.83 2824.16 
2876.56 2974.52 2936.38 2791.91 2808.94 2704.22 2837.3 2766.23 2611.49 
2577.98 2537.06 2524.4 2545.37 2539.15 2570.04 2569.58 2555.1 2543.17 
2543.17 2575.69 2657.32 2731.94 2839.01 2608.99 2657.12 2729.78 2800.75 
2824.75 2651.56 2734.43 2763.04 2782.95 2790.7 2851.48 2864.74 3009.7 
3041.78 3032.07 3113.78 3126.85 3085.2 3038.36 2928.96 2857.64 2788.25 
2761.91 2748.69 2772.86 2776.91 2768.96 2779.94 2768.63 2761.52 2710.85 
2695.9 2748.99 2952.25 2681.73 2882.06 3069.94 3119.83 3129.37 3110.43 
3122.21 3119.46 3069.16 3067.65 2941.84 3020.48 2990.23 2949.15 2888.02 
2818.09 2882.43 2882.43 2824.65 2752.36 2712.95 2706.81 2672.77 2632.68 
2654.93 2687.02 2734.37 2710.98 2752.15 2785.57 2799.96 2817.47 2823.36 
2805.06 2848.38 2866.8 2874.78 2809.9 2651.94 2757.06 2805.53 2698.31 
2829.06 2821.79 2882.01 3014.37 2984.12 2948.11 2911.3 2936.27 2956.77 