# vtk DataFile Version 3.0
vtk output
ASCII
DATASET POLYDATA
POINTS 714 float
2.9256 0.37944 1.89295 1.57749 0.89782 1.66623 3.08577 0.122287 1.33906 
2.54497 0.018509 1.46814 2.32316 0.0646189 1.47816 2.64714 -0.388368 1.37574 
2.50001 -0.437569 1.36423 1.14131 0.190626 1.50434 1.268 -0.208052 1.41387 
1.14614 -0.328995 1.38608 3.67374 0.400141 1.35227 3.51995 0.244555 1.17979 
1.5374 0.00647996 1.25815 0.576244 0.20629 1.3016 3.1966 -0.223037 1.0043 
3.98888 1.07517 1.09635 0.814475 1.21645 1.1218 0.438524 -0.589107 0.504915 
3.50894 -0.0393034 0.431437 4.02902 1.46329 0.501057 0.443845 1.75065 0.42214 
4.06451 1.3217 0.127049 3.53655 -0.0977949 -0.197166 4.00139 0.262281 -0.31934 
2.65423 2.38201 -0.0448253 5.25935 0.592228 -0.473288 3.85467 0.257467 -0.525862 
4.91764 -0.309248 -0.652606 -0.700692 0.863279 -0.602722 -0.0713078 -0.690426 -0.955035 
3.44569 2.09366 -0.519015 3.49733 1.83027 -0.578858 3.85368 0.630453 -1.05631 
3.70655 0.581252 -1.06782 5.42283 -0.526018 -1.45297 4.52579 -0.227349 -1.25014 
6.12533 -0.125175 -1.63373 6.02762 -0.197947 -1.6505 -0.474507 -0.180493 -1.66028 
2.9922 0.956253 -1.59933 -0.646986 0.821822 -1.63762 1.16054 -0.458182 -1.92515 
5.23336 0.7476 -1.8472 -0.397272 0.508534 -1.91352 5.8234 0.868882 -2.02346 
5.3809 0.841189 -2.0307 5.13432 0.0236514 -2.2173 2.08574 0.741619 -2.06033 
1.15022 0.829715 -2.04226 0.295308 0.182967 -2.19127 -0.294687 0.146044 -2.20093 
0.413873 0.748006 -2.26753 0.389723 0.699835 -2.27854 0.365558 0.65002 -2.28234 
0.341461 0.59687 -2.27169 0.318953 0.538008 -2.23956 0.305406 0.473221 -2.20116 
0.30559 0.40346 -2.17145 0.29395 0.342891 -2.16247 0.284065 0.276237 -2.17007 
-0.30756 0.20527 -2.15709 -0.308496 0.255499 -2.10007 -0.323159 0.310625 -2.03438 
-0.346781 0.371675 -1.97495 -0.371992 0.438437 -1.93702 -0.228165 0.150144 -2.16946 
-0.171833 0.138759 -2.16434 -0.11621 0.1308 -2.18123 -0.0539351 0.13611 -2.19508 
0.00681398 0.136762 -2.2024 0.074302 0.149154 -2.19944 0.14269 0.16192 -2.19639 
0.210442 0.16469 -2.19561 -0.36495 0.0768603 -2.0193 -0.416813 0.0024538 -1.86162 
-0.437568 -0.0870885 -1.7453 0.363274 0.138664 -2.20121 0.424195 0.117528 -2.2059 
0.486419 0.116488 -2.206 0.541165 0.103398 -2.20887 0.592322 0.0833049 -2.21333 
0.647871 0.0719702 -2.21579 0.714454 0.0826452 -2.21322 0.78184 0.0949232 -2.21029 
0.842618 0.0940194 -2.21036 0.905714 0.0977405 -2.20938 0.96654 0.0969334 -2.20944 
1.03477 0.110902 -2.20611 1.10664 0.132122 -2.20113 1.17492 0.146186 -2.19779 
1.2366 0.147069 -2.19745 1.30493 0.16123 -2.19409 1.37765 0.184141 -2.18872 
1.45116 0.208645 -2.18298 1.52472 0.233246 -2.17723 1.59829 0.257847 -2.17147 
1.67185 0.282448 -2.16572 1.74532 0.307096 -2.15995 1.81715 0.332524 -2.15401 
1.8799 0.36228 -2.14711 1.9274 0.399313 -2.13858 1.97945 0.434178 -2.13053 
2.02503 0.472128 -2.1218 2.0735 0.508698 -2.11337 2.09765 0.556869 -2.10236 
2.09738 0.616688 -2.08874 2.09847 0.67586 -2.07527 1.21784 0.863452 -2.13319 
1.27872 0.877266 -2.19829 1.34103 0.885864 -2.22659 1.39663 0.87626 -2.23626 
1.45297 0.864876 -2.23113 1.51957 0.872359 -2.2141 1.58691 0.879705 -2.18949 
1.64767 0.877158 -2.18234 1.71073 0.882426 -2.18861 1.77071 0.884764 -2.21074 
1.83294 0.889986 -2.22461 1.8885 0.880287 -2.2343 1.94394 0.867116 -2.22958 
2.00433 0.858988 -2.20092 2.05275 0.818922 -2.14156 2.15926 0.766123 -2.0546 
2.23198 0.789034 -2.04923 2.3003 0.803186 -2.04586 2.36188 0.804125 -2.04552 
2.42838 0.81916 -2.04196 2.48864 0.84801 -2.03526 2.52711 0.88758 -2.01858 
2.5656 0.923958 -1.98742 2.62657 0.944538 -1.93703 2.69735 0.956815 -1.88091 
2.76552 0.959524 -1.82697 2.828 0.949212 -1.77601 2.90235 0.949006 -1.69993 
5.03781 0.00939827 -2.21315 4.9667 0.00537062 -2.19143 4.90289 -0.00643136 -2.14867 
4.84794 -0.00665036 -2.08806 4.79663 -0.00299792 -2.01137 4.74094 -0.0131682 -1.91505 
4.67502 -0.0558662 -1.78815 4.6136 -0.119813 -1.62811 4.57019 -0.18657 -1.44588 
5.16545 -0.0813862 -2.16517 5.19352 -0.175538 -2.10298 5.22418 -0.259001 -2.02316 
5.26209 -0.328809 -1.93008 5.29965 -0.407126 -1.80854 5.35164 -0.47293 -1.64868 
5.23099 0.0671008 -2.2148 5.31281 0.102747 -2.22931 5.38767 0.138111 -2.26668 
5.46141 0.174264 -2.31148 5.53497 0.208776 -2.34905 5.60684 0.239136 -2.36477 
5.6696 0.268892 -2.35787 5.71696 0.301036 -2.32766 5.76727 0.326821 -2.2761 
5.80377 0.359193 -2.22308 5.83858 0.395675 -2.18431 5.87633 0.437358 -2.17474 
5.88505 0.492892 -2.16209 5.88766 0.549686 -2.14156 5.87335 0.611246 -2.10478 
5.85152 0.678045 -2.07443 5.83705 0.742987 -2.05208 5.83621 0.80308 -2.03841 
5.30712 0.793572 -1.93533 -0.327434 0.549774 -1.97236 -0.278742 0.599448 -2.02172 
-0.276989 0.66821 -2.05165 -0.286074 0.738839 -2.06598 -0.275966 0.798661 -2.07513 
-0.264412 0.857794 -2.08444 -0.266409 0.920088 -2.07786 -0.263793 0.976879 -2.05733 
-0.267486 1.03338 -2.02169 -0.264885 1.08852 -1.99394 -0.266814 1.14748 -1.97293 
-0.253473 1.20081 -1.96076 -0.231057 1.24981 -1.94956 -0.207021 1.29638 -1.93131 
-0.182917 1.33962 -1.89863 -0.158859 1.37793 -1.84428 -0.134816 1.41459 -1.7827 
-0.110743 1.45454 -1.73557 -0.0865098 1.50102 -1.71735 -0.0605953 1.55165 -1.72096 
-0.0257057 1.59801 -1.72553 0.0228791 1.63617 -1.72434 0.0594814 1.6784 -1.71465 
0.0960682 1.71899 -1.69773 0.144697 1.75218 -1.67488 0.181352 1.78944 -1.64354 
0.219658 1.82755 -1.61958 0.27902 1.85728 -1.6051 0.340033 1.88786 -1.59801 
0.389177 1.92411 -1.58965 0.451933 1.95387 -1.58275 0.522029 1.98012 -1.57662 
0.584785 2.00988 -1.56972 0.63402 2.04609 -1.56137 0.696874 2.07579 -1.55447 
0.768656 2.10113 -1.54856 0.841274 2.12408 -1.54318 0.909556 2.13815 -1.53983 
0.970382 2.13734 -1.53989 1.03343 2.14097 -1.53893 1.09336 2.13837 -1.53939 
1.15551 2.14021 -1.53884 1.21021 2.12718 -1.54169 1.26052 2.10539 -1.54655 
1.31083 2.08361 -1.5514 1.36548 2.07048 -1.55427 1.42683 2.07071 -1.55409 
1.48233 2.05928 -1.55657 1.53783 2.04785 -1.55906 1.59917 2.04809 -1.55887 
1.65387 2.03505 -1.56172 1.70498 2.01486 -1.56621 1.75973 2.00193 -1.56904 
1.82188 2.00376 -1.56849 1.88176 2.00107 -1.56898 1.94396 2.00301 -1.5684 
1.9995 1.99166 -1.57087 2.05507 1.98197 -1.58055 2.1173 1.98719 -1.59443 
2.17722 1.98943 -1.61658 2.23939 1.99291 -1.62326 2.29407 1.97823 -1.61888 
2.34429 1.95142 -1.60209 2.39372 1.92466 -1.59288 2.44317 1.89954 -1.5909 
2.49343 1.87766 -1.59577 2.54803 1.86444 -1.59867 2.60848 1.86288 -1.59889 
2.6579 1.83931 -1.60415 2.69628 1.79373 -1.61445 2.74045 1.75971 -1.6221 
2.78801 1.73107 -1.62092 2.82947 1.69107 -1.60714 2.85012 1.62854 -1.58335 
2.85274 1.56531 -1.56735 2.87258 1.50921 -1.58007 2.90805 1.46858 -1.61963 
2.93853 1.41556 -1.66963 2.96469 1.35044 -1.70718 2.98992 1.28048 -1.73065 
3.01334 1.20789 -1.73952 3.02601 1.13408 -1.72591 3.01437 1.05506 -1.67555 
-0.464005 0.476583 -1.82217 -0.519594 0.473316 -1.75467 -0.56907 0.49031 -1.72052 
-0.612319 0.524319 -1.70527 -0.641979 0.583006 -1.69197 -0.657331 0.647805 -1.67725 
-0.656491 0.706975 -1.66378 -0.658593 0.767668 -1.64997 1.10486 -0.461635 -1.85768 
1.04249 -0.476809 -1.80049 0.981617 -0.485777 -1.75708 0.913322 -0.506321 -1.73151 
0.841392 -0.534117 -1.7076 0.773067 -0.557948 -1.66759 0.712133 -0.568651 -1.61697 
0.648945 -0.582235 -1.57462 0.588073 -0.586359 -1.5529 0.519824 -0.601972 -1.549 
0.447955 -0.623192 -1.55398 0.379722 -0.63716 -1.5573 0.318939 -0.636265 -1.55723 
0.256728 -0.639835 -1.55057 0.201986 -0.631733 -1.52606 0.151569 -0.621457 -1.47065 
0.101091 -0.617757 -1.38635 0.0461979 -0.63093 -1.26791 -0.0154565 -0.664046 -1.12364 
3.04117 0.859519 -1.55287 3.08626 0.793902 -1.50693 3.12896 0.744235 -1.47257 
3.18501 0.727292 -1.44592 3.2396 0.707595 -1.4199 3.295 0.686292 -1.37905 
3.35708 0.675075 -1.3207 3.41683 0.657588 -1.25618 3.47884 0.644629 -1.19062 
3.53346 0.61854 -1.13567 3.58453 0.588584 -1.0968 3.64003 0.572318 -1.0776 
-0.536076 -0.150861 -1.52452 -0.589084 -0.139754 -1.40056 -0.633222 -0.126845 -1.28375 
-0.664893 -0.0935405 -1.1547 -0.691199 -0.0499372 -1.02328 -0.714908 -0.00382593 -0.89888 
-0.727904 0.0422475 -0.797257 -0.718207 0.079149 -0.705273 -0.706777 0.115221 -0.613464 
-0.707335 0.153713 -0.505951 -0.695836 0.186451 -0.399712 -0.684353 0.217547 -0.286257 
-0.684821 0.255993 -0.178744 -0.671481 0.287855 -0.0727102 -0.647484 0.319585 0.0105376 
-0.612747 0.349496 0.0781951 -0.562535 0.375329 0.129758 -0.515232 0.400897 0.188854 
-0.452646 0.417405 0.25352 -0.381801 0.426346 0.32408 -0.313722 0.424115 0.399681 
-0.252232 0.405271 0.486685 -0.184131 0.394772 0.598392 -0.111659 0.391379 0.719324 
-0.038357 0.392866 0.826181 0.0350696 0.402673 0.896933 0.108524 0.420601 0.931557 
0.181226 0.441867 0.944151 0.249492 0.454287 0.954722 0.310229 0.448461 0.976313 
0.372333 0.440523 1.02021 0.426909 0.414185 1.07511 0.477046 0.372899 1.14179 
0.526512 0.309552 1.21864 -0.435464 -0.260051 -1.64792 -0.385729 -0.304535 -1.60477 
-0.330447 -0.334048 -1.53539 -0.288761 -0.394096 -1.45022 -0.249229 -0.459969 -1.35877 
-0.213548 -0.536747 -1.25462 -0.174003 -0.605819 -1.14871 -0.131514 -0.667405 -1.04869 
6.0869 -0.166532 -1.64323 5.97785 -0.212188 -1.47912 5.92818 -0.221401 -1.32938 
5.87936 -0.224087 -1.20096 5.83497 -0.213086 -1.09219 5.79727 -0.188733 -0.98037 
5.75379 -0.174301 -0.878413 5.71116 -0.158175 -0.77608 5.67965 -0.115014 -0.690348 
5.65339 -0.0565669 -0.623924 5.62803 0.0101467 -0.586004 5.6027 0.0801469 -0.562525 
5.57659 0.150197 -0.546636 5.54609 0.211499 -0.532747 5.50889 0.259435 -0.521915 
5.47749 0.31894 -0.508437 5.44529 0.376852 -0.495324 5.40281 0.414252 -0.486901 
5.35966 0.450997 -0.482423 5.32422 0.502023 -0.478483 5.29112 0.54948 -0.479146 
5.98942 -0.20309 -1.81888 5.92857 -0.205682 -1.94875 5.85698 -0.21636 -2.01971 
5.78353 -0.239366 -2.03269 5.70987 -0.27383 -1.99512 5.63615 -0.317114 -1.91903 
5.56263 -0.371099 -1.79978 5.49085 -0.439529 -1.64078 5.36786 -0.535766 -1.21474 
5.32116 -0.538475 -1.01793 5.28304 -0.520996 -0.872224 5.23864 -0.507758 -0.773075 
5.18992 -0.498936 -0.695205 5.14042 -0.490066 -0.624916 5.09088 -0.479648 -0.561874 
[...]
POINT_DATA 714
SCALARS DY_raw double
LOOKUP_TABLE default
769.855 575.546 675.965 679.657 516.556 571.373 532.749 612.728 467.372 
460.089 569.747 568.555 550.416 686.929 628.398 738.761 496.681 550.74 
462.903 501.749 980.086 656.212 665.282 646.328 566.026 735.628 583.619 
783.878 597.08 543.742 713.901 598.516 622.65 576.195 583.406 590.934 
764.29 554.752 464.263 597.29 811.388 718.013 623.528 539.218 728.669 
673.972 696.402 777.82 993.982 681.181 351.941 844.555 810.398 886.839 
828.116 860.26 972.157 892.129 813.017 696.943 378.413 428.088 478.403 
484.003 569.986 399.582 429.747 484.032 491.048 486.848 507.482 519.659 
570.263 459.185 486.266 477.426 741.26 797.037 838.411 877.563 931.774 
845.978 892.758 840.612 778.348 778.348 729.285 690.54 690.54 717.93 
707.277 707.724 714.884 737.161 737.161 774.315 775.904 768.669 722.409 
641.229 636.982 644.421 661.879 661.879 743.194 770.898 771.4 784.938 
786.655 781.769 755.654 811.76 752.46 707.36 772.43 742.594 756.66 
756.66 664.06 710.63 684.912 684.058 766.729 746.267 781.856 820.402 
854.356 900.031 929.365 904.023 876.563 821.83 692.464 589.993 556.739 
604.357 628.365 619.971 588.945 509.804 582.509 522.755 569.439 547.829 
701.755 751.875 622.394 467.064 462.393 488.123 826.854 971.108 1013.54 
1115.36 1019.13 977.272 888.342 891.658 872.646 905.692 969.723 985.266 
985.266 874.455 749.104 749.104 709.744 772.818 649.536 579.868 577.081 
655.62 665.29 665.29 626.579 843.636 750.243 951.624 817.599 825.672 
746.418 746.418 603.047 563.867 563.867 558.85 583.541 628.931 613.812 
599.588 571.136 522.157 545.538 511.122 471.699 505.418 519.684 517.229 
530.513 540.371 548.629 553.521 581.773 604.685 644.198 677.078 675.923 
684.622 684.622 712.355 619.057 591.649 627.962 604.369 617.685 617.685 
618.087 659.442 659.442 607.695 654.41 633.936 609.985 656.466 663.671 
689.468 772.571 725.552 792.028 792.028 771.904 751.565 880.319 793.696 
793.696 750.493 724.789 724.789 741.631 782.244 696.152 727.481 751.13 
807.921 763.215 778.49 686.015 711.196 771.685 698.083 640.072 628.987 
486.844 572.089 502.296 502.296 526.182 540.07 512.364 651.18 697.234 
582.465 527.136 495.422 514.439 554.565 618.555 670.18 660.221 693.669 
666.283 631.484 557.388 557.388 549.949 545.215 601.527 607.779 526.432 
608.639 557.325 515.44 519.846 487.216 488.24 521.544 507.31 537.566 
543.151 555.284 555.284 529.519 625.025 576.838 512.592 572.85 544.389 
507.877 570.872 612.97 650.668 665.49 620.841 566.42 550.273 578.449 
518.177 515.783 511.335 527.914 594.422 609.898 630.907 602.75 512.022 
563.054 640.498 621.201 659.419 667.075 652.558 618.967 610.823 591.279 
639.929 431.578 474.281 543.003 506.992 426.462 459.272 415.528 480.051 
607.346 496.43 584.33 671.356 687.197 712.929 849.842 766.937 854.156 
996.37 840.057 723.795 748.396 672.148 702.31 702.31 769.535 684.096 
785.11 728.829 779.677 501.145 497.227 555.381 555.381 678.551 666.82 
649.847 618.98 552.018 633.256 629.932 656.53 661.364 688.798 734.668 
843.681 835.515 794.402 560.803 581.967 587.124 576.172 598.516 616.253 
651.226 720.927 523.908 518.492 565.212 590.246 580.219 556.652 570.258 
588.09 608.699 656.553 676.367 617.175 589.417 597.593 625.905 631.094 
659.989 659.989 693.581 778.349 819.96 697.913 705.34 579.876 568.148 
593.853 455.914 455.914 458.495 466.761 521.288 533.006 552.749 508.115 
496.183 466.826 466.826 451.78 468.048 512.569 548.97 552.448 533.467 
478.814 474.822 516.032 528.527 540.664 572.035 591.171 633.003 897.526 
615.631 611.267 625.299 619.575 612.929 566.15 610.591 702.234 692.113 
696.665 678.302 678.414 740.461 765.506 765.506 803.711 902.687 937.902 
930.567 840.052 836.443 775.446 720.517 763.871 693.05 646.328 486.947 
543.905 562.454 509.099 544.04 517.796 624.039 612.201 549.358 548.328 
562.931 574.897 575.409 594.468 626.237 697.666 661.459 641.705 626.844 
545.388 545.388 511.572 509.502 542.922 523.837 519.74 519.74 529.337 
611.772 659.766 590.802 526.074 559.787 496.681 637.965 675.714 627.275 
666.97 691.849 637.907 674.725 630.552 624.238 751.27 620.274 629.744 
603.449 579.337 464.909 606.386 558.268 540.62 563.724 518.596 556.902 
556.902 578.901 640.607 687.434 744.101 684.297 694.406 519.232 535.028 
547.297 488.699 508.101 484.313 488.952 488.952 522.639 562.056 629.552 
554.928 504.219 449.155 430.969 468.746 506.265 504.51 609.256 585.393 
694.411 736.144 689.416 662.063 605.79 642.802 548.072 548.072 493.144 
451.612 451.612 490.543 542.025 584.267 568.82 541.307 541.307 476.654 
478.019 554.23 543.804 543.804 554.941 509.862 594.627 572.489 612.599 
699.283 498.789 517.722 505.239 535.966 549.332 629.643 635.539 611.193 
639.5 490.123 489.046 520.191 528.933 534.315 555.411 539.574 562.933 
545.519 544.718 575.01 587.471 624.439 619.82 678.218 691.603 667.353 
681.209 634.893 629.36 622.537 564.908 586.985 584.92 628.431 627.158 
627.922 622.973 605.131 598.018 607.222 580.856 601.043 530.965 558.289 
640.157 646.327 657.404 616.907 536.875 593.523 608.671 643.809 625.684 
621.527 661.267 686.488 711.848 651.735 661.259 597.576 586.395 595.796 
618.702 619.039 646.859 727.46 694.009 702.564 697.725 658.302 590.684 
563.956 564.015 604.453 568.903 549.122 509.471 510.759 482.453 533.588 
530.214 664.505 698.315 720.664 675.112 653.672 653.672 671.551 734.09 
795.617 792.491 755.313 454.616 454.616 466.059 515.269 555.556 550.323 
622.132 648.502 683.586 693.438 672.66 672.66 590.569 560.445 560.445 
534.194 533.948 550.743 529.274 529.274 504.329 518.094 511.967 480.215 
516.556 546.612 634.128 613.707 642.132 686.643 652.596 589.455 626.767 
713.357 667.004 667.96 716.023 729.635 768.806 816.65 822.432 775.117 
567.883 591.215 619.974 675.809 657.397 711.201 681.089 653.926 638.312 
761.526 808.027 684.834 
FIELD FieldData 7
DY_minmax 1 714 double
0.547425 0.2929 0.424439 0.429275 0.215629 0.287434 0.23684 0.341604 0.151202 
0.141663 0.285304 0.283743 0.259982 0.438801 0.36213 0.506695 0.189595 0.260407 
0.145349 0.196233 0.822806 0.398564 0.410445 0.385617 0.28043 0.50259 0.303475 
0.565794 0.321107 0.251239 0.47413 0.322988 0.354601 0.29375 0.303196 0.313057 
0.540135 0.265662 0.14713 0.321382 0.601829 0.479518 0.355752 0.245314 0.493475 
0.421828 0.451209 0.557858 0.841008 0.431271 0 0.645274 0.600532 0.700662 
0.623741 0.665847 0.81242 0.707591 0.603963 0.451917 0.0346755 0.0997442 0.165653 
0.172988 0.285617 0.0624051 0.101917 0.173025 0.182216 0.176715 0.203743 0.219694 
0.28598 0.140479 0.175952 0.164373 0.509969 0.58303 0.637227 0.688511 0.759521 
0.647139 0.708416 0.64011 0.55855 0.55855 0.494282 0.44353 0.44353 0.479408 
0.465454 0.466039 0.475418 0.504599 0.504599 0.553267 0.555348 0.545871 0.485275 
0.378938 0.373374 0.383118 0.405988 0.405988 0.512502 0.54879 0.549449 0.567181 
0.569431 0.563031 0.528823 0.602316 0.524639 0.465563 0.550798 0.511715 0.53014 
0.53014 0.408845 0.469846 0.436158 0.43504 0.543331 0.516527 0.563145 0.613636 
0.658113 0.717942 0.756367 0.723172 0.687202 0.615507 0.446051 0.311823 0.268265 
0.330639 0.362088 0.351091 0.310451 0.206784 0.302021 0.223749 0.2849 0.256594 
0.458221 0.523873 0.354266 0.150799 0.144681 0.178385 0.622088 0.811046 0.866625 
1 0.873953 0.81912 0.702631 0.706975 0.682071 0.725357 0.809231 0.829591 
0.829591 0.68444 0.520243 0.520243 0.468685 0.551307 0.38982 0.298561 0.294911 
0.397789 0.410455 0.410455 0.359748 0.64407 0.521735 0.785524 0.609964 0.620539 
0.516725 0.516725 0.328923 0.277601 0.277601 0.271029 0.303373 0.362829 0.343024 
0.324392 0.287123 0.222966 0.253593 0.208511 0.156871 0.20104 0.219726 0.216511 
0.233912 0.246823 0.257641 0.264049 0.301057 0.331069 0.382827 0.425896 0.424384 
0.435778 0.435778 0.472105 0.349894 0.313993 0.36156 0.330655 0.348097 0.348097 
0.348625 0.402795 0.402795 0.335011 0.396203 0.369385 0.338011 0.398897 0.408334 
0.442126 0.550983 0.489392 0.576469 0.576469 0.550109 0.523467 0.692122 0.578655 
0.578655 0.522063 0.488393 0.488393 0.510454 0.563654 0.450882 0.491919 0.522897 
0.597287 0.538727 0.558736 0.437602 0.470587 0.549821 0.453411 0.377423 0.362902 
0.176709 0.288372 0.19695 0.19695 0.228238 0.24643 0.210138 0.391973 0.452299 
0.301962 0.229487 0.187946 0.212856 0.265417 0.349237 0.41686 0.403815 0.447629 
0.411756 0.366173 0.269114 0.269114 0.259371 0.25317 0.326933 0.335122 0.228566 
0.336248 0.269032 0.214167 0.219939 0.177197 0.178538 0.222162 0.203518 0.24315 
0.250465 0.266358 0.266358 0.232609 0.357712 0.294592 0.210437 0.289368 0.252087 
0.20426 0.286778 0.341922 0.391303 0.410717 0.352232 0.280945 0.259795 0.296702 
0.217752 0.214617 0.20879 0.230507 0.317625 0.337897 0.365418 0.328534 0.209689 
0.276536 0.37798 0.352704 0.402764 0.412793 0.393777 0.349777 0.339109 0.313509 
0.377235 0.104316 0.160254 0.250272 0.2031 0.0976152 0.140592 0.0832929 0.167811 
0.334554 0.189265 0.304406 0.418401 0.439151 0.472858 0.6522 0.543602 0.657851 
0.844136 0.639382 0.487091 0.519316 0.419439 0.458948 0.458948 0.547005 0.435089 
0.567407 0.493685 0.560291 0.195442 0.190309 0.266486 0.266486 0.427826 0.41246 
0.390226 0.349794 0.262081 0.368494 0.36414 0.39898 0.405312 0.441249 0.501333 
0.644129 0.633432 0.579579 0.273588 0.301311 0.308066 0.29372 0.322988 0.346221 
0.392033 0.483334 0.225259 0.218165 0.279363 0.312156 0.29902 0.26815 0.285974 
0.309331 0.336327 0.399011 0.424965 0.34743 0.311069 0.321779 0.358864 0.365661 
0.403512 0.403512 0.447514 0.558551 0.613057 0.453188 0.462917 0.298571 0.28321 
0.31688 0.136194 0.136194 0.139575 0.150402 0.221828 0.237176 0.263038 0.204572 
0.188942 0.150487 0.150487 0.130778 0.152088 0.210407 0.258087 0.262643 0.237781 
0.166191 0.160962 0.214943 0.231309 0.247208 0.288301 0.313368 0.368162 0.714661 
0.345407 0.339691 0.358071 0.350574 0.341868 0.280592 0.338805 0.458848 0.44559 
0.451553 0.4275 0.427647 0.508921 0.541727 0.541727 0.591773 0.721421 0.767549 
0.757941 0.639375 0.634648 0.554749 0.482796 0.539586 0.446819 0.385617 0.176843 
0.251453 0.27575 0.20586 0.25163 0.217253 0.356421 0.340914 0.258597 0.257248 
0.276375 0.29205 0.29272 0.317685 0.359299 0.452865 0.405437 0.379561 0.360095 
0.253395 0.253395 0.2091 0.206389 0.250166 0.225167 0.219799 0.219799 0.232371 
0.340352 0.403219 0.312884 0.228096 0.272257 0.189595 0.374663 0.42411 0.36066 
0.412656 0.445245 0.374587 0.422814 0.364952 0.356681 0.52308 0.351489 0.363894 
0.32945 0.297865 0.147977 0.333297 0.270268 0.247151 0.277414 0.218301 0.268478 
0.268478 0.297294 0.378123 0.439461 0.513689 0.435353 0.448594 0.219134 0.239826 
0.255896 0.179139 0.204554 0.173393 0.17947 0.17947 0.223597 0.275229 0.363642 
0.265892 0.199468 0.127341 0.103519 0.153003 0.202149 0.19985 0.337057 0.305799 
0.448601 0.503267 0.442058 0.406228 0.332516 0.380999 0.256911 0.256911 0.184961 
0.130559 0.130559 0.181554 0.24899 0.304323 0.284089 0.24805 0.24805 0.163361 
0.165149 0.264978 0.25132 0.25132 0.265909 0.20686 0.317893 0.288895 0.341435 
0.454982 0.192356 0.217156 0.200805 0.241054 0.258562 0.363761 0.371484 0.339594 
0.376673 0.181005 0.179593 0.22039 0.231841 0.238891 0.266526 0.245781 0.276378 
0.253568 0.252518 0.292197 0.30852 0.356945 0.350894 0.427389 0.444922 0.413158 
0.431308 0.370638 0.36339 0.354453 0.278966 0.307884 0.305179 0.362174 0.360507 
0.361507 0.355024 0.331653 0.322335 0.334393 0.299855 0.326298 0.234503 0.270295 
0.377533 0.385615 0.400125 0.347079 0.242245 0.316448 0.33629 0.382317 0.358576 
0.353131 0.405186 0.438223 0.471442 0.392699 0.405175 0.321756 0.307111 0.319425 
0.34943 0.349871 0.386312 0.491892 0.448074 0.45928 0.452942 0.401302 0.312729 
0.277718 0.277795 0.330765 0.284198 0.258287 0.206349 0.208035 0.170958 0.23794 
0.23352 0.409428 0.453714 0.482989 0.423321 0.395237 0.395237 0.418656 0.500576 
0.581171 0.577076 0.528376 0.134494 0.134494 0.149483 0.213943 0.266714 0.25986 
0.353923 0.388465 0.434422 0.447327 0.420109 0.420109 0.312578 0.27312 0.27312 
0.238733 0.23841 0.260411 0.232288 0.232288 0.199613 0.217643 0.209618 0.168026 
0.215629 0.254999 0.369637 0.342886 0.380121 0.438425 0.393827 0.311119 0.359995 
0.473418 0.412701 0.413953 0.47691 0.494741 0.546051 0.608722 0.616295 0.554317 
0.282861 0.313424 0.351096 0.424235 0.400117 0.470594 0.43115 0.395569 0.375117 
0.536515 0.597426 0.436056 
WidthEq 1 714 double
1.91281 1.83116 2.29374 2.5524 3.19648 2.32643 1.98266 2.54676 3.55695 
2.03999 2.83199 2.68167 2.86988 2.301 2.40045 2.19606 2.88062 2.68502 
3.94337 4.12546 1.46874 2.18409 2.44667 2.76742 2.69526 2.45572 2.66344 
1.94589 2.2852 3.32696 2.16549 2.4588 2.16597 2.65297 3.65752 3.28867 
3.11094 4.24941 3.32359 2.55468 1 1.66355 2.42569 3.34562 1.88688 
2.03791 2.37416 1.83612 1.18909 2.21368 2.64606 1.65898 1.71461 1.55736 
1.64875 1.58433 1.38148 1.56663 1.78562 2.13112 3.1585 3.34616 3.38643 
3.42538 3.25131 2.9015 2.63834 2.40949 2.38192 2.52748 2.58815 2.53752 
2.45639 2.7187 2.89487 3.21819 2.03379 1.82679 1.65761 1.43976 1.39085 
1.49904 1.45452 1.57441 1.85459 1.85459 2.01205 2.14465 2.14465 2.01675 
1.97087 1.98163 1.9219 1.81653 1.81653 1.52488 1.66667 1.6421 1.77588 
2.19795 2.11156 2.3442 2.23793 2.23793 2.02439 1.92848 1.97193 1.53454 
1.63594 1.64849 1.70873 1.58176 1.6296 1.70411 1.54585 1.71653 1.72197 
1.72197 1.93919 1.8295 1.96799 2.09768 1.89829 1.84604 1.76962 1.64219 
1.48547 1.34226 1.243 1.26268 1.23353 1.38253 1.74312 2.22143 2.59746 
2.36155 2.09072 2.03274 2.23088 2.76249 2.73513 3.35593 3.52619 3.74607 
2.44939 2.23128 2.44894 3.12122 3.49116 3.84521 2.16731 1.88243 1.77268 
1.41262 1.57902 1.50134 1.65148 1.73544 1.65582 1.56844 1.53559 1.527 
1.527 1.65697 1.85109 1.85109 1.99273 1.84993 2.43415 3.12485 3.01236 
2.63732 2.42936 2.42936 2.31426 1.61274 1.78888 1.37112 1.58255 1.57045 
1.68403 1.68403 1.92199 2.06112 2.06112 2.17996 2.12852 2.01228 2.19314 
2.25822 2.36127 2.43085 2.35725 2.46459 2.54478 2.46138 2.39896 2.44435 
2.37407 2.34983 2.28795 2.22965 2.12345 1.96725 1.87201 1.87906 1.78953 
1.87421 1.87421 1.8808 2.03653 2.01296 1.95957 1.98645 1.95271 1.95271 
1.92215 1.86198 1.86198 1.87502 1.86551 1.8887 1.83883 1.81948 1.76991 
1.64039 1.59691 1.61265 1.56335 1.56335 1.53454 1.55843 1.47762 1.60106 
1.60106 1.66778 1.68133 1.68133 1.64731 1.5817 1.71622 1.68825 1.68314 
1.61965 1.64347 1.58703 1.69111 1.74666 1.70645 1.98022 2.211 2.38265 
3.50143 3.33182 3.24073 3.24073 2.95587 2.54543 2.29303 1.56371 2.20643 
2.96689 3.08683 3.1682 3.16494 2.9746 2.61922 2.41086 2.35027 2.31754 
2.4051 2.40482 2.59004 2.59004 2.60756 2.64728 2.59338 2.74642 3.55316 
2.40518 2.44379 2.6029 2.62346 2.83769 2.83891 2.7901 2.8461 2.77126 
2.79977 2.83449 2.83449 3.05377 2.78859 2.9161 3.30428 3.05279 3.28035 
3.58878 3.30688 2.83186 2.50888 2.43787 2.44595 2.6831 2.83401 2.72615 
3.07067 3.05341 3.02273 2.74466 2.41217 2.24467 2.34335 2.58346 2.99507 
2.87626 2.65396 2.77023 2.44341 2.38103 2.25661 2.24753 2.33167 2.44933 
2.47532 3.16047 2.92385 2.65961 2.81142 3.42609 3.58713 3.94254 3.76762 
4.09376 4.61785 3.96372 3.54664 3.01683 2.67165 2.23717 2.23205 2.0294 
1.78628 1.93255 2.00092 2.04917 2.14638 2.17641 2.17641 2.07034 2.22571 
2.15344 2.296 2.319 4.55122 3.65298 2.94875 2.94875 2.21819 2.18231 
2.60672 3.29082 3.67257 3.34915 3.21747 2.9963 2.86556 2.69148 2.56405 
2.31277 2.09434 2.04731 2.41505 2.49471 2.52818 2.61984 2.4588 2.6148 
2.49641 2.20463 3.56453 3.57484 3.22473 3.17199 3.03506 2.89468 2.82803 
2.82936 2.74245 2.44973 2.32687 2.38376 2.42168 2.38361 2.30102 2.32331 
2.28056 2.28056 2.27881 2.00633 1.90099 2.01317 1.82387 2.2769 2.42625 
2.48563 3.24773 3.24773 3.29757 3.12648 2.90856 2.76995 2.59638 2.72932 
2.77204 2.90329 2.90329 3.15045 3.15638 3.00349 3.07104 2.91155 2.97397 
3.18585 3.17912 3.06304 3.20428 3.12426 2.90258 2.67991 2.54436 1.58684 
2.85547 2.93513 2.54835 2.82745 2.75996 2.91184 2.79394 2.54187 2.56821 
2.71588 2.72648 2.53831 2.32251 1.97785 1.97785 1.76844 1.51004 1.55837 
1.65329 1.99836 2.06039 2.2719 2.39878 2.21808 2.49234 2.76742 3.49876 
3.32725 3.24857 3.30234 3.17129 3.06974 2.67649 2.68741 2.94967 2.94504 
2.96617 2.87263 2.82677 2.69017 2.50341 2.28479 2.31166 2.47205 2.55897 
2.9649 2.9649 3.10984 3.22216 3.0998 3.25723 3.10971 3.10971 2.55428 
2.26177 2.1975 2.53424 2.85349 2.78293 2.88062 3.02649 2.89462 2.94757 
2.82557 2.7016 2.94118 2.91148 3.22511 3.26258 2.79122 3.00828 2.67476 
2.69555 2.77773 3.19567 2.79455 2.98315 2.93294 2.74967 2.84356 2.44987 
2.44987 2.13584 1.75978 1.67689 1.65902 1.98102 2.06633 2.82831 2.81699 
2.85857 3.18248 3.06559 3.03535 2.902 2.902 2.55878 2.42025 2.59433 
3.2979 3.63064 4.01863 3.91225 3.33643 3.19036 2.63582 1.98299 1.86674 
1.56554 1.59843 1.6538 2.11471 2.45482 2.37623 2.86318 2.86318 3.10114 
3.366 3.366 3.29335 3.07521 2.94742 2.86901 2.90925 2.90925 3.08505 
3.13485 3.04956 3.07263 3.07263 3.1556 3.8996 3.55843 3.61048 3.29574 
2.66913 4.05397 3.7726 3.60411 3.5152 3.01409 2.95961 2.90745 2.88005 
2.81463 3.04003 3.02793 2.98923 2.92706 2.84577 2.80669 2.72381 2.66634 
2.64674 2.66506 2.61086 2.61185 2.49955 2.45016 2.27158 2.21563 2.20481 
2.1804 2.11224 2.01382 2.1871 2.1561 2.23617 2.22639 2.1011 2.15303 
2.17885 2.28551 2.38631 2.46397 2.38337 2.44375 2.1157 3.83443 3.72699 
3.11833 2.78167 2.5231 2.52352 3.51383 2.86454 2.54489 2.44885 2.30982 
2.19445 2.0338 2.11588 2.0861 2.37434 2.26469 2.4635 2.36076 2.26963 
2.31379 2.46751 2.36738 2.14436 2.25449 2.34018 2.39955 2.43754 2.54 
2.5506 2.51655 2.54385 2.92494 3.18015 3.57307 3.64647 3.7 2.81769 
2.91968 2.52446 2.32066 2.19932 2.28726 2.36577 2.36577 2.26053 2.10633 
1.93722 1.88422 1.91547 3.22346 3.22346 3.40107 2.92043 2.58636 2.56527 
2.56926 2.4327 2.26685 2.24706 2.29851 2.29851 2.5312 2.58357 2.58357 
2.62225 2.59995 2.62432 2.7424 2.7424 2.78538 2.73892 2.98071 3.14073 
3.19648 2.31782 2.42832 2.42593 2.27953 2.29767 2.46739 3.0736 2.83125 
2.66541 2.68793 2.59147 2.49302 2.26453 2.148 2.01223 1.95981 1.9752 
2.99479 2.82883 2.89641 2.64021 2.51289 2.10095 2.08639 2.19658 2.29331 
2.16518 1.92903 2.01396 
rRFP 1 714 double
3629.06 3570.06 3904.32 4091.23 4556.64 3927.94 3679.53 4087.15 4817.12 
3720.96 4293.26 4184.64 4320.64 3909.57 3981.43 3833.74 4328.4 4187.06 
5096.35 5227.93 3308.17 3825.09 4014.83 4246.6 4194.46 4021.37 4171.47 
3652.96 3898.15 4650.93 3811.65 4023.59 3811.99 4163.9 4889.79 4623.26 
4494.83 5317.49 4648.49 4092.88 2969.46 3448.94 3999.67 4664.41 3610.32 
3719.46 3962.43 3573.64 3106.1 3846.47 4158.91 3445.64 3485.84 3372.21 
3438.25 3391.7 3245.12 3378.91 3537.15 3786.81 4529.2 4664.8 4693.9 
4722.05 4596.26 4343.49 4153.33 3987.96 3968.04 4073.22 4117.06 4080.48 
4021.85 4211.4 4338.7 4572.33 3716.48 3566.9 3444.65 3287.23 3251.89 
3330.07 3297.9 3384.53 3586.99 3586.99 3700.77 3796.59 3796.59 3704.17 
3671.01 3678.79 3635.63 3559.49 3559.49 3348.74 3451.2 3433.44 3530.11 
3835.1 3772.68 3940.78 3863.99 3863.99 3709.69 3640.38 3671.78 3355.72 
3428.99 3438.06 3481.59 3389.84 3424.41 3478.25 3363.89 3487.23 3491.16 
3491.16 3648.12 3568.86 3668.93 3762.65 3618.57 3580.81 3525.59 3433.51 
3320.26 3216.78 3145.05 3159.27 3138.21 3245.88 3506.44 3852.07 4123.79 
3953.32 3757.62 3715.72 3858.9 4243.04 4223.27 4671.86 4794.89 4953.78 
4016.79 3859.19 4016.47 4502.26 4769.58 5025.42 3812.96 3607.11 3527.8 
3267.62 3387.86 3331.73 3440.22 3500.89 3443.36 3380.22 3356.48 3350.27 
3350.27 3444.19 3584.46 3584.46 3686.81 3583.62 4005.78 4504.88 4423.6 
4152.59 4002.32 4002.32 3919.15 3412.23 3539.51 3237.63 3390.41 3381.67 
3463.74 3463.74 3635.69 3736.23 3736.23 3822.1 3784.93 3700.94 3831.63 
3878.65 3953.12 4003.4 3950.21 4027.78 4085.72 4025.46 3980.35 4013.15 
3962.37 3944.85 3900.14 3858.01 3781.27 3668.4 3599.58 3604.67 3539.98 
3601.17 3601.17 3605.93 3718.46 3701.43 3662.85 3682.27 3657.89 3657.89 
3635.81 3592.33 3592.33 3601.75 3594.88 3611.64 3575.6 3561.62 3525.8 
3432.21 3400.79 3412.16 3376.54 3376.54 3355.72 3372.98 3314.59 3403.79 
3403.79 3452 3461.79 3461.79 3437.21 3389.8 3487 3466.79 3463.1 
3417.22 3434.43 3393.65 3468.86 3509 3479.94 3677.77 3844.53 3968.57 