# vtk DataFile Version 3.0
vtk output
ASCII
DATASET POLYDATA
POINTS 576 float
6.65629 0.42175 1.52563 6.7675 0.35217 1.26168 7.28811 0.20133 1.11761 
6.38348 0.358775 1.30233 6.08271 0.260381 1.35433 6.79284 0.19206 0.872642 
6.76641 0.0454343 1.00466 7.16923 0.970615 0.780423 7.19349 -0.0729418 0.395213 
7.10569 0.875892 0.582712 7.24088 0.395756 0.281713 7.4198 -0.071041 0.258811 
2.96722 0.724486 1.37336 2.28642 0.659465 1.50092 2.37851 0.581174 1.47823 
3.23241 0.382483 1.09666 3.06519 0.110924 0.87881 2.27726 0.175141 1.26839 
3.11064 1.43174 0.981593 3.46848 0.612468 0.861289 3.33888 0.437002 0.807365 
2.42431 -0.120079 1.01745 1.94013 -0.212771 1.10527 7.37532 0.333255 -0.183564 
3.22105 1.36937 0.752271 6.93018 0.192571 -0.038252 7.37781 -0.25236 -0.152556 
3.81322 0.6876 0.422026 3.45893 0.20359 0.633537 3.38809 1.54218 0.526675 
4.78257 -0.154531 0.0793977 0.911265 -0.532329 0.440689 0.848374 -0.361337 0.830872 
4.8983 1.07525 0.00148197 4.65307 0.551489 -0.119842 3.95012 0.548215 0.0158553 
0.501193 -0.41252 0.513843 4.75664 0.885976 -0.187027 4.07814 0.368328 -0.0881521 
3.97322 0.393142 -0.06632 0.340756 1.19576 0.686032 3.5955 -0.0261128 -0.0194541 
2.43319 -0.711887 0.162463 1.76521 -0.723432 0.290885 0.0943358 0.212155 0.160829 
0.0188901 -0.657406 -0.0476646 0.658937 -0.905393 -0.0357036 0.579018 -0.99818 -0.109187 
-0.464126 -0.595319 -0.222515 0.0305202 -1.03472 -0.20951 -0.11228 -0.807132 -0.50784 
2.94963 -0.0797895 -1.12245 0.559897 1.62215 -0.962411 1.73215 -0.501103 -1.32153 
-0.866086 -0.296908 -1.06158 2.02447 1.63801 -1.51669 0.329256 1.34114 -0.988265 
-0.786239 0.550966 -1.04112 2.05138 -0.30962 -1.57539 1.34141 -0.459754 -1.58355 
1.52853 -0.239203 -1.674 -0.94927 0.272575 -1.23106 -0.699794 0.347603 -1.41066 
-0.816384 0.0926268 -1.40403 -0.946954 0.0104876 -1.38391 0.575499 -0.575633 -1.71482 
-0.00154563 -0.439154 -1.59475 -0.289491 -0.484072 -1.54188 -0.667284 0.229556 -1.5906 
-0.676766 0.28722 -1.51715 -0.705967 0.182672 -1.60873 -0.741613 0.136324 -1.58205 
-0.780335 0.102124 -1.50867 -0.233325 -0.481019 -1.55255 -0.171748 -0.455409 -1.56285 
-0.110196 -0.429906 -1.57316 -0.0545057 -0.428838 -1.58386 0.641738 -0.549495 -1.70332 
0.705845 -0.538551 -1.6848 0.769755 -0.522127 -1.67346 0.830607 -0.512153 -1.66948 
0.888452 -0.495794 -1.6872 0.942737 -0.494282 -1.70516 0.996575 -0.494637 -1.72314 
1.05262 -0.492109 -1.73382 1.10393 -0.517837 -1.73528 1.16421 -0.527839 -1.7148 
1.24392 -0.502747 -1.66061 -0.883073 0.0520105 -1.40123 -0.880265 0.0511043 -1.38671 
-0.966713 0.0702104 -1.28062 -0.981296 0.130639 -1.21608 -0.973831 0.194756 -1.20597 
-0.962484 -0.0441266 -1.28039 -0.933898 -0.110946 -1.19938 -0.892913 -0.192692 -1.13115 
-0.894728 0.289877 -1.39673 -0.841003 0.31327 -1.4888 -0.777802 0.325227 -1.48264 
-0.728927 0.410734 -1.3381 -0.755244 0.4764 -1.21553 1.37549 -0.382613 -1.70879 
1.41593 -0.325205 -1.77349 1.46011 -0.278189 -1.75138 -0.964184 0.344345 -1.12291 
-0.950944 0.401221 -1.04129 -0.91801 0.450613 -0.999221 -0.860224 0.498204 -1.00491 
1.53788 -0.18554 -1.77072 1.57406 -0.150841 -1.84357 1.62222 -0.147402 -1.8829 
1.67505 -0.157801 -1.89377 1.73174 -0.17146 -1.88291 1.79262 -0.186585 -1.85027 
1.85628 -0.202722 -1.80311 1.9223 -0.221643 -1.74147 1.98837 -0.252962 -1.66549 
1.59939 -0.316605 -1.52624 1.66653 -0.400666 -1.4084 1.9353 1.60662 -1.56691 
1.86526 1.60294 -1.59895 1.805 1.60248 -1.60749 1.7452 1.58863 -1.60183 
1.68951 1.58756 -1.59113 1.63382 1.58649 -1.58043 1.57643 1.57203 -1.56267 
1.52539 1.57148 -1.53017 1.48091 1.57929 -1.47573 1.43825 1.58842 -1.414 
1.39421 1.59811 -1.35953 1.34736 1.60871 -1.31958 1.30054 1.61941 -1.27962 
1.25838 1.63063 -1.21786 1.22319 1.65198 -1.13413 1.1981 1.69652 -1.02825 
1.17365 1.74288 -0.922359 1.15112 1.7751 -0.810175 1.15176 1.81764 -0.709376 
1.19679 1.85983 -0.617193 1.2473 1.90085 -0.541244 1.31181 1.92665 -0.476522 
1.37877 1.92607 -0.421472 1.44563 1.92374 -0.374073 1.51332 1.93703 -0.340983 
1.5774 1.94787 -0.322461 1.64362 1.9739 -0.310964 1.7094 1.99815 -0.299495 
1.76653 1.99888 -0.302932 1.8171 1.99124 -0.3283 1.86392 1.99315 -0.38259 
1.91101 2.0088 -0.451188 1.95082 2.00037 -0.527432 1.9829 1.96606 -0.611368 
2.01251 1.93403 -0.709797 2.0339 1.88663 -0.830269 2.04957 1.83043 -0.967819 
2.05908 1.77284 -1.12695 2.05406 1.71093 -1.31125 -0.891258 -0.30985 -0.883669 
-0.892516 -0.346774 -0.808248 -0.878539 -0.360663 -0.881737 1.42435 -0.534207 -1.50849 
1.49866 -0.570086 -1.43439 1.56942 -0.575743 -1.37535 1.64632 -0.547978 -1.3381 
2.1218 -0.272346 -1.55644 2.19273 -0.245584 -1.52313 2.26012 -0.233562 -1.49006 
2.32821 -0.206001 -1.47126 2.39259 -0.168685 -1.48138 2.45645 -0.139872 -1.48437 
2.52059 -0.128821 -1.46584 2.59291 -0.115115 -1.41095 2.66502 -0.108658 -1.3489 
2.73873 -0.0955115 -1.28674 2.8094 -0.0887088 -1.23195 2.88128 -0.0768885 -1.17709 
2.0289 -0.361297 -1.54403 1.98528 -0.408104 -1.49317 1.93215 -0.450873 -1.43265 
1.87704 -0.482127 -1.37859 1.81456 -0.491552 -1.34443 -0.735822 0.621862 -1.02125 
-0.698818 0.679114 -1.02483 -0.652325 0.72647 -1.05858 -0.607268 0.772839 -1.09211 
-0.579277 0.822729 -1.09441 -0.545776 0.870832 -1.06765 -0.490375 0.913633 -1.03789 
-0.445679 0.959209 -1.02102 -0.432574 1.0125 -1.01266 -0.401406 1.06164 -1.01562 
-0.365632 1.10969 -1.01954 -0.311926 1.1535 -1.02719 -0.248482 1.195 -1.03687 
-0.183328 1.23599 -1.0469 -0.118493 1.27518 -1.05699 -0.054584 1.30421 -1.05998 
0.00857228 1.31749 -1.04868 0.0790187 1.34226 -1.01541 0.149053 1.36509 -0.982167 
0.211046 1.36335 -0.964025 0.268052 1.34894 -0.975946 0.387225 1.37725 -0.989657 
0.452438 1.42101 -0.976861 0.516054 1.46306 -0.971423 0.558013 1.50958 -0.969071 
0.55824 1.56603 -0.965592 2.10478 1.60515 -1.50151 2.16916 1.5847 -1.49256 
2.22418 1.56883 -1.4941 2.27438 1.54464 -1.5028 2.32053 1.5059 -1.51413 
2.3702 1.48191 -1.52524 2.42221 1.46762 -1.53618 2.47605 1.45466 -1.53984 
2.53269 1.44078 -1.52898 2.59312 1.42378 -1.49638 2.65262 1.3966 -1.45666 
2.70859 1.35471 -1.41718 2.76669 1.32799 -1.38473 2.82852 1.31054 -1.34487 
2.89221 1.29451 -1.29771 2.95775 1.2799 -1.24326 3.02559 1.27491 -1.18866 
3.09657 1.28297 -1.13385 3.16209 1.26826 -1.07941 3.22507 1.2367 -1.01797 
3.29417 1.22432 -0.948947 3.36179 1.19948 -0.872874 3.42899 1.18547 -0.811147 
3.48405 1.13981 -0.771733 3.53022 1.07598 -0.754407 3.57597 1.01037 -0.73711 
3.6268 0.953362 -0.705147 3.68398 0.910184 -0.658425 3.74032 0.851385 -0.597393 
3.79723 0.781754 -0.511963 3.85184 0.709391 -0.380901 3.89656 0.634421 -0.19769 
-0.761286 -0.422872 -0.7905 -0.669054 -0.516008 -0.560291 -0.576835 -0.575969 -0.377776 
-0.211279 -0.79545 -0.588759 -0.289042 -0.780371 -0.655929 -0.351392 -0.763563 -0.690694 
-0.399741 -0.739858 -0.672316 -0.431237 -0.702342 -0.585773 -0.451868 -0.663902 -0.428219 
-0.0573178 -0.891642 -0.420442 -0.0193344 -0.963698 -0.318902 -0.0400232 -0.733786 -0.282913 
-0.34785 -0.570655 -0.0343297 -0.255829 -0.563605 0.0994855 -0.179401 -0.552486 0.173589 
-0.117974 -0.555281 0.194294 -0.0662722 -0.568159 0.173423 -0.0233199 -0.595982 0.0877902 
0.61436 -0.950513 -0.0828098 0.666074 -0.851781 0.0418553 0.695939 -0.803583 0.136336 
0.763317 -0.758762 0.227904 0.841348 -0.682633 0.329438 0.111292 -0.610402 0.000395401 
0.197245 -0.570658 0.0678919 0.285708 -0.533734 0.170504 0.386544 -0.486672 0.324275 
0.0702799 0.144181 0.143594 0.0911901 0.0765839 0.180692 0.146499 0.00452829 0.273842 
0.212106 -0.0696859 0.397621 0.274643 -0.140941 0.502026 0.330895 -0.199776 0.561552 
0.382897 -0.242835 0.573006 0.434819 -0.310675 0.552683 0.0858264 0.292616 0.210322 
0.056272 0.364458 0.250754 0.0302557 0.428448 0.262297 0.0246306 0.486643 0.249383 
0.022633 0.543747 0.245771 0.00919395 0.603315 0.259647 0.00522739 0.6604 0.28665 
0.00413189 0.716806 0.313055 0.0242393 0.768198 0.335049 0.0268253 0.823733 0.360688 
0.0428011 0.876344 0.368443 0.0782971 0.92458 0.357029 0.0996962 0.976271 0.341005 
0.117713 1.0284 0.348336 0.152283 1.07601 0.389971 0.217735 1.11571 0.462939 
0.288906 1.15357 0.564921 0.730153 -0.52015 0.39735 0.629386 -0.504628 0.383034 
0.566863 -0.47489 0.425192 0.871577 -0.450354 0.631358 1.71135 -0.710572 0.294539 
1.65468 -0.696806 0.28368 1.5938 -0.681681 0.251046 1.53149 -0.66621 0.211138 
1.47017 -0.652962 0.178474 1.41069 -0.650893 0.167427 1.35009 -0.666132 0.170631 
1.29252 -0.675028 0.181206 1.2361 -0.679131 0.191857 1.1876 -0.650214 0.203038 
1.14125 -0.616863 0.220632 1.09615 -0.577345 0.258022 1.02859 -0.552797 0.331574 
2.49477 -0.686277 0.152157 2.55094 -0.683225 0.141488 2.6071 -0.680173 0.13082 
2.66868 -0.654563 0.120513 2.73026 -0.628952 0.110207 2.78642 -0.6259 0.0995385 
2.84262 -0.622741 0.0888719 2.90327 -0.594694 0.0713353 2.96386 -0.554249 0.0394694 
3.0207 -0.51057 -0.0141416 3.07616 -0.466328 -0.0750225 3.13303 -0.422542 -0.128632 
3.1941 -0.380114 -0.160466 3.25788 -0.338566 -0.177765 3.32132 -0.297061 -0.187441 
3.37513 -0.253278 -0.195112 3.41275 -0.205664 -0.199413 3.4566 -0.159645 -0.197457 
3.49788 -0.113383 -0.172316 3.5511 -0.0705491 -0.111911 3.95226 0.464978 -0.0250278 
4.02568 0.380735 -0.0772361 3.922 0.34765 0.0163279 3.87403 0.303128 0.113529 
3.83303 0.26874 0.23269 3.79932 0.25844 0.359506 3.76465 0.25047 0.47909 
3.72127 0.23137 0.569439 3.67533 0.227107 0.630965 3.62099 0.224788 0.656438 
3.54947 0.209158 0.654177 4.61385 0.478064 -0.149598 4.58073 0.420257 -0.169475 
4.55072 0.369609 -0.176916 4.55517 0.311893 -0.176337 4.56941 0.251653 -0.160174 
4.60578 0.185815 -0.125966 4.65155 0.117631 -0.0861512 4.68876 0.0514818 -0.0483493 
4.70851 -0.0112497 -0.0182848 4.73999 -0.081006 0.0204103 4.70658 0.610796 -0.257511 
4.72708 0.668527 -0.341015 4.73993 0.722979 -0.357735 4.75754 0.774801 -0.32264 
4.76837 0.82778 -0.260958 4.81227 0.928845 -0.164871 4.84674 0.976478 -0.123215 
4.87274 1.02587 -0.0646888 4.73887 0.884943 0.00531696 4.71317 0.874258 0.160785 
4.67849 0.839083 0.240888 4.65433 0.790262 0.250063 4.6322 0.739866 0.20081 
4.61952 0.686826 0.126889 4.62951 0.624911 0.0152662 0.597143 -0.365356 0.643871 
0.678737 -0.359503 0.745361 0.756777 -0.365872 0.803959 3.91466 0.608024 0.195884 
3.87135 0.641876 0.332975 0.935987 -0.37078 0.920682 0.989455 -0.385324 0.905407 
0.985305 -0.426434 0.730805 1.14165 -0.40924 0.711723 1.2832 -0.35853 0.908238 
1.36501 -0.358462 1.00228 1.42871 -0.369962 1.04316 1.48961 -0.372377 1.06147 
1.55585 -0.358842 1.08731 1.61951 -0.349775 1.1058 1.68482 -0.333803 1.12441 
1.74615 -0.321846 1.12841 1.81003 -0.292927 1.12542 1.87487 -0.253734 1.11534 
4.85144 -0.208705 0.157184 4.9199 -0.247865 0.228435 4.97744 -0.293399 0.27494 
5.03068 -0.331094 0.296305 5.08199 -0.373519 0.313974 5.14006 -0.400341 0.34642 
5.2033 -0.418248 0.393548 5.26836 -0.434839 0.447966 5.33345 -0.451323 0.502385 
5.39571 -0.467008 0.542279 5.45193 -0.48265 0.553108 5.49737 -0.505396 0.520229 
5.53464 -0.543291 0.465301 5.5731 -0.576267 0.410461 5.61416 -0.617292 0.377289 
5.66008 -0.650656 0.358769 5.70995 -0.680123 0.354848 5.77013 -0.679265 0.365941 
5.83477 -0.685032 0.405995 5.90073 -0.697861 0.460473 5.97006 -0.702994 0.522333 
6.03908 -0.690472 0.56268 6.10509 -0.684187 0.595667 6.1676 -0.679922 0.614084 
6.22495 -0.697165 0.632156 6.28422 -0.693764 0.636022 6.3394 -0.694352 0.625317 
6.38806 -0.689257 0.585991 6.42416 -0.656297 0.505487 6.43606 -0.615019 0.38482 
6.44556 -0.586596 0.241143 6.45841 -0.547648 0.127709 6.49591 -0.527743 0.0687914 
6.54628 -0.553368 0.0725676 6.6052 -0.576198 0.10511 6.66984 -0.581955 0.145163 
6.73703 -0.57076 0.178219 6.80257 -0.572754 0.218333 6.86845 -0.572848 0.258509 
6.93698 -0.547512 0.292189 6.99278 -0.506658 0.306624 7.02075 -0.456875 0.304324 
7.04409 -0.405644 0.287895 7.07863 -0.35694 0.261583 7.10211 -0.305743 0.256115 
7.12165 -0.250958 0.277053 7.15073 -0.180176 0.329451 3.77571 0.759691 0.49739 
3.74613 0.817308 0.576623 3.71607 0.851036 0.67147 3.6841 0.887408 0.753616 
3.64424 0.908235 0.81553 3.59597 0.919176 0.848219 3.54173 0.917868 0.866184 
3.48204 0.893788 0.883784 3.42748 0.878516 0.916054 3.38649 0.900953 0.970725 
3.34712 0.917466 1.03984 3.30491 0.915869 1.11593 3.25974 0.895648 1.19898 
3.21714 0.879785 1.28939 3.17298 0.856995 1.37964 3.12613 0.840526 1.44058 
3.07642 0.808011 1.45573 3.03049 0.764952 1.42412 7.3074 0.337041 -0.0996444 
7.2673 0.353694 0.0542719 3.34162 1.49613 0.563019 3.31052 1.44553 0.611223 
3.26759 1.39715 0.676974 3.18161 0.107741 0.771876 3.25205 0.10232 0.699612 
3.30809 0.106426 0.663117 3.3757 0.142261 0.645802 3.4141 0.284386 0.67244 
3.37623 0.358621 0.729752 7.39068 -0.199004 -0.0761315 7.39775 -0.139224 0.0622963 
7.00032 0.232024 -0.0130641 7.0684 0.273417 0.0458899 7.13762 0.325956 0.150686 
6.91208 0.234735 0.103933 6.88989 0.251741 0.25542 6.86732 0.253677 0.428723 
6.83965 0.238077 0.637184 6.98904 0.119647 0.038585 7.07263 0.0342209 0.184077 
7.41848 0.252534 -0.156628 7.4434 0.184547 -0.112778 7.47316 0.118986 -0.04452 
7.4874 0.0564163 0.0496113 7.47461 -0.00588528 0.154013 3.18615 1.39779 0.828822 
3.14979 1.42059 0.905296 7.42263 0.40236 -0.019579 7.42952 0.460032 0.132343 
7.40364 0.49163 0.241616 7.34023 0.464108 0.286425 1.96364 -0.162911 1.17187 
1.97632 -0.110369 1.23317 1.97185 -0.0535259 1.28293 1.97946 0.000820612 1.30752 
2.00514 0.0510236 1.31325 2.05663 0.093404 1.30594 2.11864 0.123698 1.29584 
2.18737 0.140773 1.28362 1.98066 -0.249686 1.0649 2.02688 -0.256591 1.01774 
2.07252 -0.272203 0.977704 2.12941 -0.266117 0.967084 2.19315 -0.256884 0.985573 
2.26359 -0.228714 1.01151 2.33918 -0.182935 1.02242 2.37669 -0.0390394 1.03927 
2.33885 0.0313813 1.08122 2.30803 0.0995375 1.15945 2.51695 -0.0742278 1.0024 
2.58932 -0.0424472 0.990394 2.64929 -0.0292202 0.979624 2.70909 -0.011317 0.96918 
2.76762 0.00161213 0.957589 2.83341 0.0311668 0.942399 2.92425 0.0704664 0.917574 
3.1335 0.213894 0.89362 3.17204 0.283017 0.930442 3.201 0.334819 1.00042 
3.28101 0.418706 0.958506 3.41344 0.502068 0.829766 3.45026 0.559001 0.848875 
7.12419 0.441186 0.220943 7.05046 0.502128 0.161897 7.00813 0.567666 0.104628 
6.99977 0.626864 0.0585387 7.01912 0.67904 0.0429412 7.06554 0.723724 0.0896647 
7.09887 0.770414 0.207074 7.10667 0.822295 0.382653 2.30659 0.251427 1.26748 
2.31601 0.315082 1.27719 2.30819 0.374475 1.30508 2.31812 0.427984 1.35185 
2.33893 0.478725 1.40391 2.36007 0.529509 1.44834 3.19416 0.447807 1.1157 
3.15826 0.510348 1.14921 3.12381 0.560038 1.20432 3.08491 0.584841 1.26631 
3.04461 0.610097 1.32103 3.00595 0.661146 1.35436 7.31639 -0.0986493 0.321746 
2.42745 0.610861 1.40259 2.47938 0.615165 1.37015 2.53933 0.61508 1.38122 
2.6056 0.628721 1.40706 2.66783 0.638135 1.41829 2.72848 0.653588 1.41509 
2.78422 0.654861 1.40439 2.84039 0.657914 1.39373 2.90244 0.685507 1.38345 
2.33517 0.631598 1.48976 7.29029 0.000147272 0.517806 7.35803 0.0152106 0.550314 
7.39665 -0.00869646 0.452017 7.26743 0.367992 0.589292 7.27406 0.320062 0.840503 
7.28156 0.261116 1.00772 7.13816 0.923027 0.685194 7.05865 0.828934 0.687144 
7.01311 0.781498 0.798805 6.96802 0.73408 0.902832 6.92878 0.68576 0.975424 
6.9101 0.633185 1.00599 6.90799 0.577051 1.01046 6.92045 0.517403 1.01314 
6.90972 0.461818 1.04703 6.85729 0.409315 1.13325 6.77461 0.111947 0.941711 
6.77753 0.270783 1.0657 6.62317 0.289325 1.08032 6.52944 0.275899 0.980441 
6.47233 0.273964 0.993882 6.43187 0.268484 1.08325 6.40585 0.302854 1.19624 
6.12745 0.291426 1.25692 6.1752 0.297196 1.2027 6.23419 0.29945 1.20654 
6.30607 0.323873 1.24708 6.46204 0.381914 1.36921 6.54769 0.393422 1.44407 
6.70175 0.367479 1.39629 6.72277 0.468311 1.45143 6.76001 0.448908 1.36366 

LINES 77 745
6 67 73 74 75 76 66 
13 65 77 78 79 80 81 82 83 84 85 86 87 59 
3 64 88 63 
3 64 89 63 
5 64 90 91 92 61 
5 64 93 94 95 54 
5 61 96 97 98 62 
4 62 99 100 57 
5 59 101 102 103 60 
6 61 104 105 106 107 57 
11 60 108 109 110 111 112 113 114 115 116 58 
4 60 117 118 53 
41 55 119 120 121 122 123 124 125 126 127 128 129 130 131 132 133 134 135 136 137 138 139 140 141 142 143 144 145 146 147 148 149 150 151 152 153 154 155 156 157 55 
5 54 158 159 160 54 
6 59 161 162 163 164 53 
14 58 165 166 167 168 169 170 171 172 173 174 175 176 51 
7 58 177 178 179 180 181 53 
34 55 208 209 210 211 212 213 214 215 216 217 218 219 220 221 222 223 224 225 226 227 228 229 230 231 232 233 234 235 236 237 238 239 35 
5 54 240 241 242 48 
8 50 243 244 245 246 247 248 48 
4 50 249 250 49 
3 50 251 45 
8 48 252 253 254 255 256 257 45 
6 45 263 264 265 266 36 
5 31 292 293 294 36 
3 31 295 32 
15 43 296 297 298 299 300 301 302 303 304 305 306 307 308 31 
22 42 309 310 311 312 313 314 315 316 317 318 319 320 321 322 323 324 325 326 327 328 41 
3 39 329 35 
3 39 330 38 
11 39 331 332 333 334 335 336 337 338 339 28 
7 34 350 351 352 353 354 37 
5 37 355 356 357 33 
9 37 358 359 360 361 362 363 364 34 
5 36 365 366 367 32 
5 32 370 371 372 31 
13 31 373 374 375 376 377 378 379 380 381 382 383 22 
4 23 449 450 10 
6 16 454 455 456 457 28 
4 28 458 459 20 
4 26 460 461 11 
5 25 462 463 464 10 
6 25 465 466 467 468 5 
4 25 469 470 8 
7 23 471 472 473 474 475 11 
6 23 478 479 480 481 10 
10 22 482 483 484 485 486 487 488 489 17 
9 22 490 491 492 493 494 495 496 21 
5 21 497 498 499 17 
9 21 500 501 502 503 504 505 506 16 
5 16 507 508 509 15 
3 20 510 15 
4 20 511 512 19 
10 10 513 514 515 516 517 518 519 520 9 
8 17 521 522 523 524 525 526 14 
8 15 527 528 529 530 531 532 12 
3 8 533 11 
11 14 534 535 536 537 538 539 540 541 542 12 
3 14 543 13 
5 8 544 545 546 11 
5 10 547 548 549 2 
3 9 550 7 
11 9 551 552 553 554 555 556 557 558 559 1 
3 5 560 6 
3 5 561 1 
7 1 562 563 564 565 566 3 
6 4 567 568 569 570 3 
4 3 571 572 0 
3 1 573 0 
4 0 574 575 1 
7 62 69 68 70 71 72 63 
29 57 182 183 184 185 186 187 188 189 190 191 192 193 194 195 196 197 198 199 200 201 202 56 203 204 205 206 207 52 
8 47 258 46 259 260 261 262 31 
28 36 274 273 272 271 270 269 268 267 44 275 276 277 278 279 280 281 282 283 284 285 286 287 288 289 290 291 40 
60 34 340 341 342 343 344 345 346 347 348 349 30 384 385 386 387 388 389 390 391 392 393 394 395 396 397 398 399 400 401 402 403 404 405 406 407 408 409 410 411 412 413 414 415 416 417 418 419 420 421 422 423 424 425 426 427 428 429 430 8 
23 35 368 369 27 431 432 433 434 435 436 437 438 439 440 441 442 443 444 445 446 447 448 12 
8 29 451 452 453 24 476 477 18 

POINT_DATA 576
SCALARS DY_raw double
LOOKUP_TABLE default
716.681 533.632 794.44 416.335 422.346 346.341 413.89 634.682 496.496 
404.707 536.539 559.792 325.166 361.146 373.706 374.717 396.959 236.571 
415.989 422.719 326.88 317.159 282.856 337.147 361.637 302.369 421.299 
457.64 388.585 515.704 301.351 372.689 428.208 664.859 422.051 435.828 
320.832 385.714 461.153 435.112 438.664 517.167 301.022 368.779 244.43 
357.657 227.608 206.808 330.482 325.055 311.571 375.537 424.162 368.71 
293.933 283.797 251.437 305.941 256.141 257.566 407.511 301.541 432.542 
354.961 220.758 217.769 271.384 232.787 315.172 386.029 315.172 297.927 
309.565 245.295 274.465 274.445 274.445 239.962 246.77 278.929 308.679 
310.296 310.296 283.72 274.264 280.023 247.834 238.571 290.993 290.993 
278.871 275.725 288.793 209.326 269.32 276.223 268.764 247.933 292.661 
309.6 298.786 244.908 260.479 287.715 268.497 312.132 324.149 330.329 
345.835 319.593 281.587 281.587 279.369 311.246 261.5 227.577 251.321 
385.564 366.724 268.205 271.143 273.128 285.806 262.868 272.956 272.956 
266.918 291.721 304.193 324.284 308.73 296.405 308.006 277.102 220.934 
269.399 275.622 255.983 280.676 317.805 367.191 392.407 388.684 357.619 
387.949 333.331 292.286 305.268 306.076 330.49 299.961 286.467 290.554 
286.79 264.649 265.331 323.835 398.26 288.781 300.209 245.567 243.533 
255.636 283.104 327.615 261.374 309.449 358.934 358.394 366.899 292.646 
289.119 276.792 251.571 285.899 303.592 336.988 243.499 280.4 341.696 
389.723 350.039 303.369 295.627 247.421 205.757 217.643 200.32 216.046 
228.924 268.814 268.814 313.393 321.594 332.118 300.843 222.877 168.381 
176.063 191.225 220.802 225.211 237.32 259.787 267.355 279.86 319.15 
444.191 311.313 336.114 364.243 440.552 452.353 412.174 412.174 320.149 
280.205 296.506 278.007 296.967 302.514 286.188 332.344 327.808 299.005 
314.526 296.451 288.703 293.818 324.506 357.53 364.367 384.875 384.875 
391.149 365.922 333.997 358.693 439.162 483.8 312.949 321.617 308.292 
292.595 278.555 259.48 258.481 258.71 290.963 283.442 286.616 347.092 
395.872 453.841 436.328 389.763 367.706 356.894 215.17 241.728 252.908 
253.93 294.915 319.304 297.359 274.656 298.919 224.591 235.852 291.576 
310.602 338.916 305.273 294.266 301.265 273.596 305.177 295.311 318.758 
292.399 278.181 264.993 260.636 260.55 284.31 278.689 278.689 238.221 
260.227 260.227 305.531 336.139 317.904 323.411 326.63 465.927 368.779 
363.407 345.276 306.142 259.263 259.263 261.834 302.351 302.351 322.667 
322.786 313.364 326.56 294.556 291.937 288.916 296.152 296.152 301.366 
302.016 314.029 283.925 275.404 263.128 290.54 290.943 320.27 314.385 
323.107 377.556 377.556 381.665 409.514 431.653 461.153 383.773 406.895 
386.039 328.818 378.86 445.33 477.917 464.642 460.977 425.821 381.831 
386.98 385.95 433.885 432.032 456.831 383.319 348.979 312.942 412.867 
387.648 366.087 379.792 378.173 422.495 494.628 603.41 496.877 449.08 
386.163 381.979 378.07 384.471 438.668 332.262 357.282 379.13 509.409 
499.394 493.385 506.052 473.159 404.828 362.72 393.24 376.19 352.533 
352.533 303.709 298.747 314.65 296.831 293.538 354.335 332.346 400.72 
387.407 425.877 435.689 498.472 437.773 478.79 505.795 505.795 507.212 
478.626 417.571 448.319 387.017 382.146 359.659 365.425 386.259 374.542 
378.89 454.917 434.971 408.469 408.469 419.078 399.204 462.549 461.576 
429.44 380.376 384.834 384.865 384.865 352.715 367.943 367.192 342.338 
353.526 381.417 414.477 449.659 467.011 464.932 474.216 483.431 498.512 
527.517 535.766 544.215 616.446 515.114 515.114 468.375 369.701 387.192 
351.82 330.066 394.872 355.263 438.794 439.65 416.418 364.488 365.912 
468.236 452.16 402.042 375.932 382.454 340.049 334.16 355.283 419.583 
323.632 435.608 571.651 334.14 375.786 453.32 327.057 313.016 286.739 
288.503 416.528 465.81 408.538 551.911 657.006 722.213 675.604 361.348 
411.407 449.872 506.889 509.225 530.168 305.28 330.529 316.536 316.536 
273.383 256.942 237.986 232.056 287.669 287.669 282.886 292.047 305.96 
300.024 317.971 318.094 278.372 267.153 336.042 353.914 362.408 362.872 
365.74 402.053 432.552 392.874 364.553 395.563 354.439 349.169 372.5 
481.369 450.145 370.247 344.663 328.036 364.387 447.26 387.395 250.993 
319.381 360.024 410.521 381.001 386.844 349.559 359.652 316.912 323.984 
340.786 325.166 504.287 365.634 329.821 355.132 353.046 350.385 317.1 
319.285 319.285 321.687 353.042 568.748 584.254 587.3 561.315 641.548 
734.719 555.972 324.152 382.578 371.628 442.294 442.294 482.614 484.683 
515.026 565.318 395.519 445.868 352.667 270.219 253.184 302.359 365.533 
398.938 381.155 377.791 399.06 455.513 563.086 570.231 655.402 559.175 

FIELD FieldData 7
DY_minmax 1 576 double
0.875795 0.583412 1 0.396055 0.405656 0.284254 0.392149 0.74482 0.524096 
0.377482 0.588056 0.625198 0.250432 0.307902 0.327964 0.329579 0.365106 0.10892 
0.395503 0.406252 0.253169 0.237642 0.18285 0.269569 0.308686 0.214018 0.403984 
0.462031 0.35173 0.554777 0.212392 0.32634 0.41502 0.793021 0.405185 0.427191 
0.243508 0.347144 0.467643 0.426047 0.431721 0.557113 0.211867 0.320094 0.121472 
0.30233 0.0946035 0.0613789 0.258922 0.250255 0.228716 0.33089 0.408558 0.319984 
0.200543 0.184354 0.132665 0.219723 0.140179 0.142455 0.381961 0.212696 0.421942 
0.298024 0.0836621 0.0788867 0.164526 0.102876 0.234468 0.347648 0.234468 0.206922 
0.225512 0.122854 0.169447 0.169416 0.169416 0.114336 0.12521 0.176577 0.224097 
0.226679 0.226679 0.18423 0.169126 0.178325 0.12691 0.112115 0.195847 0.195847 
0.176485 0.17146 0.192334 0.0654014 0.161229 0.172256 0.160342 0.127068 0.198511 
0.225568 0.208296 0.122236 0.147108 0.190612 0.159915 0.229612 0.248807 0.258678 
0.283446 0.24153 0.180823 0.180823 0.177281 0.228198 0.148738 0.0945533 0.13248 
0.346904 0.316811 0.159449 0.164142 0.167313 0.187562 0.150924 0.167037 0.167037 
0.157393 0.19701 0.216932 0.249023 0.224179 0.204492 0.223022 0.173659 0.0839431 
0.161355 0.171295 0.139926 0.179367 0.238674 0.317557 0.357835 0.351889 0.302269 
0.350715 0.263473 0.197913 0.218649 0.21994 0.258935 0.210172 0.188618 0.195146 
0.189135 0.153768 0.154858 0.248305 0.367185 0.192314 0.210569 0.12329 0.120039 
0.139371 0.183246 0.254343 0.148538 0.225328 0.30437 0.303506 0.317091 0.198488 
0.192854 0.173163 0.132879 0.187711 0.215972 0.269315 0.119986 0.178927 0.276834 
0.353547 0.290162 0.215615 0.203249 0.126251 0.059701 0.0786856 0.0510161 0.0761359 
0.0967047 0.160421 0.160421 0.231627 0.244726 0.261537 0.211581 0.0870467 0 
0.0122712 0.0364892 0.0837325 0.0907745 0.110116 0.146003 0.15809 0.178064 0.240822 
0.440549 0.228305 0.26792 0.312849 0.434736 0.453586 0.38941 0.38941 0.242418 
0.178615 0.204653 0.175104 0.20539 0.214249 0.188173 0.261897 0.254651 0.208646 
0.233436 0.204565 0.192189 0.20036 0.249377 0.302126 0.313048 0.345805 0.345805 
0.355826 0.315531 0.264537 0.303984 0.432516 0.503817 0.230918 0.244763 0.223479 
0.198406 0.17598 0.145513 0.143917 0.144282 0.1958 0.183787 0.188856 0.285454 
0.363369 0.455964 0.427989 0.353612 0.318381 0.30111 0.0747359 0.117157 0.135015 
0.136647 0.202112 0.241069 0.206016 0.169752 0.208508 0.0897835 0.107771 0.196779 
0.227169 0.272395 0.218656 0.201075 0.212255 0.168059 0.218503 0.202744 0.240196 
0.198094 0.175382 0.154318 0.147358 0.147222 0.185173 0.176194 0.176194 0.111554 
0.146706 0.146706 0.219069 0.267959 0.238833 0.247628 0.252771 0.475268 0.320094 
0.311514 0.282553 0.220045 0.145166 0.145166 0.149271 0.213989 0.213989 0.246439 
0.24663 0.23158 0.252658 0.201538 0.197355 0.192529 0.204087 0.204087 0.212416 
0.213455 0.232643 0.184559 0.170948 0.151339 0.195123 0.195767 0.242611 0.233212 
0.247143 0.334114 0.334114 0.340678 0.38516 0.420523 0.467643 0.344044 0.380977 
0.347663 0.256265 0.336196 0.442368 0.494419 0.473215 0.467361 0.411207 0.340942 
0.349166 0.347521 0.424087 0.421128 0.460739 0.343319 0.288468 0.230907 0.390516 
0.350234 0.315794 0.337686 0.335099 0.405894 0.521112 0.694868 0.524704 0.448358 
0.347862 0.341178 0.334936 0.345159 0.431728 0.261766 0.30173 0.336628 0.544721 
0.528725 0.519127 0.539359 0.486819 0.377675 0.310416 0.359166 0.331933 0.294144 
0.294144 0.216159 0.208233 0.233635 0.205172 0.199913 0.297023 0.2619 0.371114 
0.349849 0.411297 0.42697 0.527252 0.430297 0.495815 0.538948 0.538948 0.541212 
0.495552 0.39803 0.447144 0.349225 0.341445 0.305527 0.314737 0.348015 0.329299 
0.336244 0.457682 0.425822 0.38349 0.38349 0.400437 0.368692 0.469873 0.468318 
0.416987 0.338618 0.345738 0.345789 0.345789 0.294435 0.318759 0.317559 0.277861 
0.295731 0.340282 0.393088 0.449283 0.476999 0.473679 0.488508 0.503227 0.527315 
0.573645 0.586822 0.600318 0.715691 0.553835 0.553835 0.479178 0.321567 0.349505 
0.293006 0.258259 0.361773 0.298505 0.431929 0.433296 0.396187 0.31324 0.315514 
0.478956 0.453277 0.373225 0.33152 0.341937 0.274204 0.264798 0.298538 0.401244 
0.247981 0.42684 0.64414 0.264765 0.331287 0.455131 0.253453 0.231025 0.189053 
0.191869 0.396363 0.475081 0.383601 0.61261 0.780477 0.884632 0.810184 0.308224 
0.388184 0.449623 0.540696 0.544428 0.577881 0.218669 0.258998 0.236648 0.236648 
0.167719 0.141459 0.11118 0.101708 0.190538 0.190538 0.182898 0.197531 0.219754 
0.210273 0.238939 0.239135 0.175687 0.157768 0.267804 0.29635 0.309918 0.31066 
0.31524 0.373243 0.421958 0.358581 0.313344 0.362876 0.297189 0.288771 0.326039 
0.499933 0.45006 0.322439 0.281574 0.255015 0.31308 0.445451 0.34983 0.131956 
0.241191 0.30611 0.386769 0.339616 0.348949 0.289395 0.305516 0.237248 0.248543 
0.275381 0.250432 0.536541 0.31507 0.257868 0.298297 0.294964 0.290714 0.237548 
0.241038 0.241038 0.244875 0.294957 0.639503 0.664271 0.669136 0.627631 0.755786 
0.904607 0.619096 0.248812 0.342135 0.324645 0.437519 0.437519 0.501922 0.505226 
0.553694 0.634025 0.362806 0.443228 0.29436 0.162666 0.135455 0.214002 0.31491 
0.368267 0.339863 0.334489 0.368461 0.458634 0.630459 0.641873 0.777915 0.624212 

WidthEq 1 576 double
1.57445 2.73996 2.18142 2.145 1.03299 3.95082 2.88799 1.82557 4.58924 
3.62148 3.86138 3.412 2.2585 1.88143 2.04666 2.65061 1.70431 2.89249 
1.54634 2.23385 2.98272 2.14271 2.41433 2.76606 2.9234 4.46706 2.64218 
2.17472 2.13953 2.0733 2.89576 3.19899 2.27728 1 2.53029 2.46843 
3.65085 1.91253 2.24847 2.57734 1.84932 1.53913 2.22495 2.52504 3.06546 
3.64818 3.63941 3.73375 4.44058 2.27558 4.46463 3.21824 2.07531 3.4536 
4.27795 3.56931 3.73187 2.82604 3.41901 3.9751 3.1088 3.5349 2.63498 
3.45071 3.99337 3.42694 3.9594 3.4498 3.6963 2.9769 3.6963 4.05778 
3.95601 3.82914 4.08231 4.0929 4.0929 3.53814 3.62503 3.40725 3.06794 
2.98721 2.98721 2.88834 2.9162 2.93582 3.15594 3.64872 3.74552 3.74552 
3.88405 3.72309 3.6818 4.47158 4.47995 4.47772 3.52893 3.80216 3.63868 
2.98014 2.95174 3.91081 3.72168 3.77407 3.3017 3.00869 2.64354 2.70609 
3.7096 3.6451 3.62623 3.62623 3.36945 3.39159 3.31721 3.5294 3.53006 
3.44376 3.61054 3.7519 3.61318 3.4509 3.31035 3.10581 3.01341 3.01341 
3.05816 2.94847 2.66574 2.57737 2.85786 3.23972 3.27708 3.58475 4.50432 
4.1498 4.38368 4.37915 4.16366 4.00698 3.59497 3.22497 3.0559 2.88415 
2.81647 2.99306 3.36567 3.36353 3.44332 3.47905 3.75825 3.82571 3.78656 
3.83046 3.77508 3.6145 3.35844 3.19921 4.48838 4.47964 4.78809 4.0758 
4.10353 3.9288 3.80907 3.30545 3.17868 2.73858 2.58844 2.43585 2.30404 
2.3426 2.74842 3.68249 3.60179 3.91235 3.61745 3.33425 2.96287 2.73898 
2.78352 3.29648 2.77892 2.78094 3.18141 3.58456 3.33592 3.76347 3.52905 
3.30428 2.78981 2.78981 2.22356 1.5897 1.44825 1.3867 1.50221 2.35008 
2.97347 3.11512 3.75951 3.73875 3.57412 3.4865 3.32595 3.33856 2.63901 
1.75138 3.38806 2.9786 2.56463 2.085 1.69569 1.82604 1.82604 2.23168 
2.6992 2.66008 3.05241 2.95227 3.07411 3.32907 3.20343 3.46895 3.80565 