# vtk DataFile Version 3.0
vtk output
ASCII
DATASET POLYDATA
POINTS 523 float
1.20409 2.01921 0.183596 1.15034 1.75737 0.605377 0.902261 1.78488 -0.134038 
0.583732 1.41736 0.698798 0.806557 1.48764 -0.693927 0.551035 1.56305 -0.0158205 
2.53537 1.55567 -0.651699 0.495853 1.34927 -0.688931 0.259689 1.29741 -0.464349 
0.217047 1.22223 -0.203285 0.186476 0.681975 0.650021 2.32611 1.35629 -1.10636 
0.396344 0.910581 0.802277 2.48557 1.20708 -1.10783 0.530558 0.532082 1.34091 
-0.0297352 0.602277 -0.174935 3.22321 0.715409 -0.553432 2.73994 0.389898 0.641178 
3.05348 0.489551 -0.460802 2.36794 0.00992891 1.29368 2.12514 0.362692 -1.58753 
0.374522 -0.0898787 1.35647 1.06988 -0.200443 1.57726 1.77181 -0.177934 1.35078 
1.92027 0.52169 -1.72584 -0.261894 -0.338411 0.519257 2.83295 0.138629 -1.33946 
3.03738 -0.452698 0.597749 1.15405 0.100578 -1.55128 0.0293403 -0.599805 1.03737 
0.177904 -0.71632 1.04546 -0.0343151 -0.253903 -0.808479 1.00646 -0.183283 -1.50263 
0.582074 -0.32907 -1.38991 1.97482 -0.470717 -1.68214 2.96436 -0.687832 -0.934151 
0.227549 -1.14397 0.716054 0.554217 -0.778175 -1.28046 0.983902 -0.749633 -1.46856 
1.49231 -0.703805 -1.73152 1.95588 -0.777514 -1.58433 0.679931 -1.38679 0.73161 
2.67394 -1.15943 -1.15989 2.04392 -1.24505 -1.43808 2.16938 -1.80098 -0.303094 
5.04487 -1.91544 -0.538425 4.44082 -2.20587 -0.8366 4.45194 -2.24727 -0.700304 
4.82787 -2.25251 -0.763636 4.83516 -2.11023 -0.80077 4.83309 -1.98398 -0.834096 
4.80982 -1.89032 -0.857451 4.7762 -1.82687 -0.881152 4.73983 -1.78498 -0.909883 
4.70346 -1.74309 -0.938614 4.66931 -1.68675 -0.964356 4.64276 -1.62174 -0.994778 
4.6266 -1.56144 -1.03764 4.59769 -1.53188 -1.07856 4.55844 -1.53253 -1.11983 
4.50753 -1.56368 -1.1602 4.43671 -1.60619 -1.18419 4.35789 -1.64347 -1.19802 
4.28036 -1.6595 -1.20544 4.21081 -1.65983 -1.21535 4.15308 -1.64362 -1.23127 
4.08678 -1.6161 -1.23135 4.02297 -1.57184 -1.21024 3.97717 -1.52743 -1.1675 
3.93957 -1.48598 -1.11665 3.90286 -1.4521 -1.0666 3.86677 -1.41118 -1.0143 
3.83193 -1.37069 -0.960762 3.8036 -1.33977 -0.902596 3.78482 -1.32671 -0.838514 
3.75431 -1.3095 -0.78581 3.71154 -1.28071 -0.74332 3.66219 -1.25684 -0.708882 
3.62553 -1.25919 -0.667167 3.57375 -1.27069 -0.643449 3.52641 -1.26927 -0.612091 
3.47787 -1.24568 -0.576864 3.41216 -1.20878 -0.556622 3.33778 -1.17605 -0.546471 
3.26205 -1.14284 -0.537623 3.1876 -1.08836 -0.522506 3.11461 -1.0126 -0.501117 
3.04398 -0.922364 -0.476892 2.98235 -0.844106 -0.466318 2.94727 -0.78098 -0.488631 
2.9379 -0.747169 -0.547982 2.93835 -0.73289 -0.621877 2.94612 -0.737252 -0.695425 
2.96452 -0.73783 -0.758019 2.97034 -0.722664 -0.836005 4.77744 -2.25724 -0.736935 
4.7108 -2.25624 -0.725963 4.64286 -2.25479 -0.716186 4.58364 -2.2567 -0.697052 
4.51365 -2.25488 -0.688066 4.89057 -2.1629 -0.714095 4.92668 -2.0861 -0.641822 
4.97371 -2.00691 -0.57992 4.43858 -2.2283 -0.760959 2.17413 -1.73102 -0.201134 
2.17571 -1.68895 -0.108937 2.16672 -1.67935 -0.0353545 2.13753 -1.68434 0.0136112 
2.09959 -1.69349 0.0524186 2.0603 -1.70216 0.0899229 2.02094 -1.7108 0.127353 
1.98158 -1.71945 0.164784 1.94222 -1.72809 0.202214 1.90286 -1.73673 0.239645 
1.8635 -1.74538 0.277075 1.82414 -1.75402 0.314505 1.7847 -1.76264 0.351862 
1.744 -1.77081 0.387989 1.69635 -1.77652 0.417376 1.63807 -1.77847 0.436465 
1.58953 -1.77662 0.466658 1.54182 -1.76057 0.501011 1.48493 -1.71955 0.531477 
1.43217 -1.67272 0.567624 1.37528 -1.6317 0.598096 1.32757 -1.61565 0.632443 
1.27902 -1.6138 0.662636 1.2212 -1.60866 0.68384 1.17484 -1.5931 0.719496 
1.13552 -1.55824 0.766858 1.09094 -1.51352 0.808284 1.03436 -1.46767 0.82252 
0.980283 -1.43747 0.810812 0.920327 -1.42175 0.797019 0.864842 -1.412 0.776279 
0.804355 -1.40334 0.760296 0.747568 -1.39387 0.740794 2.06601 -1.23419 -1.3754 
2.11654 -1.20313 -1.33467 2.16507 -1.16551 -1.28948 2.20745 -1.13624 -1.24099 
2.24862 -1.12819 -1.199 2.29733 -1.13244 -1.16927 2.36543 -1.13244 -1.15797 
2.4425 -1.12349 -1.15267 2.52096 -1.11422 -1.14868 2.59813 -1.1262 -1.15111 
2.69247 -1.04199 -1.1941 2.72623 -0.944415 -1.21688 2.75945 -0.853903 -1.24186 
2.77557 -0.750136 -1.2816 2.78353 -0.622495 -1.32174 2.78444 -0.474714 -1.34996 
2.77759 -0.301435 -1.35818 2.79208 -0.0932565 -1.35817 2.72047 -1.06873 -1.09322 
2.77682 -0.96914 -1.03249 2.85961 -0.842029 -0.983152 1.96542 -0.623316 -1.62729 
1.49096 -0.52156 -1.74501 1.46359 -0.359763 -1.73626 1.4157 -0.221161 -1.69731 
1.3744 -0.105082 -1.63623 1.32891 -0.0103519 -1.58052 1.25529 0.056432 -1.55491 
1.48 -0.722019 -1.66785 1.44894 -0.733596 -1.62238 1.4027 -0.739808 -1.59161 
1.34458 -0.741814 -1.57238 1.29685 -0.747497 -1.54307 1.25427 -0.762251 -1.51043 
1.20421 -0.781596 -1.48673 1.13538 -0.794314 -1.48122 1.05963 -0.782837 -1.47741 
1.57532 -0.623654 -1.70654 1.65433 -0.585567 -1.69547 1.72344 -0.592252 -1.70522 
1.78336 -0.595434 -1.72476 1.86516 -0.556435 -1.71735 0.997645 -0.471327 -1.47845 
0.937206 -0.849878 -1.46 0.885457 -0.919343 -1.44964 0.825435 -0.949661 -1.43894 
0.777249 -0.962431 -1.41175 0.735581 -0.96301 -1.37488 0.688252 -0.939852 -1.33848 
0.624432 -0.874641 -1.30972 0.561682 -0.656815 -1.3254 0.570968 -0.507107 -1.36189 
0.539276 -0.81719 -1.22437 0.501167 -0.848011 -1.19074 0.450887 -0.86004 -1.16558 
0.414221 -0.862389 -1.12386 0.363455 -0.838015 -1.0908 0.311049 -0.805823 -1.05766 
0.25469 -0.757737 -1.025 0.209181 -0.706241 -0.980147 0.163309 -0.640119 -0.9323 
0.10124 -0.546545 -0.895144 0.0332241 -0.414626 -0.855388 0.205319 -1.03957 0.799176 
0.195047 -0.898314 0.911993 2.98283 -0.535581 -0.998434 2.99414 -0.3836 -1.043 
2.99554 -0.233033 -1.07205 2.98555 -0.0852116 -1.08941 2.98439 0.0552041 -1.1185 
2.97994 0.167015 -1.15481 2.95245 0.218656 -1.19216 2.90372 0.200497 -1.25059 
2.06194 -0.0604646 -1.6266 0.603943 -0.31424 -1.44431 0.652648 -0.308901 -1.47267 
0.700757 -0.296104 -1.49995 0.752373 -0.272461 -1.52108 0.823441 -0.240939 -1.52089 
0.908437 -0.210316 -1.51203 0.505866 -0.32468 -1.38822 0.437064 -0.315662 -1.37767 
0.38053 -0.303745 -1.35355 0.321464 -0.276435 -1.32854 0.268526 -0.251294 -1.29758 
0.218215 -0.219833 -1.26241 0.18337 -0.193843 -1.21223 0.136654 -0.149168 -1.17022 
0.102284 -0.101612 -1.11457 0.0849428 -0.0673265 -1.04407 0.0617359 -0.0671975 -0.987627 
0.0334035 -0.115963 -0.947865 -0.0103424 -0.18102 -0.928073 -0.0303821 -0.232728 -0.88027 
0.103396 -0.661041 1.03197 -0.20288 -0.399483 0.335605 -0.150282 -0.422511 0.251192 
-0.0952455 -0.378689 0.230478 -0.0501536 -0.266414 0.222903 0.0178019 -0.112849 0.25493 
0.0880675 0.0948059 0.335495 0.135077 0.364269 0.476747 1.07472 -0.041808 -1.53287 
-0.0557719 -0.138463 -0.723567 -0.0656531 -0.012637 -0.624027 -0.0746905 0.148858 -0.514422 
-0.0627937 0.359292 -0.365727 0.117945 -0.614047 1.09197 0.0716697 -0.573606 1.0832 
0.240947 -0.498205 1.17041 0.31294 -0.287085 1.26495 2.75754 0.00590172 -1.44941 
2.70136 -0.104698 -1.53386 2.65484 -0.17598 -1.59641 2.6047 -0.213898 -1.64022 
2.54476 -0.219087 -1.66181 2.49026 -0.19515 -1.6784 2.43296 -0.136904 -1.67958 
2.38121 -0.0459585 -1.67473 2.31732 0.0745208 -1.64945 2.2349 0.213107 -1.61597 
0.0230729 -0.516377 0.992751 -0.00110071 -0.436892 0.965158 -0.0324305 -0.358968 0.944373 
-0.0579131 -0.27976 0.918029 -0.0727115 -0.216086 0.874485 -0.0980741 -0.19931 0.815541 
-0.147914 -0.248871 0.701419 -0.320566 -0.308649 0.290117 -0.341557 -0.296842 0.156745 
-0.344224 -0.284164 0.0711587 -0.343401 -0.264868 -0.00460178 -0.340964 -0.243164 -0.0778441 
-0.3315 -0.223945 -0.144271 -0.310152 -0.20893 -0.199172 -0.29059 -0.186036 -0.254131 
-0.257779 -0.146093 -0.29122 -0.214715 -0.0590765 -0.306599 -0.164935 0.0977538 -0.297854 
-0.104675 0.32897 -0.255122 1.16708 0.312159 -1.58831 1.17589 0.49848 -1.61763 
1.16662 0.643571 -1.63465 1.12461 0.741522 -1.61648 1.08347 0.814886 -1.56799 
1.04784 0.884716 -1.50882 1.01386 0.961106 -1.44609 0.979055 1.02331 -1.38751 
0.94288 1.06426 -1.33528 0.90534 1.08396 -1.28939 0.8678 1.10365 -1.24351 
0.831169 1.13751 -1.19339 0.794994 1.17847 -1.14116 0.758364 1.21233 -1.09104 
0.721521 1.23724 -1.04329 0.692563 1.28329 -0.983786 0.706302 1.37282 -0.878028 
3.00395 -0.34032 0.5917 2.96395 -0.201434 0.602082 2.9078 -0.0381676 0.638021 
2.85164 0.125099 0.67396 2.81119 0.256898 0.682226 2.77601 0.340954 0.667645 
2.80151 0.433053 -1.28117 2.75111 0.688388 -1.2176 2.69586 0.889115 -1.16899 
2.64552 1.03531 -1.14629 2.57582 1.13459 -1.12657 2.07338 0.40628 -1.65755 
2.02349 0.447231 -1.69322 1.9669 0.485496 -1.70545 -0.20512 0.0104515 0.545507 
-0.149063 0.281496 0.590886 -0.0910171 0.446484 0.646854 -0.0223464 0.54316 0.673505 
0.0589927 0.614435 0.666968 1.82603 -0.096348 1.40311 1.88946 -0.0367025 1.42314 
1.9472 -0.00641245 1.41302 2.00719 0.00213696 1.39743 2.05492 0.00781981 1.36812 
2.0957 0.0159612 1.33206 2.13656 0.0240756 1.29608 2.18555 0.0292663 1.26815 
2.252 0.0274893 1.2598 2.31829 0.0209211 1.26754 0.989699 -0.258978 1.55708 
0.91835 -0.308585 1.53105 0.865975 -0.340052 1.49207 0.816346 -0.349963 1.45812 
0.758101 -0.347802 1.43745 0.709915 -0.336445 1.40977 0.661658 -0.325103 1.38216 
0.602481 -0.31616 1.36493 0.54622 -0.299589 1.34747 0.480482 -0.264147 1.34667 
0.418251 -0.193019 1.35527 0.424294 0.103464 1.37264 0.465828 0.277986 1.3758 
0.49447 0.420847 1.35809 2.19845 0.681633 -1.46529 2.25864 0.955792 -1.34587 
2.30274 1.17404 -1.23023 3.09167 0.475999 -0.423614 3.12856 0.46216 -0.385186 
3.15867 0.453821 -0.337769 3.17739 0.456989 -0.274575 3.19852 0.482364 -0.208458 
3.20138 0.521686 -0.133228 3.18685 0.570264 -0.0593063 3.18067 0.622382 0.0268805 
3.17352 0.682055 0.113958 3.14918 0.755034 0.186039 3.11498 0.824275 0.24688 
3.0733 0.888905 0.298787 3.02742 0.947782 0.344951 3.00089 0.992564 0.408212 
2.96291 1.0269 0.457026 2.90781 1.05281 0.485883 2.86197 1.07544 0.523721 
2.82266 1.11025 0.571232 2.77811 1.15416 0.615349 2.72309 1.20178 0.649306 
2.67809 1.2386 0.691305 2.63923 1.28049 0.740932 2.59461 1.32444 0.784974 
2.53773 1.36546 0.815447 2.48218 1.39153 0.843865 2.41428 1.41471 0.858642 
2.33982 1.44747 0.868718 2.26409 1.48067 0.877567 2.18874 1.52099 0.888456 
2.11301 1.55423 0.897156 2.03858 1.58777 0.904617 1.9704 1.6087 0.901042 
1.9126 1.62493 0.88505 1.84359 1.63172 0.877179 1.76872 1.63721 0.874869 
1.69978 1.64401 0.866923 1.64292 1.65347 0.847496 1.58243 1.66212 0.831513 
1.52694 1.67188 0.810773 1.46654 1.68055 0.794715 1.41113 1.69032 0.7739 
1.3521 1.6993 0.756529 1.30516 1.71095 0.727575 1.26407 1.72441 0.691326 
1.216 1.73948 0.651188 0.0389842 0.794251 -0.158259 0.102721 0.962811 -0.139902 
0.139764 1.09573 -0.152071 0.176753 1.17768 -0.175126 3.18623 0.750179 -0.584128 
3.1484 0.79175 -0.611471 3.10343 0.83175 -0.632015 3.04806 0.876456 -0.640127 
3.00354 0.923544 -0.658555 2.96707 0.986366 -0.679554 2.93229 1.05654 -0.699603 
2.89666 1.13351 -0.7163 2.8525 1.20862 -0.724882 2.78919 1.2842 -0.713654 
2.71644 1.36521 -0.692624 2.63462 1.45669 -0.670099 0.527557 0.490497 1.24733 
0.524931 0.455981 1.15595 0.521835 0.435336 1.07011 0.511645 0.434085 0.99865 
0.484302 0.443032 0.9486 0.456489 0.46585 0.904093 0.439566 0.512011 0.856872 
0.415847 0.598584 0.831394 0.396617 0.735043 0.819482 0.61124 0.598561 1.36029 
0.68423 0.675019 1.37388 0.740037 0.764783 1.37248 0.792326 0.841315 1.36432 
0.845861 0.90291 1.35402 0.876068 0.95826 1.31775 0.903294 1.02191 1.28026 
0.924313 1.08777 1.23676 0.948322 1.14531 1.19447 0.959072 1.18577 1.13447 
0.960504 1.21424 1.06473 0.951229 1.22711 0.997642 0.921509 1.22157 0.944759 
0.880591 1.19262 0.894884 0.830608 1.15468 0.851077 0.769391 1.13068 0.823597 
0.713745 1.15846 0.803044 0.650331 1.25528 0.777731 2.40337 1.28655 -1.11424 
0.23599 0.876762 0.580308 0.274013 0.998572 0.537054 0.296717 1.04696 0.486792 
0.329596 1.06302 0.444315 0.382015 1.11864 0.436961 0.468092 1.24525 0.51322 
2.51434 1.36321 -0.979745 2.5287 1.47967 -0.862719 2.53379 1.53822 -0.757248 
0.299223 0.788875 0.741178 0.448056 1.08824 0.810032 0.50722 1.25435 0.785664 
2.27606 1.35867 -1.07761 2.20944 1.38141 -1.0616 2.13642 1.43539 -1.04511 
2.06342 1.5111 -1.02357 1.99126 1.601 -0.997883 1.91818 1.67675 -0.976419 
1.84374 1.73123 -0.961303 1.76755 1.75734 -0.954569 1.69172 1.76885 -0.950835 
1.62247 1.77078 -0.942401 1.56509 1.76851 -0.922442 1.5054 1.76706 -0.904729 
1.45633 1.76185 -0.876719 1.40726 1.75664 -0.848709 1.34763 1.75516 -0.830929 
1.29169 1.75239 -0.809586 1.23207 1.75091 -0.791806 1.18299 1.7457 -0.763796 
1.13309 1.73162 -0.738306 1.06641 1.69431 -0.728728 0.971979 1.60943 -0.715919 
0.21956 1.2439 -0.276453 0.228954 1.26315 -0.342947 0.248952 1.27864 -0.399157 
0.29242 1.33558 -0.158153 0.356033 1.43238 -0.106933 0.421605 1.50167 -0.0677657 
0.481578 1.54179 -0.0334634 0.544081 1.38327 -0.715913 0.632729 1.43192 -0.722826 
0.555329 1.41893 0.483427 0.545465 1.42642 0.356645 0.545511 1.45534 0.277058 
0.547297 1.48942 0.205698 0.548846 1.51869 0.133269 0.549941 1.54087 0.0587242 
2.44358 1.59355 -0.620453 2.38606 1.631 -0.577889 2.33753 1.67818 -0.535215 
2.27423 1.73112 -0.50864 2.21085 1.78169 -0.482793 2.16323 1.81943 -0.443332 
2.11726 1.86385 -0.400602 2.06076 1.91199 -0.368078 2.00619 1.95219 -0.335359 
1.93965 1.9749 -0.319279 1.87219 1.98345 -0.307428 1.81489 1.98115 -0.287394 
1.75528 1.97967 -0.269607 1.70754 1.97398 -0.240294 1.66684 1.96582 -0.204166 
1.6274 1.9572 -0.16681 1.58797 1.94858 -0.129454 1.54726 1.94042 -0.093326 
1.49961 1.93471 -0.0639394 1.44148 1.9327 -0.0447083 1.39517 1.92651 -0.0140195 
1.36292 1.92016 0.0315155 1.34066 1.92423 0.0918666 1.29286 1.95826 0.143854 
0.618949 1.56159 -0.0255568 0.676701 1.57098 -0.0434755 0.737731 1.59372 -0.0549672 
0.789165 1.64212 -0.0725193 0.840121 1.70842 -0.0980191 0.850682 1.60812 -0.451885 
0.876784 1.71262 -0.282166 0.699645 1.60698 0.678611 0.785962 1.73986 0.681925 
0.841899 1.80696 0.669929 0.893764 1.83062 0.648719 0.962739 1.8221 0.636468 
1.04741 1.79677 0.625262 0.982436 1.82786 -0.0617422 1.04481 1.87459 -0.00686747 
1.10121 1.92422 0.0396318 1.14249 1.97048 0.109301 1.15176 1.78476 0.513293 
1.15429 1.80833 0.433796 1.164 1.83259 0.367729 1.18516 1.86728 0.31612 
1.19736 1.9309 0.256053 
LINES 59 652
48 48 49 50 51 52 53 54 55 56 57 58 59 60 61 62 63 64 65 66 67 68 69 70 71 72 73 74 75 76 77 78 79 80 81 82 83 84 85 86 87 88 89 90 91 92 93 94 35 
5 48 100 101 102 45 
35 44 104 105 106 107 108 109 110 111 112 113 114 115 116 117 118 119 120 121 122 123 124 125 126 127 128 129 130 131 132 133 134 135 136 41 
12 43 137 138 139 140 141 142 143 144 145 146 42 
10 42 147 148 149 150 151 152 153 154 26 
5 42 155 156 157 35 
3 40 158 34 
8 39 159 160 161 162 163 164 28 
11 39 165 166 167 168 169 170 171 172 173 38 
7 39 174 175 176 177 178 34 
3 38 179 32 
9 38 180 181 182 183 184 185 186 37 
4 37 187 188 33 
13 37 189 190 191 192 193 194 195 196 197 198 199 31 
4 36 200 201 30 
10 35 202 203 204 205 206 207 208 209 26 
3 34 210 20 
8 33 211 212 213 214 215 216 32 
16 33 217 218 219 220 221 222 223 224 225 226 227 228 229 230 31 
3 30 231 29 
9 25 232 233 234 235 236 237 238 10 
3 32 239 28 
6 31 240 241 242 243 15 
4 30 244 245 29 
4 30 246 247 21 
12 26 248 249 250 251 252 253 254 255 256 257 20 
9 29 258 259 260 261 262 263 264 25 
14 25 265 266 267 268 269 270 271 272 273 274 275 276 15 
19 28 277 278 279 280 281 282 283 284 285 286 287 288 289 290 291 292 293 4 
8 27 294 295 296 297 298 299 17 
7 26 300 301 302 303 304 13 
5 20 305 306 307 24 
7 25 308 309 310 311 312 10 
12 23 313 314 315 316 317 318 319 320 321 322 19 
13 22 323 324 325 326 327 328 329 330 331 332 333 21 
5 21 334 335 336 14 
5 20 337 338 339 11 
47 18 340 341 342 343 344 345 346 347 348 349 350 351 352 353 354 355 356 357 358 359 360 361 362 363 364 365 366 367 368 369 370 371 372 373 374 375 376 377 378 379 380 381 382 383 384 1 
6 15 385 386 387 388 9 
14 16 389 390 391 392 393 394 395 396 397 398 399 400 6 
11 14 401 402 403 404 405 406 407 408 409 12 
20 14 410 411 412 413 414 415 416 417 418 419 420 421 422 423 424 425 426 427 3 
3 13 428 11 
8 10 429 430 431 432 433 434 3 
5 13 435 436 437 6 
3 12 438 10 
4 12 439 440 3 
23 11 441 442 443 444 445 446 447 448 449 450 451 452 453 454 455 456 457 458 459 460 461 4 
5 9 462 463 464 8 
6 9 465 466 467 468 5 
4 7 469 470 4 
8 3 471 472 473 474 475 476 5 
26 6 477 478 479 480 481 482 483 484 485 486 487 488 489 490 491 492 493 494 495 496 497 498 499 500 0 
7 5 501 502 503 504 505 2 
4 4 506 507 2 
8 3 508 509 510 511 512 513 1 
6 2 514 515 516 517 0 
7 1 518 519 520 521 522 0 
9 48 95 96 97 98 99 47 103 46 

POINT_DATA 523
SCALARS DY_raw double
LOOKUP_TABLE default
156.163 108.788 169.34 157.66 156.302 158.851 173.205 148.761 148.283 
113.622 152.206 184.99 133.189 159.329 129.085 126.829 164.536 177.516 
175.403 131.755 134.05 147.143 105.057 109.472 165.187 104.918 146.414 
80.0301 143.171 111.016 131.64 148.22 117.075 144.703 151.265 116.024 
116.214 135.29 123.054 107.789 112.798 167.768 110.743 134.379 159.015 
111.4 143.99 135.253 136.912 154.95 169.117 194.298 164.882 167.968 
170.507 148.747 141.324 141.324 131.788 149.999 149.999 176.516 163.623 
175.459 168.551 148.962 143.133 145.686 153.481 150.033 167.537 147.038 
115.14 119.752 124.061 127.917 140.352 126.944 115.514 115.514 106.26 
114.171 135.256 109.885 139.425 129.229 93.3665 86.1502 84.0237 99.6057 
106.061 116.212 116.511 110.172 113.084 136.912 149.62 154.962 151.454 
130.33 115.354 107.063 116.283 144.233 160.211 153.226 137.289 137.289 
126.924 126.924 124.729 140.605 140.605 145.919 147.573 147.573 140.202 
140.614 140.614 135.895 135.895 148.554 128.075 182.64 182.027 138.868 
155.803 121.533 112.644 130.116 131.669 139.029 139.665 139.665 150.906 
161.837 137.815 134.379 125.709 118.462 127.053 119.215 120.012 132.41 
123.213 114.848 128.323 125.809 139.041 143.769 141.89 131.709 117.424 
119.269 126.672 117.725 125.435 122.393 134.273 119.925 133.262 138.462 
155.708 150.852 149.736 105.896 105.896 122.324 122.324 125.661 126.301 
126.301 131.999 123.054 111.497 119.624 133.939 140.977 141.071 126.606 
124.604 112.522 112.522 116.221 123.962 123.962 123.803 148.039 135.054 
131.282 118.118 118.118 97.9581 103.948 131.099 116.441 123.571 133.261 
127.009 142.427 122.602 117.465 116.443 117.26 131.307 138.148 127.115 
139.96 150.554 146.914 148.32 163.172 171.322 152.785 150.272 141.89 
126.098 149.959 157.191 174.823 158.045 156.906 178.227 154.776 166.092 
172.491 160.226 142.508 144.566 149.318 142.463 124.314 106.28 106.093 
104.435 108.359 103.994 125.205 167.849 124.986 148.741 152.035 142.089 
139.879 127.615 124.452 148.487 141.488 151.73 127.297 119.487 118.37 
144.45 141.347 148.831 134.675 140.931 144.058 102.548 102.465 106.99 
112.291 108.416 108.227 104.942 125.472 128.87 132.076 133.495 122.485 
121.316 131.518 131.518 134.757 155.17 163.493 136.78 158.831 141.382 
140.681 158.409 154.126 183.271 193.705 199.881 222.456 221.361 186.702 
198.171 180.304 175.663 170.68 175.624 174.986 105.596 132.834 116.997 
135.158 147.549 152.716 186.681 181.335 182.841 148.619 151.909 137.317 
139.178 145.329 137.769 146.001 146.898 154.605 151.47 127.835 156.707 
134.152 131.491 129.024 129.024 133.451 133.451 129.917 121.698 92.6255 
107.315 107.315 102.333 127.016 118.029 138.641 143.042 138.111 154.706 
142.644 160.397 128.515 137.628 156.665 172.938 162.591 175.403 165.611 
158.99 162.411 140.363 121.233 110.243 118.275 116.487 124.601 142.461 
134.324 138.045 164.595 147.913 156.021 138.537 121.879 127.104 133.841 
134.69 162.062 165.052 165.889 192.656 180.765 186.59 198.456 180.682 
186.604 165.21 157.912 138.732 154.654 164.764 141.861 117.522 117.522 
121.281 151.869 133.692 139.05 126.946 105.94 112.249 147.116 159.864 
153.811 142.027 171.69 159.772 159.772 163.774 170.614 183.022 165.972 
170.717 167.216 159.151 150.478 159.192 112.998 106.252 98.496 102.642 
96.3537 90.3263 95.1324 119.78 133.747 125.966 120.672 132.357 106.765 
118 101.875 122.582 112.397 95.5007 90.8012 107.754 104.478 119.326 
110.141 118.796 128.596 128.447 138.533 155.059 189.142 206.227 193.647 
175.814 170.708 155.349 168.118 201.752 190.454 148.343 150.498 155.485 
145.232 168.655 166.731 174.12 213.125 209.503 207.65 207.65 205.867 
206.324 230.987 173.431 173.431 190.09 175.57 206.495 204.539 170.546 
167.999 166.688 152.362 114.651 134.137 148.283 134.802 161.78 170.318 
175.128 151.327 167.278 146.24 137.629 140.069 150.607 158.574 169.133 
178.511 171.134 172.142 166.625 179.871 140.596 121.671 126.87 121.695 
148.91 151.669 161.623 161.623 149.321 133.266 134.436 126.266 132.339 
132.339 157.723 160.729 157.448 149.065 141.747 158.851 140.895 122.281 
143.696 157.307 137.85 157.392 195.728 198.025 165.259 157.089 138.243 
111.771 142.2 145.524 139.567 152.643 107.073 119.219 124.311 119.819 
123.962 
FIELD FieldData 7
DY_minmax 1 523 double
0.50434 0.190503 0.591625 0.514254 0.505256 0.522142 0.617227 0.455301 0.452139 
0.222524 0.478121 0.695299 0.35215 0.525312 0.324963 0.310017 0.559806 0.64579 
0.63179 0.342649 0.357847 0.444581 0.165789 0.195034 0.564113 0.164869 0.439752 
0 0.418274 0.205266 0.341887 0.451717 0.245401 0.428421 0.471888 0.238437 
0.239699 0.366065 0.285005 0.183887 0.21707 0.58121 0.203456 0.360032 0.52323 
0.207807 0.423698 0.365823 0.376809 0.496301 0.590149 0.756956 0.562098 0.582537 
0.599359 0.455212 0.40604 0.40604 0.342863 0.463501 0.463501 0.63916 0.553754 
0.632163 0.5864 0.456637 0.418018 0.434936 0.486572 0.463731 0.57968 0.443892 
0.232581 0.263133 0.291681 0.317222 0.399597 0.31078 0.235057 0.235057 0.173757 
0.226162 0.365838 0.197775 0.393455 0.325914 0.0883459 0.0405418 0.0264552 0.129677 
0.172438 0.239683 0.241668 0.199669 0.21896 0.376809 0.460995 0.496384 0.473141 
0.33321 0.234001 0.179077 0.240156 0.425305 0.531151 0.484878 0.37931 0.37931 
0.310646 0.310646 0.296107 0.401271 0.401271 0.436473 0.44743 0.44743 0.398607 
0.401335 0.401335 0.37007 0.37007 0.453934 0.31827 0.679729 0.67567 0.389768 
0.501949 0.274936 0.21605 0.331793 0.342081 0.390836 0.395047 0.395047 0.469514 
0.541923 0.38279 0.360032 0.302599 0.254591 0.311502 0.259579 0.264856 0.346987 
0.286063 0.23065 0.319912 0.303259 0.390911 0.422231 0.409788 0.342346 0.247711 
0.259936 0.308975 0.249709 0.300779 0.280632 0.359327 0.264282 0.352629 0.387077 
0.501322 0.469154 0.461763 0.171345 0.171345 0.280175 0.280175 0.302277 0.306516 
0.306516 0.344266 0.285005 0.208448 0.262288 0.357118 0.403738 0.40436 0.308537 
0.295274 0.215242 0.215242 0.239741 0.291023 0.291023 0.289971 0.450517 0.364504 
0.339515 0.252312 0.252312 0.118762 0.158439 0.338299 0.241199 0.288436 0.352622 
0.311211 0.413342 0.282014 0.247982 0.241213 0.246626 0.339678 0.384997 0.311913 
0.397 0.46718 0.443068 0.452379 0.550769 0.604757 0.481957 0.465314 0.409789 
0.305171 0.463237 0.511147 0.62795 0.516806 0.509262 0.650496 0.495152 0.57011 
0.612503 0.531252 0.413882 0.427512 0.45899 0.413585 0.293357 0.173892 0.172654 
0.161668 0.187663 0.158745 0.29926 0.581749 0.297804 0.455173 0.476988 0.411106 
0.396466 0.31522 0.294268 0.453489 0.407121 0.47497 0.313116 0.26138 0.253981 
0.426746 0.406189 0.455766 0.361993 0.403434 0.424148 0.14917 0.14862 0.178591 
0.213712 0.188042 0.186787 0.165025 0.301029 0.323534 0.344773 0.354174 0.281241 
0.273493 0.341077 0.341077 0.362531 0.497761 0.552893 0.375937 0.522011 0.406423 
0.40178 0.519217 0.490841 0.683911 0.753032 0.793945 0.943489 0.936235 0.70664 
0.782614 0.664255 0.633514 0.600501 0.633253 0.629026 0.169359 0.349796 0.244885 
0.365193 0.447273 0.481505 0.706501 0.671089 0.681064 0.454364 0.476157 0.379492 
0.391818 0.43257 0.382489 0.43702 0.442961 0.494017 0.473248 0.316677 0.507939 
0.358525 0.340897 0.324559 0.324559 0.353886 0.353886 0.330471 0.276024 0.0834368 
0.180747 0.180747 0.147744 0.311253 0.251718 0.388262 0.41742 0.384749 0.494688 
0.414782 0.532382 0.321181 0.381554 0.507662 0.615463 0.546921 0.63179 0.566926 
0.523065 0.545729 0.39967 0.272948 0.200143 0.253349 0.241503 0.295259 0.413565 
0.359664 0.384316 0.560193 0.449688 0.503396 0.387571 0.277224 0.311837 0.356464 
0.362089 0.543416 0.563221 0.568765 0.746083 0.667311 0.705895 0.784506 0.666761 
0.705991 0.56427 0.515922 0.388863 0.494344 0.561314 0.409594 0.248364 0.248364 
0.273264 0.475894 0.355479 0.390974 0.310791 0.171639 0.213433 0.444405 0.528852 
0.488755 0.410696 0.607197 0.528245 0.528245 0.554754 0.600069 0.682263 0.569313 
0.60075 0.577559 0.524128 0.466677 0.524403 0.218394 0.173706 0.122326 0.149788 
0.108134 0.0682059 0.100044 0.263317 0.355846 0.304296 0.26923 0.346635 0.177105 
0.251527 0.144713 0.281884 0.214414 0.102484 0.0713523 0.183657 0.161956 0.260309 
0.199465 0.256804 0.321719 0.320736 0.387548 0.49702 0.7228 0.835983 0.752647 
0.634516 0.60069 0.498946 0.583532 0.806337 0.731497 0.452536 0.466811 0.499846 
0.431924 0.587092 0.574341 0.623291 0.881674 0.857681 0.845408 0.845408 0.833598 
0.836625 1 0.61873 0.61873 0.729086 0.632897 0.837756 0.824797 0.599619 
0.582745 0.574058 0.479155 0.229343 0.358426 0.452139 0.362834 0.541549 0.598105 
0.629968 0.472303 0.577967 0.438602 0.38156 0.39772 0.467532 0.52031 0.590257 
0.652381 0.603513 0.610188 0.573643 0.661391 0.401214 0.275845 0.310288 0.276005 
0.456291 0.474564 0.540504 0.540504 0.459011 0.352654 0.360408 0.306284 0.346519 
0.346519 0.514667 0.534586 0.512851 0.457319 0.408836 0.522142 0.403195 0.279886 
0.421753 0.511914 0.383022 0.512475 0.766434 0.781648 0.564591 0.510469 0.385627 
0.210266 0.411842 0.433862 0.394399 0.481021 0.179143 0.259601 0.293337 0.263576 
0.291021 
WidthEq 1 523 double
1.67549 2.10465 1.84694 2.419 2.49428 1.59206 2.44255 2.12045 1.62951 
2.26031 3.56445 2.54387 3.28983 3.12064 2.45628 3.48264 1.44272 1.78603 
2.31735 2.34108 3.61269 2.9606 1.84709 2.31795 2.03085 3.84471 2.94993 
2.02861 3.05473 3.24556 3.69287 2.78283 2.9054 2.22096 3.56118 3.9092 
2.92546 2.70729 2.82032 3.11284 3.56025 1.35157 3.00841 2.36755 1.21536 
1 1.60573 1.46081 2.01633 1.99387 1.85996 1.87429 2.07693 2.03723 
1.98948 2.1829 2.29529 2.29529 2.33634 2.44455 2.44455 2.42421 2.61485 
2.63127 2.42318 2.56957 2.44801 2.35959 2.27819 2.2293 2.09196 2.03817 
1.89214 1.82661 1.78364 1.84823 1.78252 1.86538 1.88065 1.88065 1.84999 
1.7783 1.63224 1.55435 1.37795 1.35914 1.73542 2.37225 2.56059 2.98788 
2.96377 2.92414 3.08502 3.36757 3.7291 2.01633 1.82402 1.61233 1.49617 
1.43666 1.74489 1.59672 1.57641 1.37784 1.54565 2.10337 2.38686 2.38686 
2.23228 2.23228 2.14376 1.8919 1.8919 1.8143 1.80013 1.80013 1.80375 
1.76597 1.76597 1.71626 1.71626 1.70294 1.68768 1.59631 1.62904 1.91585 
1.83347 2.1706 2.25258 2.28687 2.37732 2.34375 2.28597 2.28597 2.02821 
1.78365 1.89239 2.36755 2.54325 2.83812 2.72704 2.96959 2.84747 2.81542 
2.94887 2.99508 2.95933 3.1144 2.78508 2.94341 2.59221 2.4775 2.70158 
2.91115 3.0339 3.25809 3.41444 3.78738 3.75995 3.15722 2.8904 2.65929 
2.53398 2.53765 2.79865 3.16415 3.16415 2.88961 2.88961 2.74779 2.64749 
2.64749 2.71956 2.82032 3.08682 3.10247 2.73295 2.91275 3.18854 2.74505 
2.90601 2.97168 2.97168 2.91325 2.95445 2.95445 2.9017 2.39086 2.31344 
2.73434 2.77781 2.77781 2.52281 2.36148 2.29392 2.38301 2.51814 2.51762 
2.75153 2.73425 3.35149 3.74785 4.04508 3.92171 3.5526 3.19122 3.58336 
3.59289 3.58503 3.58447 3.56979 2.03699 1.85107 2.12678 2.21811 2.53245 
2.78038 2.14759 2.11908 1.95626 2.0198 1.88992 1.82296 1.972 2.03634 
2.05071 2.26517 2.57641 2.55752 2.64202 2.73972 3.36719 3.67321 3.53189 
3.28865 3.27134 3.28404 3.0065 2.9629 2.95194 3.27649 3.44224 3.90902 
3.95613 3.30957 3.30063 3.40595 3.32912 2.26758 2.41042 2.08081 1.76615 
1.43136 1.6006 1.63064 2.03007 2.49377 3.11138 3.2845 3.38407 3.44351 
3.45387 3.4707 3.68938 3.76152 3.35149 2.8279 2.71495 2.73621 3.26807 
3.39371 3.7277 3.7277 3.82148 3.67493 3.54443 3.68855 2.9707 3.10329 
3.02833 3.08991 3.14866 2.82996 2.50773 2.23308 2.10914 1.9878 2.0642 
2.01417 2.29124 2.42646 2.61818 2.7186 2.75108 2.62974 2.75358 3.30914 
3.2618 2.72662 2.72695 2.68988 2.65183 2.54532 2.96321 3.1035 3.63451 
3.39121 3.04646 4.05257 3.88648 3.81455 3.5361 3.64792 2.58576 2.6339 
2.98587 3.04721 3.06043 3.06043 3.1598 3.1598 3.10883 2.71944 2.32938 
2.92345 2.92345 3.05844 2.74698 2.77331 2.5015 2.47961 2.67329 2.79284 
2.9216 2.57518 2.50182 2.41535 3.19401 2.60359 3.02919 2.31735 3.02612 
3.26347 3.18918 3.4108 3.43107 3.11339 2.97612 2.30842 2.16041 2.07517 
2.11474 2.11293 1.98621 2.15707 2.11081 2.21378 2.19595 2.15092 2.12058 
2.06578 1.82455 1.83203 1.72266 1.64993 1.5903 1.56616 1.51142 1.70969 
1.65297 1.7902 1.71881 1.77025 1.7746 1.67846 1.74939 1.69125 1.69125 
1.64576 1.55476 1.6654 1.66487 1.78154 2.06192 2.09756 3.05956 2.64538 
2.42928 2.30484 1.90337 2.18136 2.18136 2.35227 2.37102 2.28557 2.59876 
2.54362 2.62701 2.72478 2.71907 2.50182 2.40916 2.25332 2.08719 1.94161 
2.40292 2.55441 2.6316 2.97196 3.24694 2.53934 2.49718 2.26479 2.06163 
1.98644 1.76038 1.81021 1.75227 2.03768 2.17486 2.30664 2.32354 2.30118 
2.36216 2.45319 2.52481 2.69807 2.77883 3.14965 2.95223 2.43712 2.32965 
2.28235 2.16586 2.15006 2.83479 2.4426 2.50349 3.46244 3.2013 3.00923 
3.13747 2.67795 2.3337 2.1619 1.94909 1.87998 1.73826 1.73826 1.62751 
1.56734 1.48467 1.69352 1.69352 1.69924 1.74637 1.74377 1.7915 1.97049 
2.25602 2.31348 2.4644 2.17687 2.09465 1.62951 2.09425 1.72629 1.65766 
1.52837 2.60475 2.54421 1.77592 1.69303 1.7108 1.77907 1.80824 1.73088 
2.34932 2.22206 2.14834 2.07292 1.98453 1.97801 2.10766 2.10412 2.13797 
2.01645 2.05052 1.95628 1.95628 1.99684 1.95827 1.871 1.74592 1.66216 
1.66216 1.5391 1.57003 1.63705 1.67195 1.70262 1.59206 1.59899 1.69847 
1.79517 1.85809 2.20037 1.95836 1.9311 1.71857 1.62339 1.57885 1.7823 
2.05975 1.74381 1.62839 1.78523 1.75828 1.92859 1.72096 1.61224 1.69657 
1.76756 
rRFP 1 523 double
3664.53 4029.81 3810.46 4297.37 4361.44 3593.52 4317.41 4043.26 3625.4 
4162.3 5272.32 4403.65 5038.57 4894.57 4329.1 5202.68 3466.41 3758.62 
4210.85 4231.05 5313.38 4758.35 3810.59 4211.36 3967 5510.86 4749.27 
3965.09 4838.47 5000.89 5381.62 4607.04 4711.37 4128.81 5269.53 5565.75 