# vtk DataFile Version 3.0
vtk output
ASCII
DATASET POLYDATA
POINTS 923 float
0.966361 -0.0280489 1.68613 0.205615 -0.805439 0.961749 0.171489 -0.657615 0.764692 
0.938262 0.895056 0.926782 2.92139 0.313045 1.10196 0.159838 -1.04162 0.541743 
0.365061 -1.26346 0.551293 -0.126081 -0.0688531 0.563666 0.925433 -0.619866 0.643682 
0.44697 0.853831 0.672187 -0.0789844 0.227812 0.248715 3.32182 -0.0540845 0.721365 
1.21634 -0.712439 0.266282 0.0678436 -0.843605 -0.061377 0.213161 0.931854 0.0479619 
1.86303 -1.61287 0.0843301 3.71508 -0.111753 0.22222 1.16946 1.39504 -0.0294398 
3.74794 -1.76923 -0.130821 3.92893 -1.25118 -0.151639 -0.0293363 -0.522864 -0.658521 
3.65155 -1.88595 -0.348389 6.13396 -0.957991 -0.0411864 4.24838 -0.450672 -0.903753 
6.92507 0.64848 -0.231685 0.584477 0.712544 -1.20036 3.62227 -2.09376 -1.16789 
6.44966 -1.26154 -1.01263 1.86416 -2.14269 -1.68876 2.47897 -2.34766 -1.50152 
6.6004 0.927441 -0.899426 7.70682 -0.408356 -1.30841 7.71864 0.344601 -1.3735 
2.54227 -2.18803 -1.68783 1.99294 0.962965 -1.57766 7.02325 -1.14912 -1.41876 
0.976452 0.0254154 -1.93441 4.89199 -0.517685 -1.55637 5.08928 -0.706749 -1.48065 
5.93758 0.037379 -1.41826 7.06479 -0.953347 -1.35372 7.55366 -0.935211 -1.30195 
7.92645 0.0652537 -1.27724 0.981247 -0.12236 -2.22514 4.01376 -0.751967 -2.06277 
6.67543 -1.16949 -1.80836 6.12427 0.596368 -1.76818 7.35931 -0.772103 -1.78333 
7.25139 0.8432 -1.64168 1.0326 -0.385683 -2.55446 7.16038 0.079207 -2.22864 
7.67407 -0.0770855 -2.11644 2.55546 -1.24383 -2.84448 6.74313 -0.69513 -2.38022 
6.67454 -0.230573 -2.36269 6.75409 -0.375127 -2.36209 6.82905 0.168507 -2.32545 
7.2214 -0.452864 -2.38478 6.82386 0.291236 -2.31947 6.90919 0.589413 -2.29478 
7.37567 -0.0751263 -2.41582 7.30184 0.370968 -2.26185 7.02435 -0.478244 -2.54084 
7.34246 -0.168483 -2.36705 7.31076 -0.240324 -2.34681 7.27637 -0.292744 -2.35814 
7.2485 -0.362632 -2.37469 7.28218 -0.0322029 -2.34619 7.21978 0.017586 -2.28291 
7.07792 -0.465266 -2.50973 7.14461 -0.464777 -2.45802 7.58554 -0.066624 -2.19469 
7.52487 -0.0761061 -2.26613 7.4642 -0.0855879 -2.33757 7.37041 0.396095 -2.20491 
7.43492 0.394672 -2.12744 7.48278 0.40628 -2.04727 7.52292 0.426083 -1.95463 
7.562 0.440878 -1.82383 7.61776 0.42405 -1.62503 7.26055 0.30412 -2.28584 
7.22322 0.244839 -2.2792 7.19141 0.171542 -2.25656 6.9501 0.612354 -2.22219 
6.99014 0.636889 -2.14961 7.02455 0.669883 -2.06971 7.05 0.717362 -1.98251 
7.07723 0.759833 -1.88793 7.10438 0.806003 -1.80809 7.14607 0.829326 -1.74285 
7.2015 0.831229 -1.69224 7.05356 0.0981293 -2.20393 6.96892 0.119574 -2.21159 
6.89712 0.143426 -2.25756 7.26844 -0.519294 -2.3511 7.30037 -0.574922 -2.32091 
7.32357 -0.626261 -2.27647 7.34048 -0.678643 -2.18055 7.3512 -0.729548 -2.01061 
6.83655 0.235431 -2.32112 6.80766 0.0940593 -2.33162 6.7854 0.0212058 -2.3378 
6.75832 -0.0428952 -2.34402 6.72393 -0.0937152 -2.35029 6.69685 -0.157816 -2.35651 
6.76575 -0.306158 -2.41688 6.73923 -0.257973 -2.41708 6.58744 -0.217661 -2.23681 
6.506 -0.215008 -2.11089 6.43743 -0.23398 -1.99225 6.37116 -0.251781 -1.89567 
6.29593 -0.24595 -1.82861 6.21887 -0.227721 -1.78344 6.149 -0.203297 -1.72974 
6.09391 -0.170549 -1.65915 6.04161 -0.136119 -1.57327 6.01068 -0.0885059 -1.49938 
5.96744 -0.0387698 -1.44903 6.73563 -0.762054 -2.38455 6.7475 -0.818153 -2.37884 
6.75686 -0.873491 -2.35843 6.73649 -0.933684 -2.31154 6.69566 -0.987716 -2.23661 
6.65999 -1.05606 -2.12462 6.64655 -1.12344 -1.98044 2.62983 -1.26566 -2.83792 
2.70414 -1.28739 -2.83135 2.77758 -1.30752 -2.82478 2.8462 -1.3189 -2.81826 
2.90751 -1.31701 -2.81179 2.97608 -1.32829 -2.80526 3.04853 -1.34664 -2.79871 
3.1154 -1.35662 -2.78483 3.16862 -1.34536 -2.75633 3.21862 -1.33358 -2.70576 
3.27427 -1.33385 -2.64779 3.32416 -1.32188 -2.59723 3.37475 -1.30763 -2.56138 
3.42783 -1.29789 -2.52552 3.46949 -1.27096 -2.47502 3.51929 -1.2606 -2.41708 
3.56167 -1.23498 -2.36658 3.59506 -1.18768 -2.33823 3.63644 -1.15136 -2.32454 
3.6826 -1.1237 -2.31081 3.7281 -1.09841 -2.28237 3.77136 -1.0744 -2.23186 
3.81381 -1.05068 -2.17398 3.85614 -1.02497 -2.12347 3.8959 -0.989242 -2.09508 
3.92895 -0.93777 -2.08145 3.96431 -0.888729 -2.07517 3.99145 -0.824724 -2.06895 
7.75142 -0.126723 -2.02838 7.78916 -0.180877 -1.87818 7.78646 -0.260691 -1.62852 
7.68922 0.00349388 -1.92829 7.70617 0.113135 -1.68207 1.05976 -0.323725 -2.54089 
1.08992 -0.275154 -2.51281 1.09524 -0.221113 -2.44972 1.05221 -0.173078 -2.35469 
7.82009 0.15573 -1.33154 7.43131 -0.809778 -1.70824 7.45872 -0.862348 -1.61123 
7.49984 -0.902707 -1.47237 7.33438 -0.692462 -1.56293 7.32894 -0.621506 -1.38074 
7.33972 -0.553361 -1.27097 7.37342 -0.492273 -1.23192 7.4798 -0.44874 -1.2577 
6.1006 0.530111 -1.72568 6.07279 0.462498 -1.66877 6.03356 0.408333 -1.61606 
6.00327 0.342603 -1.57422 5.98601 0.272688 -1.52752 5.98257 0.20755 -1.47912 
5.96523 0.130114 -1.44029 6.17666 0.634529 -1.77934 6.22415 0.670943 -1.76875 
6.25937 0.720368 -1.75501 6.30116 0.756956 -1.745 6.34808 0.785006 -1.73863 
6.39516 0.810975 -1.7249 6.44088 0.834081 -1.68909 6.48684 0.846084 -1.60911 
6.53469 0.842184 -1.47756 6.56972 0.850906 -1.30193 6.59195 0.877555 -1.10431 
6.60826 -1.20559 -1.61217 6.54827 -1.23662 -1.41124 6.4981 -1.25559 -1.20491 
6.72406 -1.16058 -1.73571 6.78465 -1.1716 -1.67034 6.84622 -1.18208 -1.61416 
6.89779 -1.17106 -1.56347 6.95174 -1.1553 -1.49923 3.99225 -0.701298 -2.12944 
3.95971 -0.656679 -2.19012 3.90207 -0.625821 -2.23921 3.83263 -0.601402 -2.27496 
3.7631 -0.577037 -2.31072 3.70369 -0.547156 -2.36005 3.65828 -0.509719 -2.41499 
3.59981 -0.481524 -2.46432 3.53598 -0.467751 -2.50005 3.4788 -0.469814 -2.53593 
3.42145 -0.468231 -2.58655 3.37217 -0.47953 -2.64448 3.32129 -0.489713 -2.69505 
3.25683 -0.480549 -2.72363 3.19001 -0.47066 -2.73751 3.12973 -0.474434 -2.74397 
3.06785 -0.475291 -2.75045 3.01414 -0.491014 -2.75686 2.96443 -0.513992 -2.76325 
2.91078 -0.529812 -2.76966 2.84988 -0.532447 -2.77613 2.79628 -0.548364 -2.78255 
2.74745 -0.572936 -2.78892 2.69861 -0.597508 -2.7953 2.64502 -0.613424 -2.80172 
2.58412 -0.616068 -2.80819 2.53046 -0.631879 -2.8146 2.48075 -0.654857 -2.82099 
2.4271 -0.670677 -2.8274 2.36538 -0.673615 -2.82651 2.30856 -0.689003 -2.81086 
2.25015 -0.705077 -2.78049 2.18444 -0.707886 -2.75018 2.12357 -0.71414 -2.74193 
2.06168 -0.714996 -2.7484 2.00786 -0.728727 -2.76218 1.95175 -0.743637 -2.75389 
1.88681 -0.746047 -2.73093 1.82287 -0.753864 -2.69324 1.75716 -0.756664 -2.66293 
1.701 -0.771478 -2.65464 1.64548 -0.783907 -2.66107 1.57785 -0.774321 -2.66759 
1.50234 -0.757535 -2.64471 1.42842 -0.748983 -2.59974 1.36023 -0.754397 -2.53999 
1.28473 -0.74653 -2.48029 1.20523 -0.729616 -2.428 1.12731 -0.712017 -2.39042 
1.05733 -0.703505 -2.37486 1.00024 -0.71662 -2.36657 0.942373 -0.730125 -2.35093 
0.869433 -0.723123 -2.30594 0.789414 -0.706403 -2.23133 0.714979 -0.684376 -2.11857 
0.660937 -0.652975 -1.98083 0.610948 -0.630716 -1.83569 0.548746 -0.6327 -1.71547 
0.472898 -0.627116 -1.62611 0.396899 -0.621676 -1.55169 0.326557 -0.628296 -1.46985 
0.247384 -0.622238 -1.35844 0.169123 -0.604148 -1.21645 0.101785 -0.57784 -1.04307 
0.0299774 -0.553809 -0.855357 4.07715 -0.776986 -1.96056 4.13786 -0.789999 -1.88783 
4.18768 -0.776132 -1.84463 4.22771 -0.742678 -1.80886 4.25716 -0.695337 -1.75109 
4.28857 -0.661494 -1.65239 4.30972 -0.627125 -1.48265 4.29793 -0.55924 -1.2267 
7.6545 0.552956 -1.28623 7.60607 0.653692 -1.17405 7.56169 0.70195 -1.03358 
7.50952 0.734869 -0.897214 7.44081 0.746693 -0.784402 7.37286 0.741484 -0.709706 
7.29823 0.749787 -0.657359 7.21921 0.766786 -0.610804 7.13475 0.777852 -0.530336 
7.03868 0.751383 -0.400029 7.88702 -0.308726 -1.25271 7.97335 -0.245888 -1.20871 
8.00364 -0.182352 -1.17236 8.01183 -0.117267 -1.16121 7.98945 -0.0654472 -1.17819 
7.94923 -0.0144442 -1.22441 7.04554 -1.04048 -1.39203 0.967989 -0.0483188 -2.08089 
7.92971 0.145124 -1.16576 7.91847 0.207459 -1.07993 7.9089 0.268015 -1.06114 
7.85614 0.316318 -1.16598 7.62207 0.161303 -1.12395 7.56482 0.0818608 -0.917843 
7.51832 0.0361728 -0.79749 7.48244 -0.017036 -0.768412 7.44956 -0.0648005 -0.796735 
7.43013 -0.125272 -0.856037 7.43663 -0.191841 -0.948389 7.51769 -0.272998 -1.10274 
7.52823 -1.00943 -1.2787 7.49558 -1.07409 -1.24079 7.44835 -1.1158 -1.18825 
7.3946 -1.14747 -1.12839 7.33992 -1.17744 -1.06854 7.28596 -1.20692 -1.01605 
7.23423 -1.23514 -0.985643 7.18634 -1.25908 -1.00121 7.13905 -1.26657 -1.0811 
7.08381 -1.23097 -1.2285 7.58464 -0.917347 -1.13372 7.61851 -0.895839 -1.00228 
7.65188 -0.861207 -0.922397 7.67521 -0.80138 -0.886967 7.688 -0.733655 -0.891365 
7.69069 -0.665009 -0.954554 7.70344 -0.56338 -1.09885 5.85722 0.023644 -1.45717 
5.79053 0.023155 -1.50886 5.73903 0.011313 -1.5596 5.6866 0.000254214 -1.59546 
5.62083 0.00645887 -1.60197 5.56069 0.00420591 -1.6158 5.52227 -0.0321645 -1.65155 
5.48607 -0.063674 -1.7241 5.44597 -0.088113 -1.79668 5.40353 -0.111835 -1.85455 
5.35797 -0.137023 -1.883 5.31089 -0.162992 -1.89673 5.26299 -0.189255 -1.9031 
5.21349 -0.21441 -1.90212 5.15853 -0.233189 -1.88645 5.09879 -0.248619 -1.84874 
5.05218 -0.291463 -1.79619 5.00325 -0.331877 -1.7363 4.95614 -0.375593 -1.67639 
4.92124 -0.441509 -1.61641 5.16782 -0.739442 -1.36422 5.23401 -0.767421 -1.22273 
5.28654 -0.800895 -1.09599 5.32599 -0.841565 -0.998963 5.37197 -0.878721 -0.921585 
5.41336 -0.918408 -0.844818 5.46717 -0.95122 -0.758925 5.51954 -0.984764 -0.658321 
5.56028 -1.02459 -0.559248 5.6134 -1.05552 -0.458427 5.67188 -1.07203 -0.371184 
5.72447 -1.07231 -0.291162 5.77952 -1.07506 -0.218465 5.82804 -1.06415 -0.153182 
5.87892 -1.05397 -0.102613 5.94333 -1.06304 -0.0740313 6.00916 -1.07114 -0.0601601 
6.0627 -1.05513 -0.0537464 6.10486 -1.01842 -0.0474177 5.01984 -0.651567 -1.54646 
4.95972 -0.608327 -1.56346 4.92094 -0.56468 -1.56145 4.81442 -0.513166 -1.46723 
4.74721 -0.520367 -1.40749 4.68128 -0.520989 -1.38454 4.61798 -0.525873 -1.36486 
4.53778 -0.516798 -1.29648 4.4209 -0.493531 -1.13586 0.916013 0.0549141 -1.93912 
[...]
POINT_DATA 923
SCALARS DY_raw double
LOOKUP_TABLE default
253.416 323.124 266.784 379.803 235.067 365.207 249.779 266.283 397.612 
251.367 274.942 244.019 319.3 251.068 240.732 298.001 241.307 179.332 
320.706 243.46 298.151 270.986 287.215 247.829 259.952 214.978 275.186 
211.976 239.428 358.577 245.905 337.857 211.789 282.093 213.648 206.313 
190.829 284.332 334.922 290.45 324.785 198.486 237.097 242.942 213.825 
206.115 312.897 267.627 213.588 261.633 268.477 233.964 327.515 228.441 
270.086 253.622 271.687 285.561 295.195 295.984 257.275 254.146 257.926 
268.997 277.201 305.871 298.632 272.674 270.25 282.042 281.725 236.476 
249.776 254.567 253.199 260.168 263.309 239.631 238.275 261.816 247.144 
254.662 262.58 272.951 227.154 215.763 222.255 205.221 190.736 194.538 
196.324 279.271 259.098 247.322 276.624 282.555 237.239 227.14 236.82 
271.687 277.056 273.834 264.641 268.596 280.816 249.506 264.881 277.129 
234.394 253.784 262.975 253.464 249.116 245.368 240.454 229.146 252.955 
273.992 228.441 213.218 228.742 235.454 222.978 221.842 218.601 327.515 
299.24 264.67 255.369 241.414 245.566 245.566 254.413 277.051 262.409 
277.993 299.072 297.812 273.347 300.581 305.096 307.223 307.223 269.316 
242.567 254.505 257.447 305.461 291.165 270.275 270.275 255.353 213.825 
260.659 237.696 295.52 285.828 275.053 261.633 241.412 238.485 252.183 
231.119 237.772 233.2 214.626 276.488 276.338 276.871 270.375 248.816 
360.779 331.411 291.452 304.195 294.282 286.047 300.33 330.374 291.316 
264.485 247.562 224.941 200.622 208.979 231.001 246.342 259.584 261.624 
235.322 254.366 234.303 201.868 209.518 218.095 219.798 201.227 234.894 
215.765 237.106 233.937 233.937 220.043 215.722 213.866 232.897 227.675 
234.303 234.558 242.993 269.964 269.964 283.178 273.51 273.51 278.353 
296.34 296.34 311.86 311.86 345.013 328.932 328.932 311.982 285.187 
285.187 309.896 326.283 311.699 294.471 290.495 290.495 270.618 270.618 
267.015 264.925 264.925 286.632 281.873 277.274 281.245 263.935 238.986 
247.162 258.58 264.927 260.735 252.753 262.72 279.001 298.857 326.546 
253.698 229.171 210.864 211.949 215.465 218.084 228.212 253.815 266.003 
261.441 202.218 189.785 208.324 201.879 215.017 258.337 287.751 304.862 
272.551 277.097 272.539 257.056 255.389 255.656 261.243 266.833 256.449 
271.13 294.096 236.155 234.202 226.663 244.147 237.618 260.954 254.377 
219.849 197.857 222.468 218.556 323.418 341.259 286.472 315.829 296.196 
300.941 275.973 226.468 222.414 223.945 232.448 233.047 249.766 263.514 
281.338 273.322 224.18 206.781 272.893 296.13 314.105 328.136 344.498 
354.228 307.116 317.901 294.853 257.081 239.506 238.064 233.589 260.7 
248.827 251.191 285.342 285.342 326.355 339.41 339.41 333.41 328.866 
339.605 322.136 315.683 308.46 322.837 312.274 234.815 219.098 186.393 
147.837 144.196 153.82 159.608 163.205 188.063 212.522 218.28 236.075 
261.626 292.185 280.219 263.853 261.076 329.272 312.823 295.264 329.597 
338.507 323.588 291.198 300.066 299.829 209.011 209.011 231.991 255.445 
264.591 246.913 249.55 224.707 223.76 233.879 254.254 237.527 239.735 
179.65 179.65 224.376 240.963 242.028 280.581 280.734 280.734 301.265 
294.027 276.332 293.041 293.041 307.199 326.133 326.133 341.261 340.957 
319.514 355.002 310.826 293.204 287.995 268.734 258.034 270.684 294.413 
274.099 268.823 298.423 280.398 254.046 287.298 242.545 284.766 264.542 
274.002 270.37 263.355 236.8 245.319 217.759 223.898 203.192 185.852 
187.329 204.155 190.396 212.881 219.096 226.792 217.959 241.809 253.9 
253.259 293.633 301.93 283.54 281.13 221.561 270.499 256.018 236.902 
205.563 212.747 216.246 228.294 209.951 209.951 252.166 239.892 281.027 
273.89 271.424 272.782 270.13 280.268 255.142 249.206 249.206 244.332 
248.605 265.736 272.903 272.903 294.693 290.794 277.676 230.388 309.334 
251.367 232.324 225.749 244.298 260.149 271.4 281.604 279.174 244.011 
254.024 227.619 303.256 289.122 257.001 268.524 268.524 260.266 239.189 
239.189 226.815 251.166 235.512 258.997 282.811 264.073 260.125 271.133 
270.13 270.437 284.566 235.463 237.514 246.323 243.612 251.643 246.877 
229.011 227.556 203.178 198.896 226.526 201.629 210.523 197.917 234.192 
234.192 252.937 248.357 256.932 235.396 231.562 251.304 231.902 219.192 
228.268 212.378 223.166 224.125 210.389 209.034 226.61 260.31 281.479 
245.636 214.406 344.896 322.26 314.367 302.554 274.605 287.267 290.024 
289.206 279.124 235.912 247.977 257.969 252.683 254.732 255.368 273.228 
264.325 298.16 308.146 338.724 309.702 212.308 211.066 231.474 256.054 
276.979 307.303 296.203 270.121 251.512 253.191 252.156 272.004 313.69 
294.888 283.088 283.088 299.21 330.272 367.546 332.891 362.092 355.11 
329.837 329.837 317.524 330.22 308.698 299.37 278.052 264.697 245.571 
246.553 246.553 266.176 266.176 289.01 321.29 308.686 294.604 227.931 
243.855 265.931 234.337 234.337 211.425 200.448 258.371 228.608 256.349 
258.257 262.196 266.463 255.924 234.823 267.711 272.627 260.202 213.909 
235.276 237.055 237.362 235.679 234.602 214.716 220.973 228.838 266.545 
266.545 275.374 311.484 328.121 286.252 254.437 253.365 225.64 260.851 
276.12 264.177 227.105 246.456 239.02 281.579 300.847 309.707 325.149 
266.494 247.591 247.591 295.194 280.991 264.436 266.243 245.881 314.53 
301.028 286.312 347.068 319.133 254.223 243.388 265.966 289.996 342.206 
351.424 339.423 362.657 357.965 305.154 308.653 288.805 289.285 289.285 
265.856 267.294 271.226 269.158 286.837 271.67 273.162 251.703 259.274 
235.508 232.977 240.535 249.931 249.931 235.675 270.709 279.7 279.085 
314.141 333.527 326.322 277.559 277.559 215.904 240.495 230.079 240.318 
240.318 255.047 289.623 289.623 287.727 278.366 278.366 263.755 272.868 
292.389 283.182 283.182 273.169 253.416 247.979 250.752 267.606 306.582 
314.125 314.125 323.046 302.215 302.215 279.272 279.272 244.208 231.505 
250.779 233.933 215.643 215.643 192.41 209.835 209.835 225.468 225.468 
252.818 262.074 289.91 300.786 288.687 304.315 286.344 250.552 216.448 
214.1 215.985 234.427 227.33 246.727 241.607 243.961 248.122 265.893 
264.941 258.32 276.25 250.83 228.579 236.146 255.104 239.953 256.88 
288.752 288.752 300.355 330.568 312.804 357.579 179.332 187.227 204.244 
225.945 262.06 280.673 298.827 290.002 281.87 260.237 263.082 279.244 
237.042 228.833 221.654 216.018 310.596 316.485 316.485 316.844 302.86 
311.796 336.37 333.672 270.415 270.415 254.021 239.381 261.259 245.976 
248.769 277.704 272.947 301.747 289.585 303.885 303.885 307.186 274.676 
290.866 266.225 252.423 290.004 239.313 243.262 246.086 293.04 305.104 
326.249 325.964 315.096 319.246 347.713 334.169 297.868 287.707 252.601 
241.615 241.419 243.336 294.125 304.105 324.721 366.46 376.588 311.953 
348.972 365.757 272.151 307.542 272.773 265.506 246.714 234.357 257.54 
269.958 236.286 276.647 269.953 252.555 263.699 263.699 295.57 302.444 
313.448 285.909 261.472 237.805 338.358 358.967 338.746 321.385 359.783 
253.394 264.404 255.421 250.593 240.829 257.338 235.414 245.666 258.677 
261.04 275.466 267.915 286.272 294.262 293.375 311.128 284.216 268.669 
289.235 251.703 267.813 296.401 308.935 279.962 292 293.998 303.338 
275.832 304.134 308.689 317.086 310.981 311.734 225.275 232.306 228.329 
215.485 210.691 221.174 214.033 229.831 241.842 260.13 260.77 293.301 
305.85 302.046 291.598 293.058 245.117 230.271 246.235 204.117 209.924 
196.093 215.577 215.577 243.619 258.075 258.075 299.767 322.669 316.026 
305.726 304.986 272.437 244.87 293.413 
FIELD FieldData 7
DY_minmax 1 923 double
0.430993 0.706064 0.483741 0.929725 0.358586 0.872129 0.416641 0.481767 1 
0.422906 0.515935 0.393912 0.690975 0.421727 0.38094 0.606927 0.383209 0.138651 
0.696524 0.391704 0.60752 0.500326 0.564364 0.408946 0.456783 0.27931 0.516898 
0.267465 0.375792 0.845966 0.401351 0.764202 0.266729 0.544151 0.274063 0.24512 
0.184017 0.552988 0.752619 0.577132 0.71262 0.214233 0.366596 0.389659 0.274764 
0.244337 0.665709 0.487069 0.273827 0.463418 0.490422 0.354231 0.723391 0.332437 
0.496774 0.431805 0.503092 0.557839 0.595856 0.598969 0.446221 0.433872 0.448788 
0.492477 0.52485 0.637983 0.609419 0.506984 0.497421 0.543953 0.5427 0.364146 
0.416629 0.435535 0.430134 0.457635 0.47003 0.376597 0.371244 0.464138 0.406242 
0.435909 0.467152 0.508077 0.327359 0.282409 0.308029 0.240808 0.183651 0.198652 
0.2057 0.533019 0.453412 0.406944 0.522573 0.545977 0.367157 0.327305 0.365501 
0.503092 0.524276 0.511563 0.475288 0.490892 0.539113 0.415562 0.476232 0.524565 
0.355927 0.432444 0.468714 0.431179 0.414025 0.399235 0.379844 0.33522 0.429172 
0.512185 0.332437 0.272366 0.333624 0.360113 0.310882 0.306397 0.29361 0.723391 
0.611818 0.475402 0.438697 0.38363 0.400015 0.400015 0.434925 0.524257 0.466478 
0.527974 0.611154 0.606181 0.509642 0.617108 0.634927 0.643318 0.643318 0.493735 
0.388179 0.435287 0.4469 0.636367 0.579952 0.49752 0.49752 0.438636 0.274764 
0.459571 0.36896 0.597138 0.558894 0.516371 0.463418 0.383623 0.372074 0.426125 
0.343007 0.36926 0.351219 0.277923 0.522037 0.521445 0.523546 0.497914 0.412841 
0.854656 0.738766 0.581085 0.631371 0.592253 0.559757 0.616117 0.734675 0.580549 
0.474669 0.40789 0.318626 0.222663 0.255641 0.342541 0.403075 0.455331 0.463382 
0.359591 0.434741 0.355571 0.227578 0.257766 0.291613 0.298332 0.22505 0.357901 
0.282419 0.366633 0.354128 0.354128 0.299299 0.28225 0.274923 0.350023 0.329415 
0.355569 0.356576 0.389862 0.496291 0.496291 0.548437 0.510285 0.510285 0.529395 
0.600374 0.600374 0.661618 0.661618 0.792441 0.728983 0.728983 0.662098 0.556363 
0.556363 0.653868 0.718529 0.66098 0.592999 0.577308 0.577308 0.498872 0.498872 
0.484655 0.476406 0.476406 0.562063 0.543287 0.525138 0.540807 0.472502 0.374051 
0.406313 0.451369 0.476415 0.459871 0.428376 0.467708 0.531951 0.610304 0.71957 
0.432104 0.335319 0.263076 0.267359 0.281234 0.29157 0.331536 0.432565 0.480662 
0.46266 0.228962 0.1799 0.253053 0.227621 0.279467 0.450412 0.566479 0.634003 
0.506499 0.524438 0.506452 0.445354 0.438776 0.439831 0.461877 0.483938 0.442961 
0.500891 0.591519 0.36288 0.355171 0.325424 0.394414 0.368651 0.460738 0.434782 
0.298535 0.211753 0.308868 0.29343 0.707226 0.777627 0.561434 0.67728 0.599803 
0.618529 0.520004 0.324651 0.308655 0.314696 0.348251 0.350613 0.416587 0.470839 
0.541174 0.509543 0.315625 0.246965 0.507848 0.599545 0.670477 0.725844 0.790409 
0.828803 0.642895 0.685455 0.594507 0.445453 0.376101 0.370413 0.352754 0.459737 
0.412885 0.422212 0.556973 0.556973 0.718813 0.77033 0.77033 0.746655 0.728725 
0.771102 0.702167 0.676701 0.648198 0.704934 0.663251 0.35759 0.295569 0.166512 
0.0143674 0 0.0379761 0.0608164 0.0750097 0.173104 0.26962 0.292341 0.362564 
0.463389 0.583975 0.53676 0.472177 0.461219 0.730327 0.665415 0.596128 0.731609 
0.766769 0.707895 0.580084 0.615076 0.614142 0.255767 0.255767 0.346449 0.438998 
0.47509 0.40533 0.415736 0.317705 0.313968 0.353897 0.434299 0.368293 0.377005 
0.139907 0.139907 0.316396 0.381851 0.386052 0.538188 0.538792 0.538792 0.619809 
0.591247 0.52142 0.587356 0.587356 0.643225 0.717938 0.717938 0.777635 0.776437 
0.691821 0.83186 0.657538 0.587998 0.567442 0.491437 0.449216 0.499132 0.592767 
0.512609 0.491789 0.608594 0.537465 0.433477 0.564695 0.388095 0.554701 0.474896 
0.512226 0.497895 0.470211 0.365422 0.39904 0.290286 0.31451 0.232804 0.16438 
0.170207 0.236605 0.182309 0.271039 0.295561 0.325932 0.291077 0.385191 0.432901 
0.43037 0.589689 0.62243 0.549861 0.540354 0.30529 0.498402 0.441261 0.365825 
0.242158 0.270507 0.284315 0.331858 0.259475 0.259475 0.426058 0.377626 0.539947 
0.511784 0.502053 0.507412 0.496945 0.536953 0.437803 0.414378 0.414378 0.395145 
0.412006 0.479607 0.50789 0.50789 0.593872 0.578488 0.526722 0.34012 0.651648 
0.422907 0.347762 0.321814 0.39501 0.457561 0.501957 0.542224 0.532634 0.393878 
0.433389 0.329193 0.627663 0.571891 0.445137 0.49061 0.49061 0.458021 0.374852 
0.374852 0.326023 0.422111 0.360341 0.453016 0.546986 0.473044 0.457466 0.500905 
0.496946 0.498158 0.55391 0.360147 0.368242 0.403003 0.392305 0.423994 0.405189 
0.334689 0.328945 0.232748 0.215851 0.324882 0.226634 0.261733 0.211988 0.355131 
0.355131 0.429101 0.411029 0.444865 0.359882 0.344755 0.422658 0.346097 0.295942 
0.331757 0.269054 0.311621 0.315408 0.261202 0.255858 0.325214 0.458196 0.541731 
0.400291 0.277055 0.79198 0.702657 0.671511 0.624895 0.514606 0.564572 0.575449 
0.57222 0.532439 0.361919 0.409529 0.448957 0.4281 0.436183 0.438694 0.50917 
0.47404 0.607556 0.64696 0.767624 0.6531 0.268777 0.263875 0.344405 0.4414 
0.523972 0.643633 0.599832 0.49691 0.42348 0.430105 0.426018 0.504341 0.668837 
0.594643 0.548078 0.548078 0.611699 0.734273 0.881357 0.744606 0.859838 0.832283 
0.732555 0.732555 0.683968 0.734066 0.64914 0.612329 0.528206 0.475508 0.400036 
0.403911 0.403911 0.481343 0.481343 0.571448 0.698828 0.649093 0.593524 0.330427 
0.393261 0.480378 0.355702 0.355702 0.265291 0.221976 0.450546 0.333099 0.442566 
0.450096 0.465636 0.482476 0.44089 0.35762 0.487402 0.506799 0.457771 0.275093 
0.35941 0.366428 0.367641 0.361001 0.356748 0.27828 0.302968 0.334006 0.482799 
0.482799 0.51764 0.660133 0.725783 0.560565 0.435021 0.430791 0.321383 0.460329 
0.520584 0.473457 0.327168 0.403529 0.374183 0.542126 0.618158 0.653122 0.714055 
0.482599 0.408006 0.408006 0.595852 0.539803 0.474478 0.481607 0.401257 0.672153 
0.618874 0.560803 0.800549 0.690316 0.434176 0.39142 0.480513 0.57534 0.781364 
0.817739 0.770383 0.862065 0.84355 0.635152 0.64896 0.570641 0.572535 0.572535 
0.480081 0.485756 0.501273 0.49311 0.562873 0.503021 0.508909 0.424234 0.454106 
0.360325 0.350336 0.380161 0.41724 0.41724 0.360983 0.499232 0.53471 0.532285 
0.670617 0.747117 0.718684 0.52626 0.52626 0.282966 0.380003 0.3389 0.379305 
0.379305 0.437426 0.573866 0.573866 0.566385 0.529447 0.529447 0.47179 0.507752 
0.584783 0.548451 0.548451 0.50894 0.430993 0.409537 0.420481 0.486985 0.640787 
0.670552 0.670552 0.705758 0.623556 0.623556 0.53302 0.53302 0.394655 0.344528 
0.420586 0.35411 0.281936 0.281936 0.190256 0.259016 0.259016 0.320707 0.320707 
0.42863 0.465156 0.575001 0.617917 0.570174 0.631844 0.56093 0.419688 0.285111 
0.275847 0.283285 0.356061 0.328053 0.404596 0.384394 0.39368 0.410099 0.480225 
0.476471 0.450343 0.521097 0.420788 0.332984 0.362844 0.437654 0.377865 0.444662 
0.570429 0.570429 0.616216 0.73544 0.665341 0.842027 0.138651 0.169804 0.236955 
0.322587 0.465103 0.53855 0.610187 0.575363 0.543273 0.457909 0.469135 0.532912 
0.366378 0.333985 0.305655 0.283414 0.656628 0.679866 0.679866 0.681285 0.6261 
0.661363 0.758336 0.747689 0.498072 0.498072 0.433378 0.375609 0.461942 0.401631 
0.412655 0.526836 0.508064 0.621711 0.573719 0.630145 0.630145 0.64317 0.514887 
0.578774 0.481538 0.427074 0.57537 0.375342 0.390923 0.402068 0.587353 0.634957 
0.718397 0.71727 0.674385 0.690764 0.803096 0.74965 0.606405 0.566308 0.427774 
0.384424 0.383651 0.391216 0.591633 0.631013 0.712366 0.877073 0.917038 0.661984 
0.808062 0.8743 0.504923 0.644577 0.507374 0.478699 0.404546 0.355782 0.447266 
0.496268 0.363396 0.522662 0.496247 0.427593 0.471568 0.471568 0.597333 0.62446 
0.667884 0.559211 0.462782 0.369389 0.766179 0.847504 0.76771 0.699203 0.850724 
0.430903 0.474353 0.438902 0.41985 0.381323 0.446468 0.359954 0.40041 0.45175 
0.461075 0.518001 0.488205 0.560643 0.592174 0.588673 0.658728 0.552531 0.491182 
0.572336 0.424232 0.487803 0.600616 0.650075 0.535743 0.583247 0.591131 0.627988 
0.519448 0.631129 0.649103 0.682238 0.658149 0.661118 0.319944 0.347691 0.331995 
0.281312 0.262394 0.30376 0.275585 0.337923 0.385318 0.457486 0.460011 0.588379 
0.637902 0.622889 0.58166 0.58742 0.398242 0.339659 0.402655 0.236453 0.259369 
0.204791 0.281677 0.281677 0.39233 0.449376 0.449376 0.613896 0.704271 0.678057 
0.637412 0.634493 0.506051 0.397267 0.588824 
WidthEq 1 923 double
2.77661 3.02218 3.26605 1.83955 3.11314 3.09736 3.39138 2.88264 1.01063 
3.76425 3.53354 3.6254 1.00767 4.42241 4.43363 2.22029 3.47892 4.89019 
2.10313 3.81085 3.46173 3.32687 2.43176 2.79623 2.69257 3.662 3.56137 
3.75264 2.64518 2.54631 3.29863 2.28543 3.3614 2.88316 2.0082 3.85229 
2.98565 2.34472 2.41937 2.00488 2.67422 3.42255 2.94882 2.84557 3.52399 
3.63268 1.81398 2.86189 1.92051 2.18347 2.84512 2.52197 1.56508 2.36831 
2.6504 2.18718 2.54119 1.90424 1.98268 1.46791 2.47357 2.3346 1.78616 
2.29819 2.14454 1.85231 1.84246 2.46371 2.70685 1.8545 1.8512 2.41922 
2.32211 2.39119 2.38354 2.37277 2.43967 2.68173 2.87067 2.94832 2.49085 
2.70499 2.85688 1.72913 2.29029 2.65879 2.69851 2.98395 2.77477 2.78937 
2.45405 2.80895 2.82232 2.87184 1.89748 1.91169 1.9954 2.22404 2.50819 
2.54119 2.5885 2.6509 2.80798 2.82115 2.73364 2.24531 2.68656 2.55512 
2.31789 2.09973 2.06699 1.89024 1.74464 1.66928 1.71545 1.88473 1.96267 
1.99567 2.36831 2.52305 2.5972 2.62084 2.77676 2.93095 3.2013 1.56508 
1.87023 2.11761 2.17547 2.19187 2.11527 2.11527 2.01742 1.91318 2.01902 
1.84745 1.78207 1.89659 1.97879 1.91356 1.94987 1.90158 1.90158 2.02126 
2.12032 2.11096 2.37931 2.14704 2.36364 2.7385 2.7385 3.03908 3.52399 
2.54416 2.69541 2.50108 2.52952 2.70798 2.18347 2.6144 2.82184 2.80431 
3.50247 3.22623 3.36221 3.42781 2.54954 2.38283 2.36019 2.37895 2.51193 
1.51885 1.48063 1.59288 1.58812 1.67247 1.82217 1.92311 1.89306 2.20347 
2.47904 2.6342 2.7236 2.58201 2.45124 2.39916 2.3199 2.51737 2.94605 
3.37503 3.15918 3.23085 3.67482 3.46786 3.50034 3.63401 3.91746 3.08918 
3.16375 2.88751 2.59329 2.59329 2.52922 2.65702 2.71221 2.51544 2.43794 
2.38084 2.29755 2.23351 2.04879 2.04879 1.87552 1.89908 1.89908 1.80579 
1.83829 1.83829 1.87891 1.87891 1.72457 1.71038 1.71038 1.66858 1.50802 
1.50802 1.47145 1.47139 1.46465 1.63394 1.71341 1.71341 1.89972 1.89972 
2.0089 1.98048 1.98048 1.83988 2.03094 1.93732 2.06712 2.1698 2.28364 
2.30552 2.43862 2.56749 2.57399 2.57998 2.25958 2.16956 1.96123 1.94394 
2.47455 2.92174 3.65809 3.95264 4.10316 3.96291 3.6753 3.34475 3.26266 
3.69382 3.41471 3.36231 3.23405 2.69488 2.35352 2.14699 1.8917 2.08136 
2.8053 2.76375 2.83295 2.9029 2.9946 2.96534 2.78878 2.73822 2.77719 
2.66617 2.97004 3.40228 3.29049 3.07821 2.98381 2.97338 3.36223 2.67363 
2.95897 2.90142 3.31143 3.57437 3.15263 2.75793 2.79946 2.45518 2.55402 
2.38043 2.28261 2.43486 3.541 3.27839 3.19081 3.03106 2.81195 2.77142 
2.66099 2.74467 3.04424 3.33749 3.1487 2.7891 2.35545 2.13648 1.97327 
2.04105 2.36236 1.84516 1.89602 1.94292 2.1756 2.53678 2.44762 2.53957 
2.61466 2.50076 2.18947 2.18947 2.00723 1.88474 1.88474 1.93128 1.99409 
2.00232 2.31367 2.27117 2.45224 2.68339 2.75536 3.24548 3.37711 3.09641 
2.9086 2.76262 2.74431 2.60663 2.4055 2.24663 2.35782 2.28797 2.50614 
2.35358 2.34622 2.51852 2.80087 2.75279 2.20264 2.24727 2.34386 2.27107 
2.03723 1.91978 1.97363 1.97799 2.07467 2.70372 2.70372 2.32016 2.09853 
2.05588 1.98944 2.04792 2.1017 2.35707 2.40769 2.67279 3.13429 3.36183 
2.93792 2.93792 2.47196 2.15949 2.32415 1.90775 2.00701 2.00701 1.99551 
2.05215 2.21837 2.1387 2.1387 2.07122 1.96815 1.96815 1.79449 1.6834 
1.69231 1.44939 1.49488 1.51426 1.40047 1.42203 1.47824 1.66895 1.63138 
1.88019 1.91594 1.96579 1.9719 2.03033 1.94939 1.97084 1.9688 2.05585 
2.05381 2.16902 2.33327 2.6573 2.63656 2.81866 2.75705 2.90133 2.85779 
2.68676 2.76935 3.00095 2.88441 2.97933 2.91552 2.82015 2.61693 2.47439 
2.45207 2.32119 2.27102 2.27537 2.3393 3.2409 2.90932 2.71613 2.69892 
3.26644 3.39934 3.71816 3.75327 2.44113 2.44113 2.82754 2.88324 2.78933 
2.88509 2.8028 2.52644 2.43778 2.27563 2.36354 2.34191 2.34191 2.48886 
2.63675 2.56032 2.63082 2.63082 2.38465 2.30836 2.37921 2.80257 2.8573 
2.81913 2.98199 3.15306 3.05008 2.8183 2.60943 2.36913 2.34305 2.31272 
2.28765 2.63976 2.9576 3.08028 3.26812 3.16499 3.16499 3.06109 2.91818 
2.91818 2.73614 2.3654 2.4169 2.1848 2.11759 2.29868 2.63838 2.8171 
2.77873 3.36739 3.30844 2.54931 2.39652 2.29482 2.2294 2.21234 2.20295 
2.26097 2.35871 2.59643 2.66953 2.54884 2.71478 2.62474 2.64206 2.44081 
2.44081 2.37339 2.27659 2.22121 2.47319 2.54933 2.57516 2.85503 3.04992 