# vtk DataFile Version 3.0
vtk output
ASCII
DATASET POLYDATA
POINTS 687 float
5.76466 -0.546419 0.526766 6.1708 0.168189 0.189736 5.85201 -0.266883 0.139654 
5.75316 -0.344124 -0.714403 1.41343 -1.0412 1.05354 3.63365 -0.0392187 0.0413681 
3.44849 0.27733 0.262031 1.28544 -0.999145 0.65734 4.85113 -0.177114 -0.792442 
4.33443 0.350216 -0.332874 1.88229 0.830005 0.960661 5.15897 0.177922 -1.16528 
4.62029 0.441772 -0.733083 4.4237 0.0930539 -0.720719 4.33899 0.154661 -0.656274 
4.40688 0.408428 -0.574923 3.98656 0.350337 -0.414765 1.63341 -1.63668 -0.247239 
3.7053 0.392759 -0.684214 1.6662 -1.48236 -0.508134 0.156452 -0.387853 0.560353 
3.69511 0.254395 -0.987789 2.96262 -0.742659 -1.47277 3.15799 1.17874 -1.0989 
1.33733 -1.1429 -0.920723 -0.0825363 -0.642414 0.00450654 3.53469 0.222722 -1.68472 
3.23333 0.987539 -1.21606 0.248993 1.36934 0.269536 1.45251 -0.782802 -1.52037 
0.62543 -1.21866 -1.26777 -0.511176 -0.439389 -0.580927 0.752194 -0.957432 -1.44474 
0.64996 1.8755 -0.156662 -0.638915 0.892677 -0.254202 -0.887782 0.563123 -0.524464 
1.79496 1.96959 -0.856686 -0.844099 0.236081 -0.754551 2.44708 1.54822 -1.56517 
1.3706 -0.772056 -2.01319 1.45899 1.81874 -1.0886 -0.216448 -0.661138 -1.43664 
1.1564 1.96077 -1.40308 -0.110361 -0.492834 -1.8023 -0.535243 0.755897 -1.06677 
0.183901 -0.188551 -2.19141 0.427418 1.93503 -1.2102 -0.256485 -0.305981 -1.89137 
0.19354 1.94345 -1.10322 -0.593412 0.515015 -1.38235 -0.35843 0.172095 -1.87218 
-0.494449 1.22406 -1.50762 -0.57335 0.94478 -1.43825 1.60289 1.04936 -2.58913 
0.329177 1.89137 -1.73569 1.23411 1.03437 -2.66842 -0.50884 0.634643 -2.07399 
0.604932 1.11781 -2.58951 -1.49145 0.398375 -2.68602 -1.51344 0.505308 -2.6294 
-1.51281 0.452986 -2.65263 0.555759 1.12313 -2.56546 0.506136 1.12678 -2.54194 
0.454047 1.12121 -2.52138 0.400969 1.09879 -2.49904 0.356732 1.08315 -2.46019 
0.318052 1.062 -2.40876 0.276055 1.02846 -2.36131 0.229044 1.01557 -2.32874 
0.173697 1.01097 -2.31504 0.106706 1.00226 -2.32418 0.0430015 1.00583 -2.32938 
-0.0184016 1.00486 -2.32886 -0.074899 0.969667 -2.31062 -0.122732 0.914314 -2.27016 
-0.159789 0.859807 -2.2079 -0.18789 0.825628 -2.13195 -0.215991 0.791449 -2.056 
-0.255896 0.739577 -2.00006 -0.31334 0.690056 -1.97897 -0.397972 0.657567 -2.00819 
-0.50922 0.57011 -1.87527 -0.508286 0.492276 -1.70915 -0.513704 0.442434 -1.58028 
-0.532161 0.431418 -1.48972 -0.560092 0.463579 -1.42837 -0.489458 0.531028 -2.04076 
-0.470509 0.440898 -1.99268 -0.448228 0.354822 -1.93559 -0.41587 0.267562 -1.89218 
0.252561 1.83441 -1.72393 0.190126 1.77976 -1.70287 0.135883 1.72468 -1.674 
0.0795919 1.67288 -1.6515 0.0196453 1.6248 -1.6374 -0.0430797 1.57947 -1.62958 
-0.105804 1.53414 -1.62176 -0.168529 1.48882 -1.61394 -0.231254 1.44349 -1.60613 
-0.293126 1.39721 -1.59619 -0.353529 1.34771 -1.5796 -0.417317 1.29077 -1.55023 
1.28654 1.02807 -2.68561 1.34703 1.0255 -2.68728 1.4208 1.03094 -2.66513 
1.5038 1.03104 -2.63194 -0.479629 1.12422 -1.48236 -0.496676 1.05035 -1.45488 
-0.525006 0.993397 -1.44409 0.362371 1.91057 -1.54704 0.404666 1.91981 -1.37844 
0.414307 1.87409 -1.74305 0.491335 1.88855 -1.73583 0.56319 1.90638 -1.72193 
0.6334 1.89623 -1.70213 0.702522 1.87347 -1.68156 0.768861 1.85347 -1.66728 
0.82976 1.85256 -1.66841 0.895458 1.87652 -1.6651 0.970587 1.89638 -1.63721 
1.05853 1.90622 -1.55393 1.69192 1.08705 -2.50721 1.76149 1.12324 -2.46099 
1.80081 1.16999 -2.44911 1.84499 1.21497 -2.44016 1.89291 1.25213 -2.41012 
1.96985 1.27371 -2.35611 2.05815 1.28985 -2.30076 2.14558 1.2965 -2.24921 
2.22611 1.29013 -2.20904 2.30744 1.28674 -2.16793 2.38177 1.27034 -2.13815 
2.45081 1.24729 -2.11767 2.51337 1.22628 -2.11089 2.57286 1.19419 -2.10762 
2.62116 1.14005 -2.1178 2.65587 1.0761 -2.12628 2.66034 1.01855 -2.13606 
2.65136 0.964837 -2.14693 2.63511 0.916833 -2.16954 2.6131 0.874367 -2.20463 
2.58113 0.840356 -2.25778 2.53736 0.810105 -2.31281 2.48113 0.778878 -2.35402 
2.43656 0.740737 -2.37725 2.382 0.710844 -2.38372 2.31983 0.700373 -2.38703 
2.2437 0.696551 -2.41616 2.16132 0.709148 -2.46151 2.07418 0.730229 -2.51847 
1.99573 0.770669 -2.56207 1.91478 0.801783 -2.60865 1.83975 0.855008 -2.64814 
1.76546 0.911239 -2.68663 1.70347 0.965291 -2.69661 1.65082 1.00254 -2.66574 
-0.614702 0.921615 -1.5174 -0.642168 0.884658 -1.56511 -0.652969 0.831145 -1.57509 
-0.647106 0.761079 -1.54735 -0.632913 0.682738 -1.50074 -0.613162 0.598877 -1.44155 
-0.551433 0.861043 -1.24908 -0.514374 1.26951 -1.40327 -0.533963 1.3093 -1.31607 
-0.557204 1.33944 -1.24314 -0.581469 1.35041 -1.16945 -0.601209 1.36062 -1.08644 
-0.622387 1.35232 -1.0022 -0.646084 1.3346 -0.92097 -0.670617 1.3134 -0.840915 
-0.690992 1.27533 -0.752641 -0.693528 1.19338 -0.639135 -0.664168 1.06309 -0.473679 
-0.355194 0.0947838 -1.90753 -0.359921 0.0318215 -1.92434 -0.362565 -0.0287878 -1.92359 
-0.348686 -0.0973517 -1.90745 -0.316808 -0.170293 -1.89244 -0.290688 -0.240143 -1.88228 
-0.283347 0.174207 -1.90442 -0.230525 0.163892 -1.941 -0.19501 0.142255 -1.99235 
-0.165427 0.142299 -2.05775 -0.136678 0.152626 -2.127 -0.107192 0.152549 -2.19241 
-0.0735394 0.128628 -2.24394 -0.0330844 0.10386 -2.2814 0.0120206 0.0660429 -2.30628 
0.0680098 0.0207997 -2.30433 0.129338 -0.0650021 -2.26435 0.240366 -0.212226 -2.25582 
0.289415 -0.249791 -2.29396 0.348953 -0.295504 -2.29087 0.41717 -0.370045 -2.26064 
0.497465 -0.468568 -2.19972 0.58498 -0.579322 -2.11245 0.662753 -0.69708 -1.98905 
0.700642 -0.804012 -1.82584 0.726694 -0.886363 -1.63788 1.21122 1.8609 -1.47838 
1.28257 1.83388 -1.45049 1.36491 1.82656 -1.30684 -0.613833 0.443855 -1.2824 
-0.636494 0.390594 -1.19105 -0.667994 0.330567 -1.11621 -0.702728 0.275943 -1.0488 
-0.733275 0.245539 -0.971365 -0.774238 0.232518 -0.876718 0.242759 1.93805 -1.12732 
0.293288 1.93312 -1.1518 0.351829 1.93103 -1.17857 -0.18481 -0.398029 -1.84997 
-0.258861 -0.410969 -1.75024 -0.247809 -0.527678 -1.59691 0.504747 1.99028 -1.22012 
0.569925 2.01574 -1.229 0.638475 2.04109 -1.22199 0.71399 2.05525 -1.19678 
0.786003 2.0433 -1.17274 0.852316 2.0232 -1.1585 0.90982 2.0096 -1.16369 
0.961745 2.00142 -1.18148 1.00958 1.99726 -1.20879 1.05448 1.99526 -1.24696 
1.1001 1.98809 -1.30951 0.155443 -0.293229 -2.07062 0.126819 -0.379198 -1.97354 
0.0931115 -0.440757 -1.90131 0.0528149 -0.476566 -1.84978 0.00237781 -0.515398 -1.81836 
-0.0558079 -0.530613 -1.80806 -0.104063 -0.604164 -1.63869 -0.114545 -0.684017 -1.51495 
-0.152325 -0.699051 -1.45251 -0.852233 0.689196 -0.511025 -0.842036 0.760558 -0.466774 
-0.811138 0.795784 -0.39516 -0.747469 0.83248 -0.319919 -0.831971 0.532883 -0.675817 
-0.811279 0.497199 -0.772904 -0.814265 0.445116 -0.804412 -0.822742 0.361667 -0.789915 
-0.791925 0.0984786 -0.76193 -0.766247 0.0114982 -0.771547 -0.738009 -0.0497267 -0.800904 
-0.701429 -0.110187 -0.829463 -0.651467 -0.19149 -0.805768 -0.592686 -0.301215 -0.714087 
1.30854 1.90088 -1.22897 -0.885771 0.393612 -0.460113 -0.869588 0.285709 -0.421119 
-0.856264 0.229369 -0.45296 -0.862158 0.215914 -0.565962 -0.270135 -0.640223 -1.36594 
-0.310851 -0.610933 -1.30893 -0.353727 -0.581774 -1.27429 -0.396974 -0.532165 -1.24796 
-0.441853 -0.471372 -1.22764 -0.480894 -0.428176 -1.19144 -0.515456 -0.420801 -1.13804 
-0.534915 -0.440049 -1.04773 -0.541049 -0.459851 -0.928646 -0.529143 -0.46 -0.768186 
1.53619 1.86418 -1.06495 1.59088 1.90504 -1.03628 1.65619 1.9384 -1.00395 
1.72876 1.9626 -0.94395 1.39782 -0.77912 -1.79272 1.3973 -0.731235 -2.15686 
1.43936 -0.696935 -2.23165 1.48949 -0.665929 -2.26636 1.54048 -0.645128 -2.29284 
1.59126 -0.618163 -2.3209 1.63555 -0.602331 -2.35968 1.68307 -0.587569 -2.39164 
1.74234 -0.555134 -2.40359 1.81242 -0.521747 -2.39372 1.88884 -0.504074 -2.36737 
1.96432 -0.503052 -2.33917 2.04076 -0.485278 -2.31279 2.11412 -0.452769 -2.29602 
2.18793 -0.41858 -2.27872 2.27007 -0.392667 -2.24255 2.36007 -0.376815 -2.18808 
2.45545 -0.380235 -2.11829 2.55139 -0.41595 -2.03999 2.66554 -0.485454 -1.91585 
2.80565 -0.593958 -1.72322 2.4962 1.54269 -1.58929 2.54487 1.53548 -1.61395 
2.59107 1.51905 -1.64156 2.63631 1.48588 -1.66737 2.69923 1.45294 -1.65726 
2.79906 1.39691 -1.56887 2.95329 1.30053 -1.37389 -0.494723 0.894882 -0.0900587 
-0.38193 0.88636 0.0658012 -0.273234 0.878913 0.189039 -0.16607 0.873845 0.287812 
-0.0731781 0.854972 0.360669 -0.00258269 0.787127 0.421877 0.0441794 0.701716 0.477186 
0.0973783 0.609458 0.535366 0.143131 0.520272 0.589466 0.206732 0.426665 0.64246 
0.274958 0.334998 0.685545 0.335781 0.244151 0.732248 0.373202 0.163242 0.767484 
0.409588 0.0873526 0.787923 0.434171 0.0176727 0.798843 0.467681 -0.0554454 0.813039 
0.494948 -0.127878 0.830306 0.523954 -0.198046 0.839057 0.529358 -0.258251 0.83643 
0.515681 -0.308994 0.820208 0.47947 -0.348295 0.786965 0.403765 -0.371579 0.734562 
0.294584 -0.381834 0.656131 1.87791 1.93462 -0.795226 1.95405 1.90134 -0.764936 
2.01761 1.88129 -0.758173 2.07787 1.86467 -0.757176 2.14323 1.84101 -0.744075 
2.20936 1.80705 -0.727092 2.27142 1.77109 -0.717934 2.33264 1.77137 -0.718677 
2.38978 1.76954 -0.72726 2.44723 1.75574 -0.732517 2.5101 1.72276 -0.722404 
2.57153 1.67124 -0.711047 2.6342 1.6244 -0.698202 2.69237 1.57387 -0.693716 
2.75502 1.52693 -0.680903 2.81597 1.47364 -0.670118 2.87587 1.42956 -0.663563 
2.92894 1.38622 -0.671111 2.98297 1.35964 -0.680465 3.037 1.33305 -0.689819 
3.07903 1.3005 -0.722667 3.10988 1.28184 -0.788098 3.12853 1.24864 -0.915611 
-0.541906 0.746281 -0.0907851 -0.450306 0.615071 0.0467807 -0.38525 0.503746 0.152446 
-0.337377 0.406954 0.228435 -0.320307 0.323388 0.28894 -0.289025 0.243157 0.327185 
-0.25611 0.165201 0.356968 -0.206393 0.0853867 0.378525 -0.147552 0.00456459 0.395611 
-0.0861374 -0.0773938 0.413959 -0.0186533 -0.165537 0.444371 0.0615623 -0.26782 0.494948 
0.658182 1.79046 -0.0841684 0.632836 1.71894 -0.0258315 0.58585 1.65972 0.0125695 
0.534809 1.60513 0.0460631 0.491692 1.55426 0.0951361 0.45787 1.51184 0.161269 
0.420334 1.45554 0.222952 0.372478 1.40008 0.263389 0.313202 1.36765 0.275339 
[...]
POINT_DATA 687
SCALARS DY_raw double
LOOKUP_TABLE default
200.762 259.627 225.939 271.15 217.565 246.962 207.076 230.78 257.67 
375.846 297.004 198.578 233.28 352.296 274.356 275.431 278.928 377.953 
209.925 277.328 241.633 219.28 248.119 235.796 258.457 201.177 309.91 
215.718 229.418 218.715 316.825 214.203 280.32 197.659 220.184 226.825 
218.444 167.222 132.192 300.113 322.471 198.572 250.931 233.406 274.241 
237.959 234.571 219.26 201.036 203.732 197.897 230.546 264.16 257.495 
254.31 228.115 178.29 213.712 248.942 261.168 239.407 231.259 213.626 
213.626 252.513 282.49 305.231 299.113 294.28 303.027 278.841 261.057 
238.631 266.267 258.74 232.508 233.806 253.188 241.648 238.039 221.661 
197.366 221.354 236.414 208.724 219.01 186.577 188.471 166.964 176.48 
277.284 289.714 309.061 345.615 304.073 298.572 298.572 294.763 255.444 
239.551 223.393 216.317 228.115 246.125 244.538 245.978 262.288 300.096 
274.574 250.005 237.528 275.923 276.941 283.719 306.494 323.508 303.397 
303.397 296.669 292.98 291.041 268.176 278.017 291.072 248.527 245.081 
294.899 294.608 267.442 245.98 243.86 251.791 238.985 218.519 230.712 
234.356 257.129 256.725 256.725 272.099 274.972 263.771 258.524 244.612 
235.758 243.39 278.847 275.851 314.735 292.996 275.816 242.979 251.235 
252.403 253.637 249.969 235.555 202.854 202.854 185.228 188.112 198.838 
239.393 212.607 209.159 227.11 230.829 236.905 207.754 217.105 197.057 
186.172 192.816 210.173 199.016 192.945 220.139 219.662 227.357 204.741 
206.588 220.67 245.529 246.742 251.394 237.771 237.771 240.943 242.2 
240.59 234.535 233.522 241.492 229.838 207.278 211.102 225.546 258.654 
260.108 270.955 310.229 347.113 329.867 189.592 204.765 225.904 197.485 
179.642 167.722 203.185 212.353 226.569 213.143 199.054 177.134 230.48 
228.031 222.82 228.028 237.324 240.25 240.25 245.43 257.489 253.294 
256.696 233.064 244.743 268.448 283.507 283.507 275.886 217.907 203.211 
198.83 219.785 240.756 234.974 229.916 242.714 219.617 188.773 185.511 
177.826 205.572 207.935 180.07 181.135 195.547 284.704 238.009 221.965 
210.732 200.281 203.982 221.079 218.007 205.426 197.114 182.443 195.87 
187.772 196.288 206.125 276.202 252.734 208.86 206.38 214.012 294.525 
256.627 263.007 243.182 243.182 232.221 247.293 224.491 251.195 252.874 
241.446 251.296 233.47 204.902 218.699 214.475 211.037 234.969 233.792 
216.497 139.715 139.715 152.514 152.514 171.623 193.098 199.074 230.809 
245.339 240.803 225.732 221.609 233.695 236.698 235.568 231.704 232.579 
241.687 230.292 233.179 236.294 232.882 235.694 228.486 223.702 223.702 
258.372 278.505 268.082 261.693 208.62 206.789 207.122 221.616 221.616 
222.032 230.188 239.869 239.727 239.727 249.442 240.393 254.685 249.874 
210.743 219.582 195.088 194.777 194.777 190.886 195.321 198.08 205.372 
243.351 260.589 274.643 255.243 252.27 250.424 225.317 244.98 224.91 
216.373 207.856 217.053 207.077 224.716 219.794 220.324 238.96 225.486 
213.046 221.722 239.701 281.252 261.943 257.878 252.907 283.291 285.088 
277.351 289.19 245.384 224.424 208.186 219.524 238.009 215.354 234.214 
236.813 234.9 239.08 247.249 247.249 251.056 268.668 277.451 285.251 
272.017 282.762 266.488 262.486 266.657 280.979 290.489 269.387 281.017 
269.54 283.567 282.583 293.361 218.449 236.563 228.365 211.899 197.784 
238.841 261.073 262.153 259.195 309.91 269.626 245.63 209.26 200.588 
203.7 248.278 236.42 246.697 257.213 262.121 250.861 297.305 302.856 
292.282 340.371 341.51 332.937 332.937 295.148 310.567 310.567 282.479 
262.699 277.57 290.774 226.034 233.162 238.986 268.181 259.092 254.265 
197.977 208.027 209.038 218.461 230.985 226.55 233.941 228.531 237.303 
207.353 205.668 236.938 219.893 245.607 231.494 218.203 255.577 221.609 
246.797 274.045 320.517 315.021 304.352 304.352 278.925 322.913 284.991 
284.373 285.6 279.522 250.877 250.877 251.846 248.332 249.294 268.849 
323.901 294.598 336.791 297.285 268.834 290.83 273.76 282.392 282.392 
257.843 233.831 259.815 229.05 251.239 246.632 230.926 234.195 235.775 
218.059 218.059 235.226 242.207 242.207 271.977 261.08 276.406 243.175 
259.986 267.252 259.041 265.879 212.084 227.517 226.963 232.993 253.136 
221.093 235.001 234.177 240.964 234.802 230.517 230.517 230.895 223.813 
203.199 193.633 188.783 207.266 222.502 222.407 229.009 226.665 246.32 
272.168 241.499 240.043 247.525 245.913 231.58 261.019 262.84 275.258 
306.271 287.526 252.507 261.618 260.85 258.711 253.347 227.412 238.215 
244.081 206.596 225.294 241.1 243.453 250.373 262.019 322.773 322.773 
311.58 328.263 306.063 305.858 322.633 318.267 297.387 284.6 271.795 
266.799 278.097 295.327 303.999 314.259 326.337 317.268 317.268 276.225 
276.225 279.938 268.425 280.773 266.754 236.657 240.41 240.647 215.707 
223.538 193.046 207.076 253.644 228.987 232.742 239.101 270.088 271.031 
302.043 307.922 303.115 369.12 317.223 293.377 270.758 260.122 231.507 
217.665 196.733 227.581 246.983 248.265 289.377 323.951 330.41 334.609 
334.609 314.854 363.294 327.296 302.885 273.931 273.931 271.023 286.033 
257.808 290.66 312.787 286.609 294.145 292.675 317.537 306.759 342.973 
326.529 269.865 301.88 270.126 269.599 285.744 261.667 215.599 225.309 
215.102 218.579 228.257 224.59 223.579 232.809 287.351 306.503 306.226 
302.72 287.882 256.044 239.198 247.384 243.097 259.634 278.313 281.865 
317.677 296.716 296.716 254.401 225.939 188.483 200.613 189.407 191.61 
218.758 188.893 187.251 194.669 194.669 208.095 193.976 177.023 196.015 
182.12 208.881 228.745 240.873 254.157 259.129 240.24 238.087 250.165 
196.983 185.261 211.696 
FIELD FieldData 7
DY_minmax 1 687 double
0.279009 0.518531 0.381457 0.56542 0.347382 0.467 0.304702 0.401155 0.510571 
0.991429 0.670621 0.270124 0.411327 0.895601 0.578466 0.58284 0.59707 1 
0.316296 0.59056 0.445316 0.354362 0.471708 0.421564 0.513773 0.280697 0.723136 
0.339868 0.39561 0.352063 0.751271 0.333703 0.602732 0.266383 0.358037 0.385059 
0.35096 0.142535 0 0.683271 0.774244 0.270097 0.483147 0.411839 0.577995 
0.430364 0.416579 0.354277 0.280124 0.291096 0.267353 0.400201 0.536976 0.509857 
0.496897 0.390308 0.187572 0.331703 0.475055 0.524803 0.436256 0.403104 0.331353 
0.331353 0.489587 0.611562 0.704097 0.679199 0.659536 0.695126 0.596714 0.524353 
0.433099 0.54555 0.514923 0.408186 0.413467 0.49233 0.445375 0.430689 0.364047 
0.265191 0.3628 0.424078 0.311409 0.353263 0.221291 0.228999 0.141487 0.180205 
0.590379 0.640957 0.719679 0.86842 0.699385 0.677001 0.677001 0.661502 0.501512 
0.436842 0.371095 0.342304 0.390308 0.463594 0.457133 0.462993 0.529358 0.683199 
0.57935 0.47938 0.428612 0.584839 0.588982 0.616562 0.709235 0.778464 0.696634 
0.696634 0.669257 0.654247 0.646354 0.553319 0.593359 0.646484 0.473367 0.459343 
0.662055 0.66087 0.550332 0.463002 0.454377 0.486646 0.43454 0.351264 0.400876 
0.415705 0.508367 0.506726 0.506726 0.569279 0.580973 0.535395 0.514046 0.457437 
0.421411 0.452463 0.59674 0.584546 0.742769 0.65431 0.584403 0.45079 0.484385 
0.489137 0.49416 0.479235 0.420584 0.287524 0.287524 0.215804 0.227538 0.271181 
0.436201 0.327208 0.313177 0.38622 0.401354 0.426078 0.30746 0.345511 0.263935 
0.219645 0.246678 0.317302 0.271905 0.247203 0.357856 0.355915 0.387226 0.2952 
0.302717 0.360016 0.461166 0.466105 0.485031 0.429602 0.429602 0.442507 0.44762 
0.441072 0.416431 0.412309 0.44474 0.397322 0.305524 0.321084 0.379855 0.514573 
0.520488 0.564626 0.724433 0.874512 0.804338 0.23356 0.295297 0.381315 0.265678 
0.193071 0.14457 0.288868 0.326173 0.384019 0.329388 0.272062 0.182869 0.399932 
0.389969 0.368765 0.389955 0.427782 0.439686 0.439686 0.460766 0.509831 0.492763 
0.506604 0.410445 0.457971 0.554427 0.615698 0.615698 0.584689 0.348775 0.288975 
0.27115 0.356413 0.441744 0.418219 0.397637 0.449714 0.35573 0.230226 0.216956 
0.185685 0.298583 0.308199 0.194815 0.199149 0.257792 0.62057 0.43057 0.365285 
0.319578 0.277053 0.292114 0.361681 0.349181 0.297989 0.264166 0.20447 0.259103 
0.226155 0.260806 0.300832 0.585977 0.490484 0.311961 0.301869 0.332925 0.660532 
0.506324 0.532286 0.451617 0.451617 0.407018 0.468344 0.375566 0.484223 0.491054 
0.444552 0.484633 0.412098 0.295855 0.351996 0.33481 0.320821 0.4182 0.413409 
0.343036 0.0306089 0.0306089 0.082688 0.082688 0.160443 0.247826 0.272143 0.401273 
0.460396 0.441937 0.380614 0.363838 0.413017 0.425233 0.420636 0.404915 0.408474 
0.445535 0.399168 0.410915 0.42359 0.409707 0.421148 0.39182 0.372353 0.372353 
0.513425 0.595347 0.552935 0.526939 0.310986 0.303533 0.304889 0.363864 0.363864 
0.365558 0.398747 0.438136 0.43756 0.43756 0.47709 0.440269 0.498424 0.478847 
0.319624 0.355588 0.255925 0.254656 0.254656 0.238823 0.256871 0.268097 0.297769 
0.452304 0.522445 0.579632 0.500693 0.488595 0.481084 0.378927 0.458934 0.377268 
0.342531 0.307875 0.3453 0.304708 0.376481 0.35645 0.358607 0.434436 0.379614 
0.328994 0.364297 0.437455 0.606524 0.527957 0.511414 0.491187 0.61482 0.622134 
0.590652 0.638823 0.460576 0.375289 0.309218 0.355353 0.430567 0.338384 0.415125 
0.425704 0.41792 0.434925 0.468166 0.468166 0.483657 0.555321 0.59106 0.622798 
0.568947 0.612668 0.546449 0.530166 0.547136 0.605415 0.644111 0.558244 0.605568 
0.558868 0.615945 0.61194 0.655795 0.350978 0.424684 0.391328 0.324325 0.266895 
0.433952 0.524415 0.52881 0.516775 0.723136 0.559218 0.461577 0.313589 0.278304 
0.290966 0.472355 0.424104 0.465918 0.508709 0.528681 0.482862 0.671843 0.694432 
0.651406 0.84708 0.851714 0.81683 0.81683 0.663067 0.725806 0.725806 0.611517 
0.531032 0.591543 0.645268 0.381844 0.410845 0.434545 0.553337 0.516356 0.496716 
0.267678 0.30857 0.312684 0.351026 0.401987 0.38394 0.414017 0.392002 0.427695 
0.305828 0.298975 0.426211 0.356854 0.461484 0.404058 0.349979 0.502053 0.363838 
0.466328 0.577201 0.766295 0.743932 0.700516 0.700516 0.597057 0.776042 0.621737 
0.619224 0.624218 0.599487 0.482928 0.482928 0.48687 0.472573 0.476486 0.556057 
0.780063 0.660831 0.832513 0.671764 0.555996 0.645496 0.576041 0.611162 0.611162 
0.511273 0.41357 0.519299 0.394114 0.484403 0.465657 0.401746 0.415048 0.421477 
0.349391 0.349391 0.419246 0.44765 0.44765 0.568784 0.524444 0.586804 0.451589 
0.519992 0.549558 0.516149 0.543972 0.325079 0.387878 0.385621 0.410157 0.49212 
0.361739 0.41833 0.414976 0.442592 0.417519 0.400085 0.400085 0.401623 0.372807 
0.288925 0.250004 0.230266 0.305476 0.367471 0.367083 0.393947 0.38441 0.464386 
0.569562 0.444769 0.438845 0.469288 0.462732 0.40441 0.524197 0.531606 0.582133 
0.708327 0.632052 0.489562 0.526635 0.523509 0.514806 0.492977 0.387451 0.431408 
0.455274 0.302748 0.378832 0.443144 0.45272 0.480878 0.528265 0.775475 0.775475 
0.72993 0.797814 0.707479 0.706645 0.774903 0.75714 0.672179 0.620149 0.568046 
0.547715 0.593687 0.663795 0.699081 0.740829 0.789974 0.753074 0.753074 0.586069 
0.586069 0.601179 0.554329 0.604577 0.54753 0.425066 0.440339 0.441304 0.339823 
0.371688 0.247615 0.304702 0.494188 0.393857 0.409138 0.435012 0.5611 0.564937 
0.691123 0.715045 0.695486 0.964058 0.752889 0.655863 0.563826 0.520545 0.404113 
0.34779 0.262617 0.388136 0.467085 0.4723 0.639586 0.780265 0.806548 0.823633 
0.823633 0.74325 0.940353 0.79388 0.694547 0.576734 0.576734 0.564903 0.625978 
0.511131 0.644804 0.73484 0.628323 0.658988 0.653003 0.754167 0.710312 0.857669 
0.790755 0.560189 0.690458 0.561252 0.559107 0.624804 0.526835 0.339382 0.378894 
0.337362 0.351507 0.390886 0.375965 0.371852 0.409408 0.631341 0.70927 0.708142 
0.693877 0.633502 0.503953 0.435407 0.468715 0.451271 0.518562 0.594566 0.60902 
0.754739 0.669449 0.669449 0.497268 0.381457 0.229045 0.278404 0.232807 0.241772 
0.352237 0.230714 0.224033 0.254218 0.254218 0.308848 0.2514 0.182415 0.259696 
0.203154 0.312047 0.392874 0.442221 0.496276 0.516506 0.439645 0.430886 0.480033 
0.263634 0.215935 0.323501 
WidthEq 1 687 double
2.49414 4.025 4.37422 5.8628 2.80793 4.17654 4.80721 3.76691 3.62489 
2.66611 2.24252 4.47294 3.92544 2.67201 4.13363 3.56455 4.05609 2.9133 
6.64745 6.15814 3.60628 7.02547 6.85883 6.31028 6.43773 5.59323 2.97518 
6.69506 3.70167 5.9779 3.339 4.70393 6.40806 3.72054 5.865 4.40022 
5.22214 6.23422 7.58673 4.52319 4.6161 5.2238 6.48246 5.80931 2.87641 
6.04721 4.84496 5.8001 4.57286 4.65119 6.18654 4.47927 3.94159 5.49672 
3.75069 4.12454 5.37836 5.86555 1.03116 1 1.08747 5.53011 6.65836 
6.65836 6.16529 5.40769 5.08754 4.88351 4.21489 4.18913 4.19285 4.13464 
4.28418 4.09295 4.52465 5.30041 5.35883 5.15933 5.5839 5.55224 5.54956 
5.05552 4.53417 4.31953 4.48078 4.51635 5.19538 5.0987 5.54351 5.87625 
3.72513 3.56944 3.40366 3.20763 3.52934 3.59443 3.59443 3.63437 3.88206 
3.97739 4.23916 4.42257 4.12454 5.22574 5.40795 5.64396 4.23988 3.8497 
4.04335 4.20755 4.54312 3.5669 3.7357 3.62911 3.56903 3.6502 4.44308 
4.44308 5.0744 5.21325 5.822 5.28558 4.97837 4.53691 4.55648 4.74202 
4.30601 4.29747 4.82148 5.33091 5.69059 5.64516 5.79588 6.24137 6.16608 
5.55786 4.79961 4.51937 4.51937 4.06988 4.29879 4.43543 4.70895 4.78217 
5.19607 5.36233 4.92713 4.88535 4.38472 4.49057 4.54988 4.7944 4.73058 
5.03377 5.10342 5.50579 3.95919 3.8142 3.8142 3.93664 4.23571 4.23475 
3.52541 4.34726 4.0942 3.93566 4.11533 4.40031 5.02897 5.01475 5.44105 
5.63643 5.59973 5.63607 6.13171 5.89115 5.69071 5.2999 5.34823 5.40136 
6.17711 5.94679 5.4583 5.21948 4.78567 4.85516 4.85516 4.91663 4.90248 
5.21795 5.59805 5.90064 5.86177 5.95348 6.00627 5.96492 6.6015 6.34673 
6.4023 6.70022 5.92233 5.24627 5.23287 4.92594 5.21867 5.27186 6.48548 
6.88665 7.07414 4.8324 4.89557 4.90905 6.14202 5.63147 5.37382 4.81985 
4.57734 4.59886 4.31798 4.44493 4.5955 4.5955 5.0862 5.48408 6.04009 
6.33906 6.52628 6.62632 6.16505 5.79612 5.79612 5.3525 6.06312 5.91916 
5.73865 4.42655 4.14195 4.4544 4.79692 5.18576 5.57585 6.18488 6.26914 
6.198 6.10276 6.00402 5.23673 5.58388 5.65274 6.08825 4.20743 4.25382 
4.21112 4.92937 5.11019 4.63937 4.56787 4.54736 4.19508 4.44752 4.4213 
4.84357 4.74898 4.88116 4.84228 4.51146 4.67719 5.07718 4.85523 4.6763 
5.06447 4.88279 4.96323 4.96323 5.08303 4.54513 4.89113 4.36369 4.55408 
4.87885 5.18571 5.48734 6.06851 6.42636 6.85775 7.27292 6.64129 6.44936 
7.19912 8.16032 8.16032 8.44572 8.44572 7.47866 6.91922 7.28546 5.95881 
5.5362 5.21147 5.23735 5.2166 4.91322 4.44257 4.45327 4.57228 4.38341 
4.25516 4.1763 3.90407 3.93082 3.68387 3.69351 3.52248 3.58203 3.58203 
3.42997 3.28489 3.52265 3.643 5.33821 5.52708 5.72189 5.77237 5.77237 
5.72601 5.53063 5.40153 4.96901 4.96901 4.4862 3.9088 3.84498 3.89856 
4.60109 4.58197 5.97236 6.57367 6.57367 7.73661 7.51003 7.42956 7.06512 
5.56644 5.16115 4.9115 4.50601 4.53688 4.20666 3.79974 3.85047 3.81641 
3.89359 3.97197 3.92105 4.71166 5.0407 5.06092 4.98434 4.69681 4.87257 
4.88372 4.84813 4.53626 5.8161 5.63931 5.62041 6.1266 6.41387 6.01627 
5.28928 4.41211 4.17232 4.94831 5.25505 5.8957 5.62202 5.9866 6.42878 
5.94036 5.70104 5.51464 5.04701 5.04701 4.85285 4.64472 4.6221 4.49066 
4.4102 4.30188 4.11804 4.09202 4.02618 3.9815 3.77827 3.98579 3.93242 
4.1563 4.16747 4.38547 4.60838 6.74408 6.76306 7.02466 6.92666 6.92263 
6.65853 5.73517 5.66756 5.8628 2.97518 4.07631 5.14693 6.4232 6.81345 
6.90013 6.17069 6.73406 6.16627 5.50423 4.82448 4.14656 3.78238 3.59424 
3.62163 3.31197 3.33386 3.40587 3.40587 3.67425 3.74112 3.74112 4.29975 
4.66925 4.75706 5.35241 4.85518 4.13862 3.67317 3.16573 3.20152 3.3566 
5.5373 5.20485 4.98244 4.59876 4.50232 4.52192 4.39374 4.32181 4.23302 
4.61946 4.47642 4.19505 4.2305 3.83934 3.85975 3.82353 5.9506 6.84199 
5.96744 5.62453 4.60845 4.40341 3.98644 3.98644 4.25504 4.89816 6.02184 
5.92197 5.73206 5.41026 6.08249 6.08249 5.90933 5.6401 5.05548 4.43754 
3.59156 3.76811 3.34931 3.52953 3.3502 3.20967 3.24301 3.30345 3.30345 
3.42266 3.54601 3.50667 3.71289 3.60834 3.61014 3.57023 3.54841 3.44654 
3.32029 3.32029 3.22344 3.18619 3.18619 3.27976 3.32442 3.30861 3.49538 
3.3626 3.32734 3.49638 3.65545 6.13596 5.12944 4.73804 4.4679 4.27216 
4.07542 4.05976 4.096 4.09123 4.26895 4.32613 4.32613 4.11411 3.80852 
3.679 3.84618 4.13157 4.71996 4.85014 5.09611 5.47751 5.85682 5.94466 
5.93607 3.75628 3.86296 3.89071 3.74729 3.72803 3.95307 4.03891 3.4229 
2.93814 3.9884 3.71529 3.39723 3.18542 3.08586 3.13688 3.55296 3.48902 
3.70553 4.39655 4.03884 3.61746 3.61552 3.76813 3.75995 2.5406 2.5406 
2.98863 3.08709 3.18859 3.19073 3.21145 3.17183 3.02571 3.06274 3.15556 
3.17523 3.14177 3.06704 3.00468 2.95781 3.04219 3.06327 3.06327 3.23457 
3.23457 3.04531 3.13592 2.82184 3.00501 3.45719 3.3543 3.63382 4.09823 
4.41713 4.80215 4.80721 3.61084 3.63391 3.69047 3.75276 3.64187 3.6637 
3.36365 3.27848 3.33147 2.99959 3.44237 4.18685 4.81539 5.53944 3.74592 
3.97821 4.18215 3.96926 3.90957 3.97502 3.72558 3.19255 3.14264 2.72255 
2.72255 2.52237 2.17085 2.47491 2.83758 3.35708 3.35708 3.60256 3.60213 
3.76811 3.57146 3.31612 3.55368 3.47657 3.39977 3.2296 3.05699 2.88754 
2.93958 3.40025 3.44153 3.89973 4.03069 3.91916 4.11881 4.42209 4.45764 
3.45072 4.51781 3.9431 3.96696 4.00368 4.15186 6.0045 6.07746 6.20911 
5.95032 5.51701 5.5763 5.30175 5.05728 4.85501 4.38458 4.13627 3.86361 
3.34439 3.58702 3.58702 4.10202 4.37422 4.48311 4.40564 4.40912 4.08636 
3.8963 3.78981 3.88302 3.89604 3.89604 3.9702 4.06559 4.07952 4.3771 
4.31133 4.57092 4.52005 4.41411 4.31881 4.19995 4.43819 4.59058 4.40144 
4.27269 3.74585 3.41819 
rRFP 1 687 double
3292.77 3931.04 4076.64 4697.28 3423.6 3994.22 4257.17 3823.43 3764.22 
3364.47 3187.86 4117.8 3889.53 3366.93 3976.33 3739.06 3944 3467.53 
5024.43 4820.42 3756.46 5182.04 5112.56 4883.85 4936.99 4584.89 3493.33 
5044.28 3796.23 4745.27 3645.02 4214.11 4924.62 3804.1 4698.2 4087.48 
4430.17 4852.14 5416.05 4138.75 4177.49 4430.86 4955.64 4674.98 3452.15 
4774.17 4272.91 4671.14 4159.46 4192.12 4832.26 4120.44 3896.26 4544.65 
3816.67 3972.54 4495.3 4698.43 2682.8 2669.81 2706.28 4558.57 5028.98 
5028.98 4823.4 4507.53 4374.05 4288.98 4010.21 3999.47 4001.02 3976.75 
4039.1 3959.37 4139.36 4462.8 4487.16 4403.98 4581 4567.8 4566.68 
4360.7 4143.33 4053.84 4121.07 4135.9 4419.01 4378.7 4564.16 4702.89 
3806.01 3741.1 3671.98 3590.25 3724.38 3751.52 3751.52 3768.17 3871.44 
3911.19 4020.33 4096.8 3972.54 4431.67 4507.64 4606.04 4020.63 3857.95 
3938.69 4007.15 4147.06 3740.04 3810.42 3765.98 3740.93 3774.77 4105.35 
4105.35 4368.57 4426.46 4680.27 4456.62 4328.53 4144.47 4152.63 4229.99 
4048.2 4044.64 4263.12 4475.52 4625.48 4606.54 4669.38 4855.12 4823.73 
4570.14 4254 4137.16 4137.16 3949.75 4045.19 4102.16 4216.2 4246.73 
4419.3 4488.62 4307.17 4289.75 4081.02 4125.15 4149.88 4251.83 4225.22 
4351.63 4380.67 4548.43 3903.6 3843.15 3843.15 3894.2 4018.89 4018.49 
3722.74 4065.4 3959.89 3893.79 3968.7 4087.52 4349.63 4343.7 4521.44 
4602.9 4587.6 4602.75 4809.4 4709.1 4625.53 4462.59 4482.74 4504.89 
4828.33 4732.3 4528.63 4429.06 4248.19 4277.16 4277.16 4302.79 4296.89 
4428.42 4586.9 4713.06 4696.85 4735.09 4757.1 4739.86 5005.27 4899.05 
4922.22 5046.43 4722.1 4440.23 4434.64 4306.67 4428.72 4450.9 4956.9 
5124.16 5202.33 4267.67 4294.01 4299.63 4813.7 4600.83 4493.41 4262.44 
4161.33 4170.3 4053.19 4106.12 4168.9 4168.9 4373.49 4539.38 4771.2 
4895.85 4973.91 5015.62 4823.3 4669.48 4669.48 4484.52 4780.8 4720.78 
4645.52 4098.46 3979.8 4110.07 4252.88 4415 4577.64 4831.57 4866.7 
4837.04 4797.33 4756.16 4436.25 4580.99 4609.7 4791.28 4007.1 4026.44 
4008.64 4308.1 4383.49 4187.19 4157.38 4148.83 4001.95 4107.2 4096.27 
4272.33 4232.89 4288 4271.79 4133.86 4202.96 4369.73 4277.19 4202.59 
4364.43 4288.68 4322.22 4322.22 4372.17 4147.9 4292.16 4072.25 4151.63 
4287.04 4414.98 4540.74 4783.05 4932.25 5112.11 5285.21 5021.86 4941.84 
5254.44 5655.2 5655.2 5774.19 5774.19 5370.99 5137.74 5290.44 4737.31 
4561.11 4425.72 4436.51 4427.86 4301.37 4105.14 4109.6 4159.22 4080.47 
4027 3994.12 3880.62 3891.77 3788.81 3792.83 3721.52 3746.35 3746.35 
3682.95 3622.46 3721.59 3771.77 4478.56 4557.31 4638.53 4659.58 4659.58 
4640.25 4558.79 4504.96 4324.63 4324.63 4123.33 3882.59 3855.98 3878.32 
4171.23 4163.26 4742.96 4993.67 4993.67 5478.54 5384.07 5350.52 5198.57 