# vtk DataFile Version 3.0
vtk output
ASCII
DATASET POLYDATA
POINTS 614 float
1.83088 0.617533 1.59842 0.385814 0.94381 1.06695 1.29615 1.24264 1.15437 
3.20902 0.177217 1.17501 1.31247 -0.757208 0.761511 2.53146 0.0687537 0.919574 
3.16471 1.08534 1.05826 1.88081 1.59316 0.823113 -0.340705 0.563634 0.31241 
3.61695 -0.010483 0.579197 2.38838 1.68815 0.618883 2.98712 1.56193 0.690038 
-0.518988 0.160157 -0.249658 0.965634 1.7187 0.37357 3.54451 1.08976 0.479141 
3.49669 1.2028 0.486944 5.21306 0.161994 0.497291 5.09782 0.592942 0.397143 
5.62721 0.5026 0.55677 5.36086 0.755155 0.56393 5.54791 0.719461 0.572543 
5.83124 0.711514 0.59003 -0.441382 0.00422282 -0.0835034 3.25042 -0.427728 0.112731 
3.47039 -0.256493 0.143391 3.87419 0.859301 0.0655651 5.20238 -0.0147294 0.278248 
4.88284 0.583462 0.315265 6.21357 0.485552 0.391564 6.28487 0.568371 0.404132 
-0.481347 0.69262 -0.221127 -0.453817 0.836989 -0.205452 3.85096 0.527035 0.0420193 
-0.725318 0.0200976 -0.502942 0.0554831 -0.505902 -0.503293 2.54106 -0.800596 -0.707107 
0.68515 1.60377 -0.326695 4.72195 0.025764 -0.151478 4.40168 0.468577 -0.12947 
4.70977 0.180209 -0.137391 -0.532333 0.446643 -0.717889 3.80439 0.987223 -0.319343 
5.96679 0.211667 -0.254721 0.060174 1.27826 -0.733861 6.39606 0.377415 -0.412444 
3.32978 1.62881 -0.89215 -0.0532871 0.79398 -1.39182 1.55156 -0.454977 -1.67715 
0.681634 1.37504 -1.5085 3.08433 -0.35366 -1.38223 3.77949 0.669117 -1.29115 
3.79646 0.826482 -1.14068 0.810874 -0.466605 -1.65515 0.327896 0.0890093 -1.63648 
3.65449 0.834419 -1.3504 2.05875 1.51384 -1.58912 3.29776 1.09864 -1.54928 
0.709088 1.04611 -1.92244 2.96603 0.241981 -1.77991 3.04128 0.219913 -1.72499 
3.09571 0.19096 -1.67207 3.13842 0.154469 -1.62809 3.18478 0.122877 -1.57595 
3.24159 0.103313 -1.51452 3.29584 0.0806154 -1.44609 3.36108 0.0708496 -1.37572 
3.43195 0.0705812 -1.31152 3.49738 0.0796061 -1.2617 3.55271 0.100775 -1.23373 
3.61863 0.11398 -1.21329 3.68439 0.127321 -1.19286 3.73663 0.151148 -1.16483 
3.78337 0.181919 -1.1514 3.79895 0.241663 -1.1521 3.80628 0.310575 -1.16736 
3.8206 0.369992 -1.17563 3.81661 0.431708 -1.18237 3.79564 0.49013 -1.19798 
3.78424 0.569045 -1.23586 2.9091 0.296789 -1.82304 2.86524 0.345047 -1.84359 
2.82368 0.383481 -1.85002 2.78186 0.419323 -1.84927 2.7388 0.4536 -1.84874 
2.68808 0.478978 -1.84956 2.62108 0.485435 -1.85326 2.554 0.491809 -1.85696 
2.50203 0.515733 -1.85801 2.45165 0.541662 -1.86621 2.3924 0.5576 -1.89087 
2.3368 0.578254 -1.9372 2.27185 0.588211 -1.99263 2.20755 0.598754 -2.04049 
2.15693 0.624721 -2.06363 2.10536 0.649271 -2.07204 2.03828 0.655645 -2.07575 
1.9712 0.66202 -2.07946 1.91923 0.685944 -2.0805 1.86852 0.711322 -2.08132 
1.81042 0.728132 -2.08345 1.76828 0.763311 -2.07532 1.74273 0.817462 -2.04938 
1.71486 0.868434 -2.00152 1.69813 0.932347 -1.9517 1.68898 1.00521 -1.91545 
1.68429 1.08109 -1.90845 1.68725 1.15055 -1.90157 1.70123 1.20944 -1.88754 
1.70229 1.27606 -1.85123 1.6953 1.34849 -1.80742 1.68591 1.42059 -1.74888 
1.6747 1.49061 -1.68321 1.65537 1.55102 -1.61152 1.61967 1.59243 -1.54272 
1.5832 1.63309 -1.4815 1.55569 1.68433 -1.42614 1.51765 1.72349 -1.38008 
1.46683 1.74749 -1.32139 1.40928 1.76335 -1.24899 1.36263 1.79155 -1.15981 
1.29611 1.79684 -1.08901 1.21938 1.78793 -1.04261 1.14985 1.77254 -1.0262 
1.094 1.74734 -1.02477 1.03424 1.72552 -1.02326 0.977041 1.69828 -0.999738 
0.905015 1.67867 -0.926727 0.828091 1.66546 -0.786301 0.758678 1.65022 -0.575994 
0.707355 1.1051 -1.81993 0.716944 1.15726 -1.73599 0.7165 1.22237 -1.6701 
0.70748 1.29852 -1.59251 3.22045 1.09313 -1.55479 3.14431 1.08899 -1.56009 
3.07513 1.09307 -1.57161 3.01672 1.10999 -1.59612 2.94998 1.1177 -1.64442 
2.87842 1.11997 -1.70101 2.81175 1.12776 -1.74929 2.75465 1.14621 -1.77357 
2.69452 1.16081 -1.78349 2.64492 1.18749 -1.78412 2.60068 1.22039 -1.7838 
2.55067 1.24644 -1.77706 2.49037 1.26037 -1.76468 2.43823 1.28362 -1.74343 
2.38698 1.30822 -1.73691 2.32684 1.32282 -1.74684 2.27067 1.34217 -1.7635 
2.21091 1.35689 -1.75848 2.16674 1.38909 -1.72094 2.13797 1.43886 -1.6658 
2.10106 1.47932 -1.61954 3.3232 1.0439 -1.55291 3.37364 1.0182 -1.55214 
3.42304 0.991287 -1.55155 3.47321 0.965118 -1.54337 3.53114 0.947644 -1.51896 
3.57776 0.916555 -1.47421 3.61695 0.876526 -1.41588 3.3132 1.13843 -1.41768 
3.31052 1.196 -1.30046 3.30085 1.26403 -1.2125 3.29251 1.33426 -1.14662 
3.29263 1.39947 -1.0956 3.30385 1.45403 -1.03742 3.30504 1.5172 -0.979057 
3.30809 1.57989 -0.928087 1.67523 -0.374338 -1.72604 1.76311 -0.348516 -1.76264 
1.82524 -0.359176 -1.77955 1.8876 -0.370864 -1.78163 1.94618 -0.387109 -1.77942 
2.01577 -0.39057 -1.77527 2.0919 -0.386426 -1.76996 2.16921 -0.380912 -1.76445 
2.24651 -0.375244 -1.75893 2.32235 -0.368318 -1.75338 2.38914 -0.353632 -1.74766 
2.43594 -0.320675 -1.74893 2.47554 -0.280433 -1.75741 2.52174 -0.244731 -1.77337 
2.57849 -0.220311 -1.77482 2.62426 -0.188706 -1.76137 2.67048 -0.159859 -1.73325 
2.73508 -0.14819 -1.71305 2.80139 -0.152484 -1.70173 2.85169 -0.17834 -1.69352 
2.89458 -0.21329 -1.67176 2.94087 -0.244992 -1.61963 2.99662 -0.267507 -1.54363 
3.04602 -0.303796 -1.45447 1.52974 -0.314357 -1.75947 1.49869 -0.235903 -1.8434 
1.46352 -0.186772 -1.91302 1.43271 -0.136996 -1.95992 1.41002 -0.078594 -1.97813 
1.37781 -0.0315544 -1.98313 1.34638 0.0162295 -1.98056 1.33124 0.0829342 -1.97511 
1.3225 0.157085 -1.96853 1.3073 0.223714 -1.96309 1.27461 0.270037 -1.96074 
1.2342 0.307386 -1.95975 1.19253 0.343282 -1.95897 1.1508 0.379094 -1.95821 
1.10906 0.414907 -1.95745 1.06733 0.45072 -1.95669 1.02559 0.486533 -1.95593 
0.983854 0.522346 -1.95517 0.942047 0.558076 -1.95443 0.89906 0.592436 -1.95389 
0.849599 0.619274 -1.95449 0.790247 0.634623 -1.95683 0.739528 0.660001 -1.95766 
0.688744 0.685303 -1.95849 0.62807 0.699116 -1.96107 0.56908 0.714727 -1.95591 
0.498143 0.716145 -1.93797 0.420489 0.709286 -1.8989 0.348842 0.709247 -1.85132 
0.293483 0.728129 -1.80087 0.239784 0.749097 -1.75757 0.17531 0.75734 -1.70127 
0.11143 0.767776 -1.62235 0.03371 0.773582 -1.51495 3.67171 0.767672 -1.34329 
3.71305 0.716761 -1.32316 3.72571 0.830804 -1.24922 0.610662 1.41077 -1.42387 
0.534875 1.41996 -1.35703 0.470238 1.42985 -1.29314 0.397974 1.42602 -1.23477 
0.326704 1.40767 -1.17402 0.266665 1.37618 -1.10635 0.201211 1.34585 -1.01655 
0.137392 1.30854 -0.890021 0.323538 0.0208946 -1.64332 0.310331 -0.0371002 -1.64976 
0.31594 -0.0967534 -1.64768 0.345812 -0.143863 -1.62793 0.384951 -0.183312 -1.59192 
0.431194 -0.214521 -1.56211 0.482749 -0.238927 -1.56114 0.516633 -0.283229 -1.59305 
0.555515 -0.321568 -1.63153 0.605219 -0.347651 -1.65321 0.665145 -0.362172 -1.66193 
0.71526 -0.389503 -1.66879 0.760358 -0.428979 -1.67341 0.875614 -0.464946 -1.6098 
0.945539 -0.461391 -1.55649 1.00539 -0.475376 -1.52415 1.04643 -0.512326 -1.50642 
1.10615 -0.527556 -1.48912 1.17188 -0.535973 -1.46333 1.23056 -0.552415 -1.44622 
1.2992 -0.556821 -1.44471 1.37159 -0.554089 -1.47955 1.44693 -0.534809 -1.56232 
3.79529 0.750162 -1.20528 3.85119 0.82698 -0.97306 3.88727 0.847946 -0.834485 
3.9071 0.88704 -0.725049 3.9024 0.942102 -0.615656 3.87137 0.984378 -0.479352 
3.07488 -0.416851 -1.33672 3.04124 -0.467191 -1.32137 2.9964 -0.502887 -1.32023 
2.93967 -0.527384 -1.31879 2.89208 -0.561895 -1.30281 2.84252 -0.599174 -1.25739 
2.77931 -0.629744 -1.1799 2.71555 -0.669477 -1.05857 2.63468 -0.718891 -0.897032 
1.63721 -0.542129 -1.55077 1.69185 -0.600244 -1.46336 1.73456 -0.641131 -1.41732 
1.78212 -0.67115 -1.38483 1.83815 -0.691458 -1.33098 1.8842 -0.723839 -1.25656 
1.93001 -0.756974 -1.15987 1.99092 -0.77256 -1.0605 2.05136 -0.788854 -0.95378 
2.09716 -0.821835 -0.857061 2.14117 -0.854257 -0.752954 2.19436 -0.860545 -0.653189 
2.24317 -0.848853 -0.544526 2.30533 -0.844272 -0.463018 2.37326 -0.846545 -0.441465 
2.44484 -0.841929 -0.533353 -0.0702641 0.878305 -1.37733 -0.095826 0.939359 -1.35073 
-0.111011 1.00298 -1.30084 -0.111552 1.06404 -1.23534 -0.0908357 1.10808 -1.16265 
-0.0610025 1.14444 -1.09011 -0.0297038 1.17954 -1.01761 0.00120311 1.21386 -0.937739 
0.0311622 1.24677 -0.843156 -0.155756 0.775873 -1.40016 -0.232032 0.757231 -1.40687 
-0.280069 0.723556 -1.40575 -0.317764 0.679351 -1.38261 -0.349638 0.622755 -1.31057 
-0.376572 0.551042 -1.17256 -0.43393 0.489872 -0.965895 6.30988 0.35483 -0.256121 
6.23496 0.328163 -0.136743 6.18242 0.290092 -0.0692279 6.13329 0.256909 -0.05321 
6.06939 0.243086 -0.0810359 6.00834 0.233512 -0.152997 0.0192791 1.3042 -0.53266 
0.0129944 1.33445 -0.336274 0.0554102 1.34173 -0.161331 0.111051 1.34688 -0.0304783 
0.153856 1.37099 0.0491668 0.198209 1.40047 0.0846909 0.254481 1.42418 0.0905993 
0.30068 1.45988 0.0746448 0.342183 1.50296 0.0367292 0.392556 1.54112 -0.018494 
0.466632 1.56398 -0.0960327 0.562578 1.58247 -0.199924 3.75117 1.00544 -0.119679 
3.70477 1.03173 0.0737415 3.66836 1.07009 0.246599 3.61683 1.09169 0.379591 
3.83783 0.928151 -0.104144 -0.560508 0.530557 -0.515249 -0.568095 0.594589 -0.360441 
-0.539517 0.642397 -0.269485 -0.549689 0.336818 -0.588203 -0.55758 0.250699 -0.432029 
4.45301 0.526097 -0.090796 4.51047 0.554194 -0.0396515 4.56234 0.574544 0.0253057 
4.62641 0.58168 0.0972365 4.6995 0.582261 0.169117 4.78229 0.582258 0.241555 
4.71586 0.102987 -0.144435 4.67427 0.225316 -0.232278 4.63805 0.268959 -0.297515 
4.60587 0.316505 -0.324838 4.5804 0.371314 -0.321201 4.53617 0.40569 -0.290912 
4.4698 0.425618 -0.226163 4.77256 0.192753 -0.0948502 4.8129 0.220096 -0.0225124 
4.83343 0.259985 0.0795948 4.83332 0.317577 0.182078 4.83363 0.379332 0.255151 
4.84771 0.436126 0.291355 4.85994 0.505583 0.306291 4.30709 0.459621 -0.128967 
4.23091 0.443596 -0.113048 4.17182 0.414724 -0.0748982 4.11062 0.387376 -0.0292671 
4.06106 0.350097 0.0161474 4.01206 0.31346 0.0541996 3.95246 0.284789 0.0997965 
3.90445 0.246181 0.145193 3.8645 0.201777 0.18308 3.82687 0.157604 0.206231 
3.78877 0.112723 0.236742 3.74683 0.0655567 0.304064 3.69261 0.0211263 0.423065 
0.701012 1.65539 -0.161616 0.734622 1.6845 -0.0224252 0.793028 1.6924 0.0815287 
0.85441 1.69914 0.170644 0.905404 1.714 0.264844 2.60952 -0.817501 -0.445817 
2.66827 -0.819655 -0.26328 2.71139 -0.796116 -0.178687 2.75593 -0.766399 -0.145614 
2.81078 -0.744813 -0.117634 2.85263 -0.715415 -0.0673698 2.8869 -0.679514 -0.0169577 
2.92073 -0.641011 0.018758 2.95647 -0.599672 0.0250404 2.99405 -0.558811 0.0239369 
3.03922 -0.524454 0.0226954 3.09549 -0.500742 0.0286038 3.14127 -0.469138 0.0420556 
3.18747 -0.440135 0.0701936 -0.478791 0.0683345 -0.172023 -0.628372 0.102624 -0.371299 
-0.687889 0.0589792 -0.454838 0.096716 -0.54293 -0.474374 0.144591 -0.572559 -0.429405 
0.207806 -0.584684 -0.366844 0.270617 -0.597436 -0.29691 0.318392 -0.627655 -0.229626 
0.36664 -0.657165 -0.169703 0.4304 -0.668499 -0.11449 0.494634 -0.679124 -0.0666382 
0.543357 -0.707925 -0.0140761 0.592079 -0.736728 0.038496 0.656385 -0.74727 0.0863608 
0.722817 -0.755026 0.119722 0.780688 -0.772727 0.151573 0.847502 -0.780356 0.19988 
0.919842 -0.78188 0.26405 0.992887 -0.782744 0.335789 1.06545 -0.78416 0.414892 
1.13615 -0.785102 0.501391 1.1988 -0.780245 0.595369 1.25034 -0.764745 0.682217 
3.87265 0.575964 0.0779562 3.87583 0.638966 0.126479 3.8776 0.705264 0.165292 
3.8874 0.772776 0.157515 -0.476812 0.777785 -0.212634 -0.39834 0.642917 0.0454016 
6.24922 0.526962 0.397848 5.12198 0.496131 0.424169 5.14741 0.426417 0.456381 
5.16086 0.354926 0.485165 5.17469 0.286174 0.499317 5.19799 0.228782 0.502751 
4.99313 0.588517 0.355171 4.90163 0.654826 0.390463 4.91365 0.716661 0.456848 
4.94774 0.753757 0.507354 5.00928 0.764981 0.529795 5.06736 0.750663 0.519735 
5.09183 0.688821 0.470609 5.19556 0.0575498 0.322056 5.19572 0.119371 0.395126 
3.4852 -0.316655 -0.0254988 3.48673 -0.372123 -0.150054 3.454 -0.409198 -0.20048 
3.38723 -0.427929 -0.161837 3.31288 -0.435827 -0.0480752 3.38611 -0.276243 0.270282 
3.31466 -0.298087 0.338151 3.27044 -0.331027 0.324671 3.24897 -0.372332 0.237285 
3.46603 -0.205283 0.312091 3.48357 -0.166185 0.436299 3.51388 -0.129116 0.501477 
3.5485 -0.0890516 0.522484 3.5832 -0.0490587 0.54348 -0.464703 0.0843843 -0.154651 
-0.405809 -0.0408018 0.0113969 -0.368268 -0.0829079 0.0768666 -0.327177 -0.120102 0.10576 
-0.278593 -0.148275 0.121096 -0.219477 -0.164372 0.145723 -0.165062 -0.186403 0.191844 
-0.107077 -0.204435 0.2535 -0.0547853 -0.226438 0.329325 -0.00140504 -0.229376 0.421966 
0.0385043 -0.209764 0.530819 0.0800673 -0.188073 0.632529 0.142193 -0.180537 0.711823 
0.214627 -0.1785 0.768882 0.287061 -0.176463 0.825941 0.350532 -0.166737 0.883173 
0.394012 -0.13874 0.933408 0.430776 -0.102749 0.96907 0.47374 -0.0720784 1.00462 
0.528633 -0.0538741 1.05465 0.580532 -0.034218 1.11209 0.643837 -0.0243479 1.16931 
0.704923 -0.011457 1.21923 0.740189 0.022473 1.27696 0.762653 0.0673868 1.33494 
0.808501 0.0933526 1.38513 0.859352 0.11837 1.41319 0.916456 0.140253 1.42643 
0.961316 0.173758 1.43255 0.999976 0.212583 1.43878 1.04622 0.244896 1.44487 
1.11146 0.260917 1.45061 1.17669 0.276939 1.45636 1.22294 0.309252 1.46245 
1.2616 0.348077 1.46868 1.30646 0.381582 1.4748 1.36412 0.404102 1.48068 
1.41794 0.429917 1.48663 1.47707 0.45118 1.49249 1.53097 0.476923 1.49844 
1.59018 0.498115 1.5043 1.64533 0.522509 1.51268 1.71177 0.537789 1.52838 
1.77824 0.561507 1.55732 5.80611 0.661079 0.583555 5.79095 0.602039 0.576893 
5.76184 0.554127 0.570404 5.71065 0.520009 0.563821 5.49018 0.73679 0.570493 
5.42974 0.750882 0.567956 5.57427 0.663691 0.568871 5.60133 0.59667 0.56416 
5.58613 0.431822 0.547307 5.55704 0.372685 0.539739 5.54157 0.312183 0.532916 
5.51487 0.263004 0.526461 5.47914 0.221666 0.520178 5.43298 0.189275 0.514085 
5.36619 0.174588 0.508369 5.29036 0.167663 0.502816 3.41886 1.17188 0.650463 
3.35119 1.13363 0.799021 3.26736 1.10635 0.932675 3.52812 1.15501 0.484368 
3.48921 1.2784 0.493743 3.474 1.34503 0.499179 3.44013 1.38998 0.501326 
3.39324 1.41981 0.501178 3.34176 1.4443 0.500219 3.30977 1.49144 0.502698 
3.27279 1.53261 0.511739 3.22294 1.55858 0.533397 3.15816 1.56772 0.574842 
3.08643 1.5745 0.63053 3.53875 0.994826 0.656056 3.53527 0.903505 0.796169 
3.53468 0.819744 0.870101 3.53038 0.748241 0.885307 3.51819 0.691605 0.864148 
3.52516 0.633996 0.844141 3.556 0.588803 0.826857 3.5887 0.543133 0.802197 
3.60661 0.480597 0.752592 3.61726 0.409943 0.694267 3.6248 0.33831 0.643118 
3.62279 0.270267 0.621517 3.60786 0.209963 0.622208 3.60395 0.13909 0.630051 
3.60905 0.0638333 0.615673 2.50115 1.73382 0.521884 2.58488 1.74535 0.493235 
2.64437 1.72948 0.50938 2.70155 1.71041 0.566626 2.74682 1.67728 0.633468 
2.78569 1.63661 0.699162 2.82839 1.5992 0.728138 2.88959 1.57199 0.722011 
-0.463455 0.24684 0.0707967 -0.445773 0.306654 0.315385 -0.424754 0.347243 0.448658 
-0.393299 0.390381 0.481254 -0.361495 0.457222 0.422623 2.98555 1.45242 0.843441 
2.99188 1.36572 0.962273 3.01217 1.30238 1.03205 3.03318 1.24169 1.05738 
3.06723 1.19471 1.06251 3.11173 1.14795 1.06088 2.28111 1.64129 0.752333 
2.19096 1.61297 0.872695 2.11859 1.59343 0.917291 2.06253 1.57133 0.899834 
1.99788 1.56305 0.857584 1.93237 1.56876 0.831545 -0.25062 0.566041 0.380588 
-0.18152 0.574756 0.452995 -0.1368 0.599977 0.520447 -0.0935054 0.627814 0.573141 
-0.0391286 0.648691 0.608482 0.00366833 0.679505 0.644035 0.0380199 0.715335 0.694435 
0.0718966 0.750456 0.752206 0.113746 0.779853 0.80247 0.168039 0.800802 0.837813 
0.210843 0.831609 0.873366 0.245195 0.86744 0.923766 0.279155 0.902489 0.981536 
0.322476 0.930623 1.03177 3.11943 1.00812 1.11502 3.08811 0.941979 1.16629 
3.08039 0.868136 1.20342 3.08349 0.790038 1.21847 3.08902 0.712178 1.21879 
3.09518 0.635038 1.21176 3.10252 0.559269 1.20493 3.11634 0.491028 1.19925 
3.13997 0.434187 1.1953 3.15386 0.366022 1.18963 3.16252 0.291788 1.18304 
3.17766 0.225084 1.1776 2.5108 0.127628 0.991029 2.4755 0.16966 1.05246 
2.4395 0.211032 1.10632 2.41254 0.263058 1.15433 2.37521 0.302885 1.20796 
2.33141 0.335191 1.26045 2.2869 0.366835 1.30537 2.24367 0.40044 1.32819 
2.20021 0.434091 1.33609 2.15034 0.460296 1.34286 2.09096 0.475138 1.36283 
2.04757 0.508078 1.40795 2.025 0.565056 1.46667 1.99498 0.614366 1.52417 
1.9263 0.624995 1.56551 1.34629 1.21596 1.18486 1.41053 1.20534 1.23271 
1.47429 1.194 1.28794 1.52341 1.16583 1.33313 1.57278 1.13841 1.35603 
1.63166 1.12235 1.36574 1.68105 1.09543 1.36633 1.72278 1.05962 1.36557 
1.75679 1.01483 1.36345 1.77919 0.956391 1.36672 1.80259 0.898648 1.38753 
1.81359 0.823889 1.43572 1.81974 0.730838 1.50918 
LINES 57 733
23 56 133 134 135 136 137 138 139 140 141 142 143 144 145 146 147 148 149 150 151 152 153 55 
9 56 154 155 156 157 158 159 160 54 
10 56 161 162 163 164 165 166 167 168 45 
36 47 193 194 195 196 197 198 199 200 201 202 203 204 205 206 207 208 209 210 211 212 213 214 215 216 217 218 219 220 221 222 223 224 225 226 46 
4 54 227 228 50 
3 54 229 51 
3 51 261 50 
7 51 262 263 264 265 266 41 
18 47 276 277 278 279 280 281 282 283 284 285 286 287 288 289 290 291 35 
11 46 292 293 294 295 296 297 298 299 300 43 
9 46 301 302 303 304 305 306 307 40 
8 44 308 309 310 311 312 313 42 
14 43 314 315 316 317 318 319 320 321 322 323 324 325 36 
6 41 326 327 328 329 14 
5 40 331 332 333 30 
4 40 334 335 12 
8 38 336 337 338 339 340 341 27 
3 39 342 37 
8 39 343 344 345 346 347 348 38 
9 39 349 350 351 352 353 354 355 27 
15 38 356 357 358 359 360 361 362 363 364 365 366 367 368 9 
7 36 369 370 371 372 373 13 
16 35 374 375 376 377 378 379 380 381 382 383 384 385 386 387 23 
3 12 388 22 
4 12 389 390 33 
22 34 391 392 393 394 395 396 397 398 399 400 401 402 403 404 405 406 407 408 409 410 4 
3 31 415 30 
3 30 416 8 
3 29 417 28 
7 17 418 419 420 421 422 16 
3 17 423 27 
8 27 424 425 426 427 428 429 17 
4 26 430 431 16 
7 24 432 433 434 435 436 23 
6 24 437 438 439 440 23 
7 24 441 442 443 444 445 9 
3 12 446 22 
45 22 447 448 449 450 451 452 453 454 455 456 457 458 459 460 461 462 463 464 465 466 467 468 469 470 471 472 473 474 475 476 477 478 479 480 481 482 483 484 485 486 487 488 489 0 
6 21 490 491 492 493 18 
10 18 498 499 500 501 502 503 504 505 16 
5 15 506 507 508 6 
3 15 509 14 
12 15 510 511 512 513 514 515 516 517 518 519 11 
17 14 520 521 522 523 524 525 526 527 528 529 530 531 532 533 534 9 
7 12 543 544 545 546 547 8 
8 11 548 549 550 551 552 553 6 
16 8 560 561 562 563 564 565 566 567 568 569 570 571 572 573 1 
14 6 574 575 576 577 578 579 580 581 582 583 584 585 3 
17 5 586 587 588 589 590 591 592 593 594 595 596 597 598 599 600 0 
15 2 601 602 603 604 605 606 607 608 609 610 611 612 613 0 
73 50 78 77 76 75 74 73 72 71 70 69 68 67 66 65 64 63 62 61 60 59 58 79 80 81 82 83 84 85 86 87 88 89 90 91 92 93 94 95 96 97 98 99 100 101 102 103 104 105 106 107 108 109 110 111 112 113 114 115 116 117 118 119 120 121 122 123 124 125 126 127 128 36 
15 57 129 130 131 132 48 230 231 232 233 234 235 236 237 43 
36 47 169 170 171 172 173 174 175 176 177 178 179 180 181 182 183 184 185 186 187 188 189 190 191 192 49 267 268 269 270 271 272 273 274 275 35 
26 53 238 239 240 241 242 243 244 245 246 247 248 249 250 52 251 252 253 254 255 256 257 258 259 260 47 
8 41 330 25 414 413 412 411 32 
7 19 495 494 20 496 497 18 
17 11 542 541 540 539 538 537 536 535 10 554 555 556 557 558 559 7 

POINT_DATA 614
SCALARS DY_raw double
LOOKUP_TABLE default
127.765 136.288 143.787 141.038 128.815 95.768 153.816 159.62 156.518 
139.096 171.375 125.323 109.205 133.852 139.607 139.959 204.478 145.798 
141.856 191.954 150.206 89.877 118.225 151.2 126.582 101.29 138.637 
153.01 160.582 139.528 115.674 137.412 122.676 182.468 104.591 140.55 
115.571 126.333 96.32 89.1601 144.495 94.6189 128.275 146.743 57.2056 
124.369 118.153 123.723 105.126 112.875 114.634 114.827 147.116 104.19 
118.257 183.984 94.9582 121.41 144.192 138.7 137.479 132.762 123.545 
136.618 109.569 132.205 137.815 132.581 137.263 120.331 120.331 104.426 
103.75 109.534 99.8707 109.41 121.854 140.313 129.846 162.714 178.279 
196.173 210.149 216.598 216.598 197.587 188.13 188.13 185.192 176.727 
193.56 190.017 195.753 206.877 175.513 184.66 177.845 166.615 202.232 
203.618 213.058 213.058 210.85 205.16 198.578 204.688 222.556 188.909 
169.653 171.846 163.453 141.337 122.954 133.687 122.784 127.764 135.772 
113.236 119.223 120.23 118.379 120.378 108.919 103.578 103.578 91.4541 
105.871 109.3 114.293 116.808 101.016 96.1767 103.959 94.9582 104.371 
118.675 115.392 137.213 140.694 147.15 150.282 150.282 150.818 140.724 
140.724 126.125 122.289 122.289 111.002 119.103 119.103 125.002 140.087 
159.683 92.8504 97.5425 90.7676 89.6233 88.646 95.3215 107.442 100.561 
99.1544 121.338 137.366 105.44 119.277 107.472 114.134 112.175 96.501 
99.8803 99.8803 104.884 103.957 124.054 153.535 153.535 169.422 172.893 
172.893 156.559 147.233 147.233 125.195 125.195 134.955 138.922 138.922 
144.875 138.046 126.375 110.489 123.308 125.917 134.972 184.6 181.743 
188.668 221.298 192.608 197.548 185.622 185.622 199.362 199.362 192.5 
178.727 178.727 188.39 187.8 187.8 164.513 157.513 157.513 155.187 
160.908 160.908 156.174 158.039 156.235 135.063 138.993 131.958 119.081 
138.898 132.747 127.762 117.319 119.129 135.08 135.191 134.935 139.4 
127.144 118.037 117.346 130.092 104.19 100.266 102.129 107.421 116.894 
115.527 113.502 113.502 123.766 135.263 150.15 153.142 162.531 161.946 
151.131 136.819 137.616 122.412 143.839 142.273 141.398 135.747 126.527 
125.698 117.055 105.492 115.26 95.1394 89.3684 122.965 130.764 126.117 
125.204 131.633 128.557 121.693 124.403 138.086 107.058 113.161 110.077 
102.836 90.4229 88.1787 109.936 95.2995 108.47 117.51 126.206 130.337 
129.166 131.059 125.586 122.776 110.089 109.36 119.839 136.026 133.837 
140.036 122.416 127.72 139.265 112.878 117.162 117.818 124.026 132.011 
141.365 127.659 95.8384 75.7434 80.5324 99.4335 118.661 117.854 169.612 
171.326 138.747 138.984 155.781 130.341 129.296 129.296 136.682 147.526 
151.106 136.662 94.5813 117.739 124.819 135.452 91.2625 142.488 129.168 
116.688 142.646 123.218 94.4934 82.9734 103.173 102.997 126.187 149.716 
137.362 94.5363 123.227 123.227 128.01 124.417 103.259 83.7938 93.3566 
118.987 172.101 175.414 171.141 156.627 96.9447 107.419 98.7765 116.979 
117.601 127.831 130.214 133.566 137.071 137.071 145.382 149.506 147.538 
124.636 126.304 118.096 120.305 124.892 119.072 128.549 141.513 146.442 
139.2 156.764 173.28 154.924 156.935 162.246 162.246 163.623 152.168 
159.166 118.702 140.828 150.052 102.486 100.424 104.068 112.726 123.467 
130.99 137.736 129.481 124.3 130.874 136.259 136.259 125.967 109.014 
116.299 121.864 121.611 119.813 119.379 120.325 122.676 115.613 112.332 
106.4 126.175 137.76 160.582 149.209 168.315 187.934 185.439 210.958 
153.9 159.575 173.629 192.606 183.831 165.885 162.463 157.826 127.371 
112.088 118.828 126.254 140.822 144.83 131.474 136.369 161.163 155.655 
130.694 123.792 120.138 120.304 120.304 118.702 106.798 101.348 106.431 
90.9028 99.0243 96.8049 105.929 123.731 124.244 117.843 123.182 138.357 
143.12 141.819 148.48 142.923 122.909 122.909 107.011 111.499 120.268 
115.017 115.779 118.539 113.388 119.464 120.83 126.26 131.228 138.564 
143.08 143.08 151.031 145.562 145.562 129.864 127.586 136.943 178.139 
178.139 175.781 157.715 133.419 142.421 144.513 147.277 147.967 160.444 
178.663 146.679 151.153 135.943 149.876 147.624 143.654 154.436 149.866 
143.56 158.899 137.887 103.941 122.66 139.607 147.892 136.654 146.262 
149.139 149.139 139.761 126.56 129.626 127.001 136.65 146.092 155.894 
146.46 137.554 131.107 129.806 138.883 132.853 142.101 150.3 157.226 
158.457 168.773 156.047 148.678 142.272 114.394 113.904 115.709 109.216 
110.306 108.435 107.214 145.307 173.24 179.201 191.266 175.491 133.284 
176.3 216.541 179.661 161.656 172.554 138.703 136.241 141.504 137.649 
130.932 146.117 152.174 144.081 144.526 129.964 129.964 114.128 116.76 
128.042 121.636 131.293 132.998 125.933 135.445 130.797 175.563 169.59 
163.176 159.068 198.799 182.784 192.699 152.053 147.712 159.378 139.29 
148.14 101.827 104.817 99.0762 104.467 107.987 106.245 114.745 114.745 
90.2211 90.2211 86.0867 76.7199 78.762 75.2475 92.7494 106.933 106.192 
117.54 136.763 128.201 129.432 139.97 139.97 133.504 116.571 122.174 
119.088 112.582 
FIELD FieldData 7
DY_minmax 1 614 double
0.426725 0.47827 0.523622 0.506996 0.433079 0.233217 0.584278 0.619377 0.600616 
0.495256 0.690469 0.411956 0.314483 0.463538 0.498345 0.500474 0.890671 0.535784 
0.511944 0.814926 0.562443 0.197589 0.36903 0.568456 0.419572 0.266613 0.49248 
0.579403 0.625195 0.497867 0.353602 0.485069 0.395951 0.75756 0.286578 0.504045 
0.352978 0.418066 0.236555 0.193253 0.527906 0.226267 0.429811 0.541501 0 
0.406186 0.368598 0.402281 0.289814 0.336675 0.347313 0.348478 0.54376 0.284153 
0.369227 0.766729 0.228319 0.388296 0.526071 0.492862 0.485475 0.456946 0.401202 
0.480271 0.31668 0.453579 0.487505 0.455855 0.484169 0.38177 0.38177 0.28558 
0.28149 0.316472 0.258029 0.315719 0.390979 0.502616 0.439315 0.638089 0.732227 
0.840444 0.924968 0.963966 0.963966 0.848996 0.791798 0.791798 0.774031 0.72284 
0.824642 0.80321 0.837905 0.90518 0.715499 0.770813 0.7296 0.66168 0.877086 
0.885471 0.942558 0.942558 0.929203 0.894791 0.854989 0.891937 1 0.79651 
0.680054 0.69332 0.642558 0.508808 0.397631 0.462544 0.396602 0.426721 0.475151 
0.338862 0.375065 0.381158 0.369961 0.382054 0.312751 0.280452 0.280452 0.207127 
0.294318 0.315056 0.34525 0.360463 0.264957 0.235689 0.282753 0.228319 0.285247 
0.371753 0.351898 0.483864 0.504921 0.543964 0.562906 0.562906 0.566143 0.505098 
0.505098 0.416807 0.393612 0.393612 0.32535 0.374343 0.374343 0.41002 0.501247 
0.619758 0.215572 0.243948 0.202975 0.196055 0.190144 0.230516 0.303817 0.262206 
0.253697 0.387859 0.48479 0.291713 0.375396 0.303999 0.344291 0.332441 0.23765 
0.258087 0.258087 0.288346 0.282743 0.404283 0.582578 0.582578 0.678658 0.699649 
0.699649 0.600864 0.544463 0.544463 0.411185 0.411185 0.470212 0.494202 0.494202 
0.530202 0.488904 0.418319 0.322246 0.399773 0.415553 0.470311 0.770449 0.753172 
0.795051 0.99239 0.818885 0.848761 0.776631 0.776631 0.859727 0.859727 0.818227 
0.73493 0.73493 0.793374 0.789805 0.789805 0.64897 0.606637 0.606637 0.592571 
0.627171 0.627171 0.598539 0.609819 0.598906 0.470866 0.494632 0.452086 0.37421 
0.494059 0.456858 0.426708 0.36355 0.374497 0.470966 0.471635 0.47009 0.497092 
0.422971 0.367897 0.363715 0.440802 0.284153 0.260422 0.271685 0.303692 0.360985 
0.352716 0.340469 0.340469 0.402544 0.472073 0.562107 0.580202 0.636986 0.633443 
0.568038 0.481485 0.486303 0.394354 0.523939 0.51447 0.509174 0.474998 0.419237 
0.414229 0.361954 0.292023 0.351097 0.229415 0.194513 0.397696 0.444865 0.416759 
0.411236 0.450117 0.431517 0.390002 0.406394 0.489146 0.301495 0.338406 0.319754 
0.275964 0.200891 0.187318 0.318903 0.230383 0.310037 0.364707 0.417298 0.442283 
0.435203 0.446651 0.413549 0.396555 0.31983 0.315418 0.378794 0.476685 0.463451 
0.500942 0.394377 0.426456 0.496273 0.336693 0.3626 0.366572 0.404113 0.452406 
0.508974 0.426088 0.233642 0.112112 0.141075 0.255384 0.371666 0.366787 0.679809 
0.690171 0.493145 0.494575 0.59616 0.442309 0.435984 0.435984 0.480654 0.546238 
0.567889 0.480533 0.226039 0.366093 0.40891 0.473215 0.205968 0.515766 0.435211 
0.359733 0.516722 0.399226 0.225508 0.155838 0.278003 0.276936 0.417186 0.559483 
0.484769 0.225768 0.399281 0.399281 0.428206 0.406478 0.278519 0.160799 0.218633 
0.373638 0.694858 0.714899 0.689052 0.601275 0.240333 0.303681 0.251411 0.361497 
0.365259 0.427128 0.441535 0.461813 0.483006 0.483006 0.533268 0.558209 0.54631 
0.407803 0.417888 0.368253 0.381609 0.409349 0.374151 0.431466 0.509871 0.539683 
0.495885 0.602108 0.701993 0.590978 0.603141 0.635258 0.635258 0.643589 0.574309 
0.616632 0.371915 0.505732 0.561512 0.273845 0.261374 0.283413 0.335776 0.400735 
0.446229 0.487027 0.437108 0.405769 0.445532 0.478097 0.478097 0.415854 0.313327 
0.357382 0.391039 0.38951 0.378634 0.376013 0.381729 0.395951 0.353234 0.333391 
0.297517 0.417109 0.487176 0.625195 0.556416 0.671967 0.790613 0.775526 0.929859 
0.584785 0.619108 0.704104 0.81887 0.765802 0.65727 0.636573 0.608531 0.424345 
0.331918 0.372678 0.417587 0.505695 0.52993 0.449161 0.478759 0.628709 0.5954 
0.444442 0.402698 0.380603 0.381604 0.381604 0.371915 0.299921 0.266961 0.297703 
0.203793 0.25291 0.239487 0.294671 0.402332 0.405432 0.366721 0.39901 0.490782 
0.519588 0.511724 0.552006 0.518398 0.397361 0.397361 0.301213 0.328352 0.381385 
0.349632 0.354238 0.370929 0.339777 0.376527 0.384783 0.417627 0.447669 0.492039 
0.519349 0.519349 0.567434 0.534361 0.534361 0.439422 0.425642 0.482232 0.73138 
0.73138 0.717114 0.607856 0.460921 0.515365 0.528015 0.544733 0.548903 0.62436 
0.734545 0.541114 0.568169 0.476183 0.560449 0.546828 0.52282 0.588029 0.560391 
0.522253 0.61502 0.487943 0.282643 0.395855 0.498345 0.54845 0.480483 0.538591 
0.55599 0.55599 0.499274 0.419438 0.437982 0.422104 0.480459 0.537563 0.596842 
0.539789 0.485931 0.446937 0.439072 0.493969 0.457498 0.513429 0.563013 0.604903 
0.612346 0.674737 0.59777 0.553205 0.514464 0.345864 0.342899 0.353814 0.314548 
0.321141 0.309823 0.30244 0.532818 0.701749 0.737802 0.810766 0.71536 0.460103 
0.720256 0.963626 0.740579 0.631692 0.6976 0.49288 0.477989 0.509818 0.486504 
0.44588 0.537716 0.574347 0.5254 0.528092 0.440028 0.440028 0.344257 0.360174 
0.428402 0.38966 0.448061 0.458378 0.415647 0.473174 0.445065 0.715799 0.679672 
0.640885 0.616037 0.856323 0.759471 0.819436 0.573617 0.547362 0.617913 0.496429 
0.54995 0.269861 0.287941 0.253224 0.285826 0.307114 0.296577 0.347984 0.347984 
0.19967 0.19967 0.174667 0.118018 0.130368 0.109113 0.214961 0.300741 0.296259 
0.364888 0.481146 0.429365 0.436808 0.500541 0.500541 0.461433 0.359025 0.392917 
0.374253 0.334907 
WidthEq 1 614 double
3.14975 2.9023 2.94761 3.16367 4.23076 2.22054 3.01989 2.47706 5.02383 
4.70449 2.73072 3.09798 6.26129 2.84514 3.59306 3.44806 1.57683 2.31771 
1.84622 1.24867 1.33528 1 6.08305 4.09436 5.61002 4.60032 1.58404 
2.2933 1.45644 1.22382 6.54372 4.74083 3.20541 3.37635 6.64593 3.99508 