# vtk DataFile Version 3.0
vtk output
ASCII
DATASET POLYDATA
POINTS 943 float
1.1118 -0.867532 0.667907 1.2096 -0.920878 0.13288 1.23805 -0.699832 0.342276 
1.37618 -0.663558 0.538484 1.96636 -0.530581 0.0668105 0.523717 -0.652102 0.166165 
-0.23963 -0.502048 -0.195396 2.05723 -0.459761 0.344627 2.32293 -0.732566 -0.342722 
-0.422279 -0.364517 -0.412531 -0.469493 -0.303852 -0.213678 0.388771 0.563291 0.85017 
0.539687 0.622918 0.96416 6.10305 -0.413378 0.0850489 5.64966 -0.310894 0.154031 
5.19314 -0.208005 0.275772 6.27166 -0.166521 0.475729 -0.4478 0.118709 -0.304212 
5.3105 0.0394888 0.605533 -0.575546 0.496298 0.224686 1.4265 0.783688 0.882467 
0.218447 0.95551 0.799743 0.610805 1.11361 1.01492 5.97784 -0.432567 -0.380465 
5.48159 -0.0910398 -0.418956 4.89506 -0.272496 -0.280129 6.25564 -0.0954013 0.220905 
-0.579342 0.50466 -0.119647 1.86106 0.770451 0.703274 2.04802 0.923171 0.959689 
0.71841 1.07373 0.942862 1.62202 1.1557 0.9863 4.5179 0.275248 -0.485266 
4.98426 0.575698 0.500444 2.18599 0.825072 0.307128 2.56864 0.924236 0.579456 
4.65344 0.0305458 -0.948046 6.56822 -0.0535587 -0.374046 4.24753 0.178536 -0.448249 
-0.642599 1.08516 0.0054332 2.37953 -0.16289 -1.63561 -0.0677081 0.251547 -1.58458 
-0.540881 0.458972 -1.29331 -0.392187 0.901074 -0.574789 4.69333 0.0927775 -1.2059 
5.40028 0.0792134 -1.09981 -0.0561836 0.277688 -1.78158 4.46947 0.222118 -1.0568 
5.38194 0.17335 -0.96555 4.39323 0.424338 -0.89357 3.31481 0.494364 -0.864687 
4.96878 1.18164 0.433964 6.15905 1.19007 0.658245 5.25447 0.417613 -1.61814 
2.69203 0.246437 -1.81232 5.19055 0.310357 -1.15534 6.95941 0.404228 -0.821818 
6.97243 0.958412 -0.158125 4.38449 1.38871 0.276557 4.90384 1.50379 0.537179 
1.37389 2.10296 0.783914 2.89051 0.425299 -1.7529 3.09806 0.736477 -1.70616 
3.27665 0.667982 -1.32958 3.46361 0.820702 -1.07316 3.61452 0.880329 -0.959174 
3.8742 0.93787 -0.828862 5.08031 0.29779 -1.90509 -0.366501 1.55897 -1.03255 
4.4697 1.66693 -0.13217 4.85714 1.71 0.0392996 2.62871 0.63447 -2.20568 
6.39565 0.875699 -1.46908 3.40711 1.08846 -1.40379 -0.255916 1.52898 -1.64979 
4.32419 1.66483 -0.398405 4.81362 1.65544 -0.324963 6.70013 0.945305 -1.6196 
3.30613 1.31751 -1.443 3.41425 1.59679 -1.01573 4.70042 1.94725 -0.274663 
6.7003 1.9714 0.116777 1.76866 2.53495 0.0618351 5.40004 0.847968 -2.11197 
2.21682 1.21578 -2.42619 3.07117 1.57062 -1.94545 0.0691387 2.6154 -0.835046 
7.23948 1.67331 -1.29033 4.83931 2.31333 -0.782719 3.03861 2.37914 -1.00725 
6.24878 2.57593 -0.503931 0.701252 2.96372 -0.925326 5.27964 1.97759 -1.90657 
5.82512 2.2255 -1.8031 2.06606 2.61024 -1.91045 1.82408 2.73993 -1.76407 
2.25302 2.76296 -1.65403 2.30443 2.73759 -1.62922 2.35438 2.69999 -1.59617 
2.40379 2.65527 -1.56044 2.45504 2.61094 -1.53701 2.51022 2.57614 -1.53847 
2.56466 2.55503 -1.53327 2.61837 2.52777 -1.52398 2.67155 2.47357 -1.51462 
2.72362 2.41518 -1.49838 2.77758 2.34711 -1.49596 2.83244 2.27438 -1.50018 
2.88471 2.19518 -1.48794 2.93346 2.12419 -1.45118 2.98443 2.07144 -1.42691 
3.04116 2.02868 -1.43974 3.10058 1.99134 -1.47052 3.15619 1.93469 -1.49066 
3.20034 1.866 -1.50406 3.22696 1.79156 -1.51582 3.25859 1.71702 -1.52683 
3.28022 1.61828 -1.52224 3.30253 1.48296 -1.4919 1.7628 2.6874 -1.73311 
1.70115 2.64665 -1.69817 1.6391 2.62775 -1.65775 1.57984 2.62415 -1.63402 
1.5215 2.63566 -1.61441 1.46576 2.64363 -1.6127 1.41095 2.64688 -1.61771 
1.35524 2.65478 -1.61609 1.29786 2.67121 -1.6023 1.24237 2.67796 -1.60233 
1.18985 2.67932 -1.62287 1.1409 2.68212 -1.66704 1.09289 2.69991 -1.7155 
1.04493 2.70757 -1.76558 0.993422 2.69384 -1.7948 0.940625 2.64721 -1.81961 
0.886142 2.58945 -1.83461 0.828865 2.54604 -1.82916 0.769748 2.50218 -1.8115 
0.71173 2.45268 -1.80189 0.657247 2.39492 -1.81689 0.60445 2.34828 -1.84171 
0.54998 2.31024 -1.85427 0.494602 2.25708 -1.86272 0.437705 2.20181 -1.86132 
0.382328 2.14865 -1.86977 0.327858 2.1106 -1.88234 0.275814 2.06999 -1.9114 
0.22303 2.02329 -1.93631 0.16856 1.98524 -1.94888 0.113181 1.93207 -1.95732 
0.0562621 1.87694 -1.95575 -0.0035989 1.79369 -1.93865 -0.0702403 1.70908 -1.88522 
-0.152704 1.61969 -1.78008 2.08704 2.57364 -1.94701 2.13028 2.53003 -1.96347 
2.18129 2.47667 -1.95327 2.23493 2.40964 -1.94937 2.28922 2.34974 -1.94814 
2.34315 2.32138 -1.94043 2.39857 2.30512 -1.94114 2.45677 2.27458 -1.9622 
2.5146 2.22618 -1.98308 2.57005 2.17021 -1.98907 2.62382 2.12289 -1.98273 
2.68055 2.08013 -1.99556 2.73726 2.03743 -2.0083 2.79082 1.9912 -2.00039 
2.84199 1.91765 -1.98012 2.89214 1.84296 -1.95289 2.94488 1.75821 -1.93991 
3.00356 1.66943 -1.94053 5.8115 2.17777 -1.70391 5.81252 2.15415 -1.61962 
5.84402 2.16042 -1.55212 5.88952 2.18471 -1.49534 5.93757 2.21505 -1.44246 
5.98393 2.24543 -1.38983 6.02041 2.27599 -1.33869 6.04181 2.30684 -1.2898 
6.07637 2.33744 -1.23895 6.11094 2.36803 -1.18809 6.13223 2.39889 -1.13922 
6.16668 2.42949 -1.08838 6.19934 2.46012 -1.0378 6.2081 2.48512 -0.986544 
6.21357 2.49799 -0.927227 6.22998 2.49236 -0.853447 6.23238 2.4809 -0.777495 
6.23553 2.47552 -0.705707 6.25406 2.48814 -0.64443 6.25899 2.51321 -0.593744 
6.25479 2.54455 -0.548703 5.28723 2.0087 -1.85976 5.30799 2.03956 -1.81097 
5.31366 2.07072 -1.76445 5.30936 2.10206 -1.71942 5.30143 2.13347 -1.67494 
5.28342 2.16508 -1.63197 5.24854 2.19695 -1.59162 5.21705 2.22766 -1.55237 
5.17002 2.25182 -1.52544 5.11547 2.25361 -1.51936 5.06008 2.23071 -1.52314 
5.00447 2.17871 -1.52992 4.94778 2.12241 -1.53001 4.89384 2.06245 -1.54814 
4.84441 2.00885 -1.58253 4.80696 1.95398 -1.61663 4.79483 1.88638 -1.63849 
4.79383 1.81246 -1.65438 4.79742 1.74455 -1.67388 4.81501 1.69467 -1.70409 
4.85893 1.65646 -1.73889 4.90371 1.62434 -1.77785 4.92554 1.59266 -1.82024 
4.94749 1.56098 -1.86262 4.99354 1.52274 -1.89711 5.04979 1.47211 -1.92152 
5.10499 1.39712 -1.92899 5.15569 1.28413 -1.91068 5.19786 1.09806 -1.84672 
5.22967 0.807372 -1.7379 0.739894 2.91493 -0.81838 0.781704 2.88943 -0.729573 
0.828343 2.88857 -0.669795 0.879106 2.89621 -0.636403 0.930251 2.91178 -0.604556 
0.983295 2.9176 -0.586606 1.03746 2.91766 -0.576875 1.09183 2.91668 -0.568626 
1.14546 2.90961 -0.556212 1.1974 2.89143 -0.533993 1.24601 2.8607 -0.491158 
1.29219 2.83252 -0.431817 1.3408 2.80179 -0.388982 1.39274 2.7836 -0.366764 
1.44637 2.77654 -0.35435 1.50074 2.77556 -0.3461 1.55416 2.76953 -0.332205 
1.60424 2.75102 -0.297603 1.64872 2.71186 -0.228293 1.69058 2.64652 -0.144945 
1.72981 2.58484 -0.0435403 3.06131 2.33071 -0.902609 3.06021 2.30714 -0.818639 
3.03934 2.31441 -0.759001 2.99202 2.34048 -0.716154 2.93354 2.37287 -0.679257 
2.87315 2.40529 -0.642646 2.81266 2.43771 -0.606052 2.75216 2.47013 -0.569457 
2.69092 2.49647 -0.528698 2.62821 2.51065 -0.479616 2.56337 2.50658 -0.41803 
2.49959 2.49639 -0.352004 2.44645 2.49203 -0.288755 2.41072 2.50459 -0.237226 
2.36261 2.52384 -0.204487 2.30725 2.53968 -0.191213 2.24952 2.55843 -0.17409 
2.19247 2.5732 -0.162672 2.13465 2.5919 -0.145656 2.07685 2.60059 -0.130074 
2.0168 2.60104 -0.10057 1.9553 2.57932 -0.0641768 1.89228 2.5555 -0.0179258 
1.83057 2.53482 0.019948 4.78426 2.26031 -0.68547 4.7511 2.18247 -0.567835 
4.72592 2.074 -0.427636 7.21892 1.69887 -1.24347 7.18371 1.71252 -1.19026 
7.16062 1.70155 -1.11813 7.14508 1.67215 -1.03205 7.12731 1.6245 -0.93348 
7.09892 1.57096 -0.832225 7.05075 1.49189 -0.715788 7.00559 1.37146 -0.570252 
6.9653 1.18762 -0.381399 0.0614392 2.58428 -0.881874 0.0386715 2.55346 -0.930962 
0.0184445 2.51648 -0.975394 -0.0193019 2.47376 -1.01819 -0.0659766 2.42511 -1.05804 
-0.103832 2.38237 -1.10084 -0.126708 2.33936 -1.1414 -0.164237 2.28444 -1.17561 
-0.205364 2.1991 -1.18898 -0.23597 2.07698 -1.17513 -0.275493 1.92455 -1.14125 
-0.312761 1.7477 -1.08994 3.13997 1.57427 -1.85756 3.193 1.55769 -1.78007 
3.23714 1.50402 -1.70125 3.27395 1.42214 -1.58584 3.05336 1.40856 -1.93386 
3.0418 1.22537 -1.8872 3.04909 0.999769 -1.80581 2.12745 1.26438 -2.40539 
2.0613 1.28764 -2.4069 2.00558 1.29522 -2.4163 1.95199 1.30359 -2.42944 
1.90004 1.32184 -2.45157 1.85121 1.35367 -2.49283 1.80371 1.38865 -2.54247 
1.75208 1.43488 -2.56319 1.6986 1.46097 -2.57413 1.64343 1.47595 -2.57527 
1.58601 1.49255 -2.56123 1.53009 1.5015 -2.55811 1.47417 1.51045 -2.555 
1.41676 1.52706 -2.54096 1.36083 1.53601 -2.53784 1.30491 1.54496 -2.53472 
1.24751 1.56151 -2.52077 1.19179 1.56942 -2.51914 1.13697 1.57273 -2.52407 
1.08103 1.58174 -2.52086 1.02232 1.60503 -2.49729 0.963592 1.62838 -2.47363 
0.907455 1.63843 -2.46895 0.85078 1.64136 -2.46157 0.791142 1.63973 -2.43505 
0.730772 1.61219 -2.40696 0.669649 1.57862 -2.37461 0.607572 1.55984 -2.33402 
0.548101 1.55735 -2.30871 0.488428 1.57566 -2.2794 0.428947 1.59299 -2.25149 
0.370599 1.58473 -2.23441 0.309679 1.55013 -2.20355 0.245232 1.49408 -2.15193 
0.179467 1.39591 -2.09618 0.110604 1.28386 -2.00854 0.0526627 1.13646 -1.91786 
0.0233831 0.952153 -1.84086 0.00396788 0.741249 -1.76143 -0.0231169 0.50676 -1.67387 
6.6143 0.922585 -1.5967 6.54322 0.895542 -1.56319 6.47297 0.88038 -1.50669 
6.71714 0.876587 -1.66864 6.71207 0.815786 -1.70565 6.67497 0.756083 -1.73799 
6.62285 0.680205 -1.75708 6.56573 0.59695 -1.75707 6.50496 0.522022 -1.73237 
6.44695 0.472524 -1.72276 6.39337 0.439759 -1.74063 6.34053 0.432895 -1.76007 
6.28695 0.419946 -1.77534 6.23485 0.399399 -1.80146 6.18031 0.381482 -1.81099 
6.12391 0.363229 -1.80815 6.06637 0.340926 -1.79826 6.00941 0.335452 -1.79005 
5.95577 0.362338 -1.79986 5.90863 0.385535 -1.85346 5.86074 0.402702 -1.90279 
5.80391 0.406433 -1.8943 5.74095 0.377265 -1.85285 5.6636 0.345182 -1.7829 
5.52444 0.351889 -1.70502 5.34294 0.634837 -1.88054 1.69482 2.4579 0.17336 
1.62099 2.38078 0.284802 1.54811 2.30871 0.390592 1.47877 2.24917 0.475803 
1.41781 2.20525 0.53258 1.3783 2.18173 0.59662 1.37805 2.15094 0.683391 
6.73544 1.86022 0.131944 6.75123 1.77988 0.122836 6.77052 1.74216 0.0843269 
6.80913 1.74063 0.023082 6.84337 1.7453 -0.0431 6.88241 1.73157 -0.0957358 
6.91126 1.67537 -0.119982 6.95307 1.58844 -0.12091 7.00075 1.48312 -0.108144 
[...]
POINT_DATA 943
SCALARS DY_raw double
LOOKUP_TABLE default
188.702 167.056 148.518 135.253 103.922 146.569 149.066 100.407 152.333 
175.434 160.52 149.871 140.206 136.377 128.99 110.776 114.712 97.3414 
119.735 121.751 133.423 148.544 139.257 119.805 122.604 134.791 75.1558 
119.32 148.554 146.571 138.116 133.146 121.382 115.738 102.986 87.8306 
137.162 114.916 147.433 135.027 94.2425 151.404 145.75 125.127 174.408 
101.015 173.107 145.112 75.2652 95.3037 105.86 128.953 58.6558 125.507 
111.539 89.2413 100.566 132.62 153.925 118.87 148.463 94.4311 98.3105 
99.1966 106.976 91.5284 70.7502 158.245 152.652 131.288 102.047 87.0147 
84.5231 79.1941 118.499 213.171 124.579 90.4154 89.9997 93.5078 106.846 
66.681 88.4108 143.45 125.09 93.986 83.5771 196.872 107.884 106.954 
105.071 163.143 118.564 107.974 196.18 140.801 160.246 174.663 188.631 
166.579 157.256 157.256 132.417 158.889 146.922 149.044 174.52 170.401 
138.07 149.038 123.624 121.2 128.108 141.645 145.04 139.919 125.39 
112.87 93.762 165.637 179.102 188.067 167.005 167.005 161.957 146.351 
146.351 154.058 158.142 158.142 176.012 172.022 163.876 144.857 147.38 
143.696 132.282 140.438 137.368 135.895 142.039 144.118 143.056 122.992 
130.008 116.62 116.435 120.832 119.675 112.408 113.258 110.743 110.798 
118.127 180.342 148.497 149.329 156.163 161.673 154.469 153.368 125.154 
125.544 130.651 123.402 136.226 132.137 110.321 130.229 117.524 114.166 
101.83 126.115 123.306 107.743 110.049 101.824 107.078 113.213 119.497 
118.587 121.81 144.3 144.3 133.624 133.367 122.48 130.02 122.945 
122.157 114.349 103.99 103.99 118.564 109.803 106.829 106.829 106.635 
112.477 112.477 108.194 106.499 102.77 106.97 107.932 102.178 98.7916 
103.713 103.998 108.1 116.935 127.301 125.185 119.297 122.601 107.058 
111.532 115.492 120.22 112.721 126.718 124.878 98.0723 139.759 131.253 
116.999 97.3564 103.736 103.736 117.229 117.229 112.461 114.429 135.51 
146.996 142.634 160.545 134.481 123.562 123.562 122.74 127.249 127.092 
92.9783 100.747 111.09 106.114 118.691 119.14 94.598 124.558 107.071 
93.0384 102.75 104.902 120.825 157.761 148.569 158.814 153.04 153.04 
133.264 129.414 108.441 103.351 92.1071 101.095 95.5709 112.21 109.141 
117.532 137.588 146.691 126.315 99.208 130.903 106.027 113.803 128.371 
147.119 108.973 108.973 111.464 104.14 109.042 96.2628 92.1423 93.9499 
96.0463 98.3283 112.63 124.586 88.356 89.9766 97.8299 98.5235 104.921 
115.226 104.757 122.251 136.528 148.456 159.928 161.649 173.444 156.633 
141.48 121.466 121.466 148.667 155.647 126.581 141.98 124.279 124.279 
119.042 119.042 103.941 111.059 111.059 99.436 100.391 82.9257 97.4195 
105.534 133.214 133.214 137.404 141.822 114.7 119.199 103.924 113.766 
118.622 119.118 117.365 120.179 140.629 153.441 100.383 96.3573 90.8768 
93.5761 107.512 115.21 114.831 107.125 105.088 100.435 94.9662 91.5728 
99.3391 95.9146 90.8013 91.9627 91.9627 90.2755 97.0251 93.681 105.097 
127.052 140.679 150.062 150.655 150.963 102.022 99.605 97.6472 104.405 
126.486 131.941 137.561 82.9141 91.5405 108.849 108.849 99.3692 116.576 
111.06 115.48 125.252 119.987 122.626 117.68 114.573 109.294 113.448 
120.82 122.395 109.322 103.231 114.163 154.099 173.59 138.504 158.098 
122.724 116.222 121.216 117.712 131.292 126.969 120.649 123.377 133.248 
129.763 127.13 113.353 97.3056 125.24 125.21 127.972 140.567 134.801 
136.68 138.343 136.47 93.2636 98.4691 103.352 118.419 132.856 115.92 
112.956 126.46 141.222 108.374 117.85 104.864 129.396 141.712 84.9373 
100.274 104.315 87.8948 97.8227 98.4116 77.355 88.1677 95.7374 98.3202 
118.147 118.147 122.065 97.1905 97.1905 91.223 90.9198 92.1084 92.1084 
91.8329 105.514 109.098 120.727 107.528 134.813 151.807 176.274 151.717 
156.424 156.318 109.581 110.628 105.701 115.098 122.679 126.134 126.03 
152.455 160.002 163.329 166.785 155.966 140.623 82.057 97.3084 110.453 
117.32 92.6161 104.866 116.291 98.6441 96.5837 107.786 90.6554 90.4465 
91.2027 106.789 107.009 107.952 102.969 114.081 106.054 97.4697 93.6554 
96.2594 100.872 118.87 122.124 128.022 136.53 124.41 147.789 149.949 
156.832 132.852 126.139 143.109 138.955 132.599 130.036 119.502 110.491 
100.017 78.1354 63.859 116.985 121.029 117.532 106.373 98.3179 93.1864 
93.1864 89.5283 89.1002 88.3726 91.9172 91.6006 130.091 111.759 122.809 
121.129 113.281 112.902 99.6051 95.5979 123.435 129.391 128.143 113.073 
108.712 117.448 125.369 110.1 101.001 107.356 117.955 124.37 130.918 
142.584 157.751 159.168 133.409 92.1866 91.4077 104.14 99.8885 101.007 
109.032 129 133.033 129.851 113.615 127.073 115.3 115.908 115.908 
113.241 110.594 110.594 128.254 140.482 147.664 147.662 115.883 115.866 
134.472 149.741 108.464 125.579 137.763 81.899 101.015 140.401 144.299 
144.712 148.279 185.735 160.357 157.67 160.034 125.119 115.985 101.584 
135.422 123.547 147.171 151.632 123.864 133.177 152.692 158.518 122.996 
132.435 142.279 130.446 152.803 156.908 151.968 141.635 138.434 140.794 
96.5645 105.087 108.347 110.818 111.713 121.4 111.184 118.568 127.675 
144.54 149.205 151.208 155.332 101.494 113.782 109.599 91.3598 98.9642 
87.1255 93.6587 110.246 97.4931 91.5974 98.7802 93.1938 107.873 94.7809 
105.121 109.85 107.995 101.01 119.798 129.052 163.771 186.272 151.852 
150.351 150.351 122.026 122.026 114.034 124.318 132.29 137.502 134.716 
146.559 139.85 135.027 123.085 113.346 110.816 116.702 116.702 132.57 
130.995 130.995 123.663 112.026 112.026 121.997 134.03 145.044 139.753 
139.843 103.399 121.342 128.323 137.702 131.639 112.524 109.526 94.3024 
108.382 116.35 114 113.499 114.839 120.233 133.445 131.065 97.3856 
105.962 117.016 120.354 118.974 115.557 115.557 113.54 94.5951 94.5951 
103.289 100.079 92.108 73.8086 123.206 130.086 138.586 132.872 128.668 
112.634 103.381 112.063 133.973 154.437 156.889 155.322 139.619 142.291 
144.452 140.737 159.937 159.937 162.744 143.684 143.684 120.115 131.554 
131.554 141.421 140.307 146.563 138.732 142.087 125.407 107.546 125.794 
138.37 140.311 133.152 141.126 134.583 146.571 109.492 121.686 118.547 
104.273 104.282 114.423 143.539 138.656 137.529 134.555 148.364 111.835 
124.986 138.394 142.83 107.994 122.3 134.878 146.063 137.151 127.905 
120.561 126.37 130.273 128.015 143.108 138.934 137.726 131.439 119.642 
117.347 137.943 132.987 125.933 112.862 109.514 120.196 138.321 127.85 
128.767 148.41 144.568 150.034 143.655 141.857 134.414 135.711 140.066 
145.362 138.663 149.318 160.011 160.011 161.462 143.384 132.176 129.349 
132.04 146.08 156.124 137.361 128.692 106.556 119.32 96.717 101.645 
102.006 75.8323 95.4328 106.196 119.831 123.084 81.321 98.8104 128.903 
137.53 135.176 131.799 141.36 122.113 158.915 140.602 142.484 141.64 
140.136 149.709 149.709 154.943 164.546 173.014 199.839 196.783 196.783 
172.704 172.704 155.53 123.958 130.953 129.26 107.689 103.009 109.122 
119.735 114.48 110.266 126.465 139.119 133.353 124.138 116.454 116.454 
118.967 114.54 123.975 116.699 124.51 105.849 118.164 121.608 130.683 
129.412 125.271 146.027 150.121 146.526 140.206 138.872 153.488 143.142 
143.354 143.478 143.478 135.289 131.686 131.686 126.019 122.745 125.326 
133.487 141.707 174.196 180.873 185.48 174.71 161.39 164.048 170.665 
152.352 133.773 120.508 118.924 132.999 180.612 174.875 147.335 148.233 
130.203 145.737 96.3355 100.344 119.976 140.147 140.436 126.038 127.865 
121.285 115.529 114.957 108.688 133.366 146.496 141.111 152.955 152.955 
155.506 155.057 144.844 139.787 156.895 152.015 143.272 133.522 137.005 
140.349 128.352 131.292 131.338 138.092 117.845 117.845 125.407 151.36 
151.36 184.133 134.727 152.445 179.129 200.486 217.965 
FIELD FieldData 7
DY_minmax 1 943 double
0.816311 0.680439 0.564072 0.480807 0.284141 0.551839 0.567513 0.262076 0.588018 
0.733025 0.63941 0.572564 0.5119 0.487862 0.441497 0.32716 0.351867 0.242833 
0.383398 0.396052 0.469321 0.564238 0.505939 0.383837 0.401408 0.477907 0.103572 
0.380793 0.5643 0.551855 0.498777 0.467579 0.393737 0.358308 0.278265 0.183133 
0.49279 0.353153 0.557262 0.479391 0.223381 0.582189 0.546701 0.417245 0.726587 
0.265894 0.718423 0.542692 0.104259 0.230042 0.296304 0.44126 0 0.419631 
0.331952 0.191988 0.263077 0.464281 0.598012 0.37797 0.56373 0.224565 0.248916 
0.254478 0.303309 0.206345 0.0759174 0.625131 0.590021 0.455921 0.27237 0.178011 
0.162371 0.12892 0.375638 0.969907 0.413803 0.199358 0.196749 0.218769 0.302492 
0.050375 0.186775 0.532263 0.417014 0.221771 0.156433 0.867596 0.309011 0.303171 
0.291353 0.655873 0.376048 0.309577 0.863254 0.515631 0.637689 0.728189 0.815868 
0.677441 0.618925 0.618925 0.463006 0.629172 0.554058 0.567378 0.727289 0.701437 
0.498489 0.567336 0.407809 0.392596 0.435956 0.520933 0.542239 0.510099 0.418899 
0.340306 0.220365 0.671533 0.756051 0.812326 0.680116 0.680116 0.648432 0.550474 
0.550474 0.59885 0.624482 0.624482 0.736659 0.711612 0.660478 0.541095 0.556928 
0.533808 0.462158 0.513354 0.494083 0.484838 0.523403 0.536454 0.529785 0.403841 
0.447882 0.363844 0.362686 0.390288 0.383022 0.337407 0.342742 0.326956 0.327299 
0.373308 0.763833 0.563939 0.569167 0.612063 0.646646 0.60143 0.594515 0.417414 
0.41986 0.45192 0.406419 0.486913 0.461251 0.324308 0.449274 0.369521 0.348441 
0.271007 0.423449 0.405815 0.308123 0.322598 0.270972 0.303948 0.34246 0.381907 
0.376192 0.396426 0.537599 0.537599 0.47058 0.46897 0.400628 0.447962 0.40355 
0.398604 0.349592 0.284566 0.284566 0.376048 0.321056 0.302389 0.302389 0.30117 
0.337841 0.337841 0.310957 0.300319 0.276908 0.303275 0.309309 0.273193 0.251936 
0.282827 0.284615 0.310367 0.365823 0.430893 0.417607 0.380648 0.401388 0.303828 
0.331907 0.356763 0.386441 0.339372 0.427235 0.415686 0.247421 0.509091 0.455702 
0.366224 0.242927 0.282973 0.282973 0.367667 0.367667 0.337739 0.350092 0.48242 
0.554521 0.527138 0.639567 0.475964 0.407425 0.407425 0.402262 0.430564 0.42958 
0.215446 0.264212 0.329137 0.297896 0.376846 0.379666 0.225612 0.413673 0.303904 
0.215823 0.276782 0.290291 0.390242 0.62209 0.564396 0.628701 0.592457 0.592457 
0.468325 0.444158 0.312509 0.280556 0.209977 0.266397 0.231719 0.336163 0.316898 
0.369573 0.495468 0.552607 0.424704 0.25455 0.4535 0.297351 0.346162 0.437609 
0.555289 0.315843 0.315843 0.331481 0.285512 0.31628 0.236063 0.210198 0.221544 
0.234704 0.249028 0.338802 0.41385 0.186431 0.196603 0.245899 0.250253 0.290408 
0.355095 0.289382 0.399195 0.488808 0.563684 0.635697 0.646497 0.720538 0.615011 
0.519897 0.394265 0.394265 0.565006 0.608822 0.426375 0.523034 0.411922 0.411922 
0.37905 0.37905 0.284262 0.328938 0.328938 0.255981 0.261976 0.152344 0.243323 
0.294256 0.468007 0.468007 0.49431 0.522044 0.351796 0.380036 0.284154 0.34593 
0.376413 0.379527 0.368525 0.38619 0.514553 0.594977 0.261926 0.236656 0.202254 
0.219198 0.306673 0.354996 0.352616 0.304247 0.29146 0.262251 0.227923 0.206623 
0.255373 0.233877 0.20178 0.20907 0.20907 0.198479 0.240848 0.219856 0.291514 
0.42933 0.514866 0.573764 0.577489 0.579421 0.272215 0.257042 0.244753 0.287172 
0.425774 0.460015 0.495294 0.152271 0.20642 0.315067 0.315067 0.255562 0.363569 
0.328948 0.356689 0.418029 0.38498 0.401545 0.370499 0.350995 0.317859 0.343937 
0.390211 0.400094 0.318034 0.279804 0.348424 0.599106 0.721456 0.501216 0.62421 
0.402164 0.361349 0.392694 0.370703 0.455942 0.428809 0.389138 0.406262 0.46822 
0.446344 0.429817 0.343337 0.242608 0.417958 0.417766 0.435102 0.514165 0.477968 
0.489767 0.500205 0.488446 0.217236 0.249911 0.280563 0.375142 0.465762 0.359455 
0.340848 0.425614 0.518276 0.312083 0.371567 0.290051 0.444042 0.521351 0.164972 
0.26124 0.28661 0.183536 0.245854 0.249551 0.117377 0.185249 0.232764 0.248977 
0.373429 0.373429 0.398025 0.241886 0.241886 0.204427 0.202524 0.209985 0.209985 
0.208255 0.294132 0.316632 0.38963 0.306778 0.478044 0.58472 0.738301 0.584155 
0.613698 0.613033 0.319664 0.326233 0.295307 0.354295 0.40188 0.423564 0.422912 
0.588785 0.636162 0.657045 0.678739 0.610826 0.514515 0.146891 0.242626 0.325135 
0.368244 0.213172 0.290063 0.361781 0.25101 0.238077 0.308393 0.200865 0.199553 
0.2043 0.302136 0.30352 0.309434 0.278156 0.347912 0.297525 0.243638 0.219696 
0.236041 0.264994 0.37797 0.398397 0.435421 0.488822 0.412744 0.559498 0.573057 
0.616264 0.465738 0.423599 0.530119 0.504045 0.464149 0.448059 0.381939 0.325371 
0.259628 0.122275 0.0326611 0.366137 0.391524 0.36957 0.299525 0.248962 0.216752 
0.216752 0.19379 0.191102 0.186535 0.208785 0.206798 0.448407 0.333334 0.402698 
0.392152 0.342885 0.340508 0.257042 0.231889 0.406627 0.444011 0.436179 0.341582 
0.314207 0.369044 0.418766 0.322922 0.265805 0.305696 0.372224 0.412492 0.453594 
0.526822 0.622031 0.630923 0.46923 0.210476 0.205587 0.285507 0.258822 0.265844 
0.316218 0.441558 0.46687 0.446898 0.344984 0.42946 0.355561 0.359378 0.359378 
0.342637 0.326021 0.326021 0.436874 0.513631 0.558711 0.558698 0.359221 0.359112 
0.475904 0.57175 0.312651 0.420084 0.496562 0.1459 0.265894 0.51312 0.53759 
0.540182 0.562574 0.797686 0.638389 0.621521 0.636362 0.417197 0.359858 0.269466 
0.481867 0.40733 0.555617 0.583617 0.409316 0.467776 0.590271 0.626846 0.403872 
0.463117 0.524913 0.450633 0.59097 0.616739 0.585732 0.52087 0.500775 0.515591 
0.237956 0.291453 0.311915 0.327427 0.333047 0.393853 0.329721 0.376075 0.43324 
0.539103 0.568388 0.580957 0.606845 0.268896 0.346032 0.319776 0.205286 0.253019 
0.178707 0.219716 0.323834 0.243785 0.206777 0.251864 0.216798 0.308942 0.22676 
0.291669 0.321353 0.309708 0.265863 0.383793 0.441883 0.659815 0.801057 0.585002 
0.575577 0.575577 0.397778 0.397778 0.347616 0.412169 0.462211 0.494924 0.477439 
0.551777 0.509666 0.479391 0.404429 0.343296 0.327414 0.36436 0.36436 0.463967 
0.454077 0.454077 0.408054 0.335013 0.335013 0.397598 0.473131 0.542267 0.509054 
0.509618 0.280859 0.393484 0.437307 0.496182 0.458124 0.338136 0.319318 0.223757 
0.312136 0.36215 0.347402 0.344258 0.352669 0.386528 0.469461 0.454516 0.24311 
0.296945 0.366332 0.387283 0.378623 0.357177 0.357177 0.344514 0.225594 0.225594 
0.280168 0.26002 0.209982 0.0951157 0.405187 0.448374 0.501731 0.465859 0.439473 
0.338823 0.280746 0.335241 0.472774 0.60123 0.616617 0.60678 0.508215 0.524985 
0.538549 0.515233 0.63575 0.63575 0.653372 0.533728 0.533728 0.385788 0.457592 
0.457592 0.519524 0.512534 0.551801 0.502648 0.523704 0.419005 0.306888 0.421435 
0.500372 0.512555 0.467621 0.517676 0.476603 0.551855 0.319101 0.395644 0.375943 
0.286345 0.286397 0.350053 0.532821 0.502167 0.495094 0.476428 0.563105 0.333808 
0.416361 0.500522 0.528367 0.309698 0.399497 0.478455 0.548661 0.49272 0.434682 
0.388585 0.425046 0.449549 0.435372 0.530116 0.503914 0.496333 0.456868 0.382817 
0.368413 0.497691 0.466587 0.422305 0.340256 0.319243 0.386292 0.500063 0.434341 
0.440095 0.563395 0.539278 0.57359 0.533546 0.522262 0.47554 0.483684 0.51102 
0.544265 0.502211 0.569092 0.636213 0.636213 0.645323 0.531849 0.461491 0.443747 
0.460642 0.548768 0.61182 0.49404 0.439623 0.300677 0.380793 0.238913 0.269848 
0.272116 0.107818 0.230853 0.298413 0.384002 0.404419 0.142271 0.252054 0.440948 
0.495099 0.480326 0.459129 0.519142 0.398326 0.629337 0.514387 0.526197 0.520898 
0.511456 0.571552 0.571552 0.604401 0.664684 0.717838 0.886223 0.867036 0.867036 
0.715891 0.715891 0.608086 0.40991 0.453818 0.443187 0.307785 0.278411 0.316783 
0.383398 0.350413 0.323962 0.425642 0.505075 0.468882 0.411039 0.362805 0.362805 
0.378581 0.350791 0.410015 0.364341 0.413376 0.296235 0.373537 0.395156 0.452119 
0.444145 0.418152 0.548438 0.574139 0.551572 0.5119 0.503523 0.595271 0.530329 
0.531658 0.532438 0.532438 0.481033 0.45842 0.45842 0.422848 0.402293 0.418495 
0.469721 0.521321 0.725259 0.767166 0.796085 0.728481 0.64487 0.661555 0.703092 
0.588141 0.471519 0.388251 0.378307 0.466662 0.765531 0.729518 0.556645 0.562286 
0.449108 0.546618 0.236519 0.261678 0.384914 0.511527 0.51334 0.422966 0.434429 
0.39313 0.356999 0.353408 0.314057 0.468965 0.55138 0.51758 0.591923 0.591923 
0.607936 0.605117 0.541009 0.509269 0.616655 0.586025 0.531142 0.469941 0.491806 
0.512794 0.437487 0.455942 0.456234 0.498629 0.371535 0.371535 0.419004 0.581911 
0.581911 0.787633 0.477507 0.588722 0.75622 0.890279 1 
WidthEq 1 943 double
3.04068 3.32398 3.50599 3.86662 4.41092 3.35188 4.0988 5.10943 3.25316 
4.05083 4.45547 3.60526 4.03678 3.23224 4.81231 4.31677 1.96573 6.83925 
2.94402 4.37872 3.74495 3.50846 3.74217 5.51942 6.8343 5.83506 3.87278 
6.26302 3.57238 3.21121 4.04677 3.4527 6.30409 3.58044 4.67862 4.41204 
5.86688 3.95333 5.36768 4.13659 7.16717 4.35749 4.98745 6.28611 4.70611 
5.17667 2.17675 5.6691 5.03728 7.29921 5.77747 5.29824 1.52998 6.61814 
5.56418 5.86177 6.0412 4.63129 1.39225 3.20444 1.84101 6.04496 5.68985 
5.59719 5.55988 3.74836 2.10278 2.26877 4.97133 3.91758 5.20978 3.79766 
4.1202 6.11589 5.22995 1.81081 2.73155 6.22883 5.42848 2.13193 4.61771 
2.17936 5.49494 3.49976 4.081 5.24868 2.14571 1 1.7303 2.84957 
2.14676 1.23838 3.36184 3.37934 2.05088 2.67074 2.5101 2.47306 2.34193 
2.65798 2.84638 2.84638 3.28569 3.14083 3.2923 3.33902 3.17346 3.29805 
3.83923 3.6774 3.9021 3.84482 3.6471 3.46388 3.52126 3.58894 3.76099 
4.0577 4.85135 2.34864 2.17442 2.02945 2.28204 2.28204 2.489 2.76808 
2.76808 2.92456 2.87079 2.87079 2.39956 2.46016 2.33604 2.41239 2.36384 
2.55644 2.96603 3.08899 3.10707 3.12434 2.94639 3.06722 3.05023 3.3248 
3.26183 3.63894 3.79217 3.81249 3.77917 3.93372 3.92001 4.22918 4.49949 
4.96703 2.16934 2.38229 2.66265 2.54459 3.10518 3.33996 3.44729 4.14891 
4.18828 3.99317 4.01559 3.59838 3.81188 4.38404 4.00157 4.44464 4.68312 
4.95515 2.99521 3.29588 3.47014 3.26921 2.98045 2.58478 2.48321 2.27019 
2.10843 2.28357 2.14706 2.14706 2.27551 2.07167 2.35135 2.38226 2.43379 
2.53748 2.59094 2.61749 2.61749 3.36184 3.74044 3.97655 3.97655 3.89977 
3.56412 3.56412 3.58718 3.61572 3.45619 3.43564 2.93966 2.88518 3.06567 
3.23809 3.26596 3.54266 3.56097 3.59723 3.45907 3.87289 3.37186 3.66362 
3.40856 3.07721 3.36553 3.57326 3.39281 4.26456 6.59373 1.63726 2.07051 
2.30158 2.65408 2.7654 2.7654 2.87005 2.87005 2.88129 3.07599 2.96843 
2.91254 3.2341 3.07267 3.58163 3.76516 3.76516 3.89435 3.97577 4.21429 
5.2848 3.40101 3.31677 4.12843 3.91615 3.83013 3.98562 3.46933 3.54665 
3.56565 3.39779 3.46049 3.36116 3.14814 3.30635 3.10717 3.07 3.07 
3.12058 3.41563 3.56314 3.90874 4.71616 4.52417 5.36253 2.50123 3.15613 
3.32974 1.99197 2.00477 2.61847 3.80284 3.42057 4.57613 4.43357 4.30566 
4.19255 2.94792 2.94792 3.30459 3.35107 3.31901 3.7831 4.21459 4.25048 
4.97252 5.13191 5.55768 5.78004 5.3906 5.09846 4.88554 4.85825 5.07967 
5.01643 5.44853 4.02811 3.63884 3.26111 2.96396 2.79929 2.51321 2.58204 
2.53945 2.80335 2.80335 2.80037 2.84967 3.06374 3.0589 3.23765 3.23765 
3.4761 3.4761 3.6794 3.80206 3.80206 3.7549 3.6362 3.73337 3.44184 
3.45494 3.20952 3.20952 3.34555 3.32967 3.73689 3.77328 4.35367 4.35062 
4.75774 5.32323 5.61956 5.96418 5.30092 4.69158 5.53462 5.04053 4.14332 
5.95037 5.20317 4.62123 4.11424 4.09149 4.01332 3.78655 3.70039 3.56964 
3.28282 3.33976 3.68059 3.96511 3.96511 4.24459 4.56544 4.50595 4.2501 
3.96335 4.06424 4.08127 4.10236 4.70587 5.44335 5.75204 5.82456 5.18482 
4.07487 3.17864 2.56972 3.06898 3.06959 3.55651 3.55651 3.64602 3.55556 
3.73069 3.88027 4.24682 4.50768 4.83032 5.11041 4.19238 4.59635 4.11969 
3.84797 4.03018 5.03708 5.14565 3.06607 2.94416 3.28712 4.72124 4.3685 
5.18652 5.16969 5.01653 4.65187 3.8653 3.40588 3.20965 3.18934 3.03977 
3.28756 3.69396 3.90782 4.19258 4.64476 4.24513 3.95495 3.82914 4.37893 
4.58663 4.66501 5.70105 5.66557 6.08518 5.87788 5.22999 4.85429 5.11413 
5.5049 3.94442 3.40642 5.60203 5.7189 6.02394 5.11965 4.9454 6.0041 
5.48959 5.41494 5.84508 5.55507 5.79741 3.97391 4.10595 3.95302 3.6596 
3.82637 3.82637 3.85206 4.38265 4.38265 4.736 5.30437 5.59603 5.59603 
6.14118 6.29939 6.4861 4.28247 5.32773 5.10005 3.27232 2.40995 5.50486 
5.57488 5.63168 7.17834 6.95107 6.77536 6.82279 6.22186 6.07469 6.66289 
5.59275 4.93538 4.71393 4.75625 2.92276 3.94568 2.75555 3.56168 3.43804 