# vtk DataFile Version 3.0
vtk output
ASCII
DATASET POLYDATA
POINTS 736 float
1.32787 1.45317 1.14886 1.26662 1.41345 0.690474 1.57127 1.34984 0.383242 
0.464673 1.10429 0.181342 0.223673 0.998196 0.387712 0.198165 0.792741 0.897258 
1.74684 1.1315 0.0704837 -0.102322 0.57372 0.829524 2.01093 1.0851 -0.109145 
0.0504711 0.72672 -0.276594 -0.0631852 0.561612 0.145865 1.57928 0.852669 0.00507775 
2.37967 0.483604 1.13116 -0.219538 0.274647 0.465599 2.35493 0.825293 -0.275836 
0.572678 0.61373 -0.731366 2.14536 0.568805 -0.769693 2.20693 0.540415 -0.683071 
-0.361939 -0.297982 0.239452 3.3342 -0.225001 0.569678 3.37882 -0.140305 0.775257 
2.16107 -0.773493 2.06188 2.79699 -0.632282 1.8657 2.28421 -0.830272 2.23513 
0.314326 0.0100941 -0.908537 2.84437 -0.758284 1.65104 2.1504 -1.01754 2.12917 
1.51656 -1.30007 2.13788 2.99101 -1.31303 1.56055 1.93111 -1.52148 2.0733 
0.2093 -1.48484 1.19054 3.2042 -0.693623 -0.0502552 1.79899 -0.548065 -1.30861 
0.0702139 -1.45246 0.531732 0.831798 -0.8941 -1.22347 3.30269 -1.13746 -0.358846 
3.41425 -1.34578 0.192026 3.21181 -1.81739 1.0544 0.00753263 -1.48705 -0.482713 
0.273556 -2.01854 0.737147 3.37828 -1.84068 0.521008 3.43746 -1.86054 -0.319122 
2.1741 -1.9358 -1.16864 0.575255 -2.52748 0.0998056 2.24905 -2.50281 0.454759 
4.88417 -1.88507 -0.259091 0.811852 -2.52203 -0.578762 2.1988 -2.36658 -0.442691 
3.98574 -2.21157 -0.567778 4.37813 -2.15867 -0.421923 1.42159 -3.01743 0.455173 
4.52336 -2.23929 -0.72618 5.04706 -2.32091 -0.75267 5.7383 -2.30658 -0.944884 
5.57395 -2.34219 -1.11085 5.11902 -2.60284 -1.1849 4.49102 -2.90332 -0.152542 
5.60574 -2.47159 -1.50181 5.35759 -2.96816 -0.859578 5.06634 -2.93802 -1.55066 
5.08695 -2.85057 -1.46353 5.10446 -2.73646 -1.34761 5.34412 -3.11101 -0.966665 
5.33674 -3.23056 -1.07045 5.33837 -3.31164 -1.16802 5.32125 -3.34949 -1.2381 
5.28224 -3.33807 -1.27648 5.22311 -3.26831 -1.2814 5.17129 -3.12117 -1.26567 
5.13322 -2.89255 -1.23001 5.27504 -2.78494 -0.810785 5.20516 -2.61101 -0.775684 
5.12706 -2.45995 -0.752242 5.40768 -3.03958 -0.848741 5.47364 -3.05599 -0.831301 
5.54288 -3.01383 -0.799306 5.60398 -2.9274 -0.759841 5.65499 -2.8297 -0.731072 
5.70877 -2.73329 -0.698409 5.75954 -2.6551 -0.681031 5.8084 -2.59572 -0.677215 
5.83307 -2.54608 -0.715304 5.83561 -2.494 -0.765025 5.81276 -2.43346 -0.80211 
5.78015 -2.36626 -0.851604 5.60514 -2.5224 -1.4481 5.61095 -2.52204 -1.38054 
5.59811 -2.45597 -1.26818 4.46023 -2.88913 -0.195853 4.42954 -2.8749 -0.239218 
4.39966 -2.85331 -0.280753 4.37607 -2.80836 -0.319091 4.36314 -2.72439 -0.352226 
4.34424 -2.60704 -0.370111 4.3387 -2.46436 -0.387963 4.34897 -2.3119 -0.406333 
5.49966 -2.30459 -1.04955 5.41957 -2.24454 -1.0192 5.34019 -2.20019 -1.01228 
5.27163 -2.23555 -1.03172 5.20915 -2.38234 -1.08483 5.10375 -2.52601 -1.0385 
5.07889 -2.43006 -0.899594 5.66453 -2.299 -1.04258 4.96316 -2.20082 -0.740032 
4.88599 -2.15775 -0.746765 4.82749 -2.19748 -0.788914 4.80333 -2.26838 -0.864869 
4.79981 -2.32995 -0.952393 4.77724 -2.38381 -1.02385 4.73933 -2.42869 -1.08145 
4.71368 -2.45525 -1.14177 4.65943 -2.47028 -1.17784 4.5883 -2.47768 -1.1971 
4.51851 -2.47502 -1.20105 4.45776 -2.4636 -1.18455 4.39877 -2.43337 -1.15453 
4.35713 -2.40459 -1.09641 4.31335 -2.38137 -1.04499 4.26703 -2.3766 -1.00819 
4.22043 -2.37823 -0.975471 4.17316 -2.37302 -0.940021 4.12486 -2.34772 -0.894952 
4.08109 -2.31364 -0.837304 4.0464 -2.27762 -0.762137 4.01079 -2.24158 -0.680537 
4.98304 -2.14417 -0.595833 4.94241 -2.01078 -0.458368 4.91632 -1.9334 -0.344189 
4.50306 -2.28578 -0.674808 4.46988 -2.28774 -0.617837 4.43163 -2.23893 -0.52875 
1.35259 -3.01527 0.452683 1.28968 -3.00285 0.466138 1.21551 -2.95909 0.478494 
1.13371 -2.89217 0.491172 1.04954 -2.8111 0.50787 0.966658 -2.74369 0.519029 
0.885228 -2.68995 0.524673 0.806658 -2.64943 0.523958 0.735635 -2.59926 0.521037 
0.676418 -2.53802 0.513354 0.604097 -2.47417 0.51598 0.523417 -2.4022 0.529611 
0.443774 -2.30659 0.564585 0.366187 -2.17577 0.639001 0.753933 -2.38261 -0.594761 
0.685482 -2.24954 -0.584071 0.621391 -2.12322 -0.56869 0.544878 -2.01586 -0.549052 
0.464499 -1.94053 -0.537074 0.393567 -1.89033 -0.54005 0.337069 -1.8565 -0.558649 
0.267405 -1.82004 -0.567026 0.186116 -1.7521 -0.556825 0.0985684 -1.63669 -0.526618 
4.42635 -2.01368 -0.331674 4.47384 -1.89276 -0.281666 4.53618 -1.82059 -0.246322 
4.60839 -1.79155 -0.220813 4.68335 -1.78992 -0.206246 4.7552 -1.80646 -0.207134 
4.82071 -1.8397 -0.227973 4.28649 -2.15633 -0.450627 4.22338 -2.15231 -0.483138 
4.15568 -2.15929 -0.509306 4.07676 -2.18052 -0.535958 3.92058 -2.18035 -0.494861 
3.863 -2.13723 -0.436524 3.80354 -2.09241 -0.396312 3.73201 -2.05427 -0.382584 
3.66103 -2.03158 -0.376801 3.59676 -2.00545 -0.357886 3.52123 -1.94798 -0.340074 
2.14909 -2.5146 -0.525712 2.10701 -2.62468 -0.601585 2.04869 -2.69153 -0.649293 
1.98467 -2.7231 -0.666382 1.93124 -2.74114 -0.654511 1.87807 -2.75282 -0.638414 
1.81642 -2.7606 -0.634248 1.75663 -2.76923 -0.627458 1.68728 -2.77346 -0.63412 
1.61234 -2.77511 -0.648647 1.53672 -2.7699 -0.660445 1.46527 -2.75354 -0.659006 
1.40027 -2.72054 -0.637443 1.3261 -2.67676 -0.625084 1.24708 -2.6373 -0.623239 
1.17017 -2.61842 -0.629494 1.10116 -2.61626 -0.631984 1.0464 -2.62287 -0.615606 
0.989389 -2.6158 -0.593952 0.910595 -2.57947 -0.584151 2.22075 -2.08138 -1.14665 
2.26242 -2.19518 -1.13199 2.2993 -2.26931 -1.11092 2.33258 -2.30866 -1.07755 
2.36404 -2.32971 -1.03696 2.39483 -2.3439 -0.993654 2.42561 -2.3581 -0.950343 
2.4564 -2.37229 -0.907032 2.48727 -2.38646 -0.863775 2.51965 -2.40011 -0.821418 
2.56025 -2.41099 -0.783997 2.61333 -2.41764 -0.754067 2.65394 -2.42852 -0.716646 
2.68708 -2.449 -0.677074 2.72158 -2.48318 -0.642957 2.76558 -2.52832 -0.619182 
2.82198 -2.56926 -0.602841 2.86235 -2.59439 -0.569926 2.88414 -2.60454 -0.518895 
2.8884 -2.59937 -0.450387 2.89674 -2.59282 -0.384326 2.89991 -2.59511 -0.317487 
2.90991 -2.62337 -0.26415 2.90756 -2.68326 -0.214856 2.89152 -2.75658 -0.175508 
2.85713 -2.81608 -0.155286 2.80834 -2.8494 -0.144076 2.74869 -2.86464 -0.140781 
2.6978 -2.87738 -0.121471 2.65803 -2.89525 -0.0865144 2.62669 -2.917 -0.0397062 
2.58031 -2.93181 -0.014057 2.5142 -2.93754 -0.0161507 2.44606 -2.94232 -0.0211188 
2.38571 -2.94415 -0.0114264 2.32264 -2.92504 0.00529526 2.27398 -2.87862 0.0575433 
2.25247 -2.80423 0.146878 2.25731 -2.70583 0.242799 2.26271 -2.60107 0.343005 
0.779109 -2.53191 -0.474977 0.750181 -2.5347 -0.394756 0.71745 -2.53491 -0.335369 
0.692817 -2.538 -0.26672 0.668786 -2.55658 -0.205936 0.632479 -2.57597 -0.166293 
0.597732 -2.59488 -0.127463 0.58256 -2.59009 -0.0628633 0.584532 -2.56354 0.0116901 
2.08851 -1.90363 -1.18361 2.02639 -1.87672 -1.20634 1.95765 -1.85857 -1.22212 
1.88193 -1.83681 -1.2286 1.80854 -1.79986 -1.21902 1.74285 -1.76 -1.19473 
1.66943 -1.72311 -1.18502 1.59347 -1.70467 -1.18992 1.5235 -1.70207 -1.19377 
1.46365 -1.71068 -1.18706 1.40098 -1.71798 -1.18433 1.34228 -1.72712 -1.17602 
1.28068 -1.73492 -1.17177 1.22757 -1.74663 -1.15559 1.17451 -1.75837 -1.13932 
1.11395 -1.76665 -1.13363 1.06021 -1.77153 -1.11464 1.00444 -1.75586 -1.08746 
0.938489 -1.70934 -1.05985 0.879662 -1.65302 -1.01486 0.827384 -1.61935 -0.971707 
0.772228 -1.6105 -0.947345 0.705169 -1.61578 -0.950785 0.638387 -1.61465 -0.950149 
0.590924 -1.62897 -0.92602 0.552903 -1.64764 -0.888606 0.497984 -1.65852 -0.874966 
0.437643 -1.64074 -0.854214 0.37027 -1.60011 -0.832298 0.304425 -1.54709 -0.80086 
0.231186 -1.49067 -0.779824 0.165299 -1.44418 -0.752131 0.124398 -1.42229 -0.696659 
0.0893309 -1.4227 -0.644035 0.0606712 -1.43915 -0.589764 0.0298593 -1.46115 -0.542208 
2.2297 -1.86016 -1.19728 2.282 -1.79621 -1.20408 2.3407 -1.75131 -1.19499 
2.39622 -1.69924 -1.18456 2.46081 -1.64704 -1.15879 2.52902 -1.5769 -1.11689 
2.59883 -1.5141 -1.07622 2.66856 -1.46555 -1.04003 2.7327 -1.44722 -1.00977 
2.7842 -1.44733 -0.976569 2.84056 -1.45287 -0.948601 2.89107 -1.4604 -0.917124 
2.94584 -1.46649 -0.888202 2.98744 -1.46994 -0.849059 3.02828 -1.46657 -0.80714 
3.07941 -1.45264 -0.769073 3.11865 -1.44981 -0.726192 3.14899 -1.44291 -0.675649 
3.17569 -1.41365 -0.615105 3.20053 -1.34312 -0.538075 3.23702 -1.2462 -0.450671 
3.39725 -1.75038 -0.324282 3.35905 -1.64424 -0.332243 3.32896 -1.5209 -0.341141 
3.31512 -1.35019 -0.35106 3.42199 -1.76056 -0.205431 3.41792 -1.64314 -0.0924822 
3.4097 -1.50467 0.0403243 3.34085 -2.01842 0.522378 3.30337 -2.14151 0.520547 
3.26339 -2.20377 0.53288 3.22634 -2.22729 0.569319 3.20093 -2.22007 0.642019 
3.18006 -2.15744 0.747652 3.17501 -2.01742 0.887374 3.14124 -1.90423 1.11749 
3.08536 -1.91716 1.1702 3.03691 -1.82373 1.25463 3.00356 -1.6116 1.39657 
3.41751 -1.82587 0.600837 3.41931 -1.81151 0.685842 3.40276 -1.79033 0.775983 
3.38226 -1.77023 0.864504 3.35398 -1.76053 0.940327 3.29965 -1.77556 0.994689 
3.40211 -1.86358 0.410223 3.42124 -1.86586 0.320169 3.43475 -1.82457 0.25334 
3.44108 -1.72195 0.211719 3.43562 -1.55548 0.194458 0.236079 -1.8397 0.908737 
0.211369 -1.66225 1.06017 0.208539 -1.90985 0.716121 0.162898 -1.81864 0.696877 
0.135036 -1.74382 0.66963 0.123767 -1.67815 0.629232 0.107859 -1.60934 0.593244 
0.0956192 -1.53222 0.557378 -0.00698023 -1.51656 -0.412226 -0.022173 -1.53922 -0.339008 
-0.0394051 -1.54132 -0.257605 -0.0607766 -1.50228 -0.159914 -0.088049 -1.41474 -0.0447245 
-0.127061 -1.28247 0.0758778 -0.187671 -1.12591 0.170271 -0.259524 -0.962775 0.225283 
-0.313197 -0.808543 0.246867 -0.347697 -0.654011 0.252332 -0.359047 -0.484507 0.246109 
2.92953 -1.64939 1.55343 2.88801 -1.87484 1.53017 2.84909 -1.97976 1.52656 
2.80584 -2.0171 1.54523 2.76054 -2.03242 1.5724 2.71518 -2.04771 1.59949 
2.66881 -2.06252 1.62515 2.61689 -2.07479 1.64302 2.55753 -2.08362 1.65041 
2.51155 -2.09208 1.68031 2.47823 -2.0933 1.73539 2.43438 -2.07005 1.78672 
2.37873 -2.03482 1.82513 2.31358 -1.9952 1.85017 2.25747 -1.9663 1.88425 
2.20399 -1.9212 1.93192 2.1402 -1.83907 1.98457 2.0487 -1.69878 2.03175 
3.20273 -1.57273 1.24939 3.16873 -1.39297 1.39873 3.10043 -1.31228 1.49009 
[...]
POINT_DATA 736
SCALARS DY_raw double
LOOKUP_TABLE default
270.262 224.138 181.054 142.724 166.461 216.13 179.014 186.138 199.674 
199.05 165.963 205.242 157.687 134.253 164.416 207.987 257.091 198.451 
164.257 182.012 134.909 235.089 212.575 169.978 176.182 166.228 141.636 
144.357 159.809 185.284 179.013 213.898 164.159 273.575 146.026 211.434 
179.274 146.005 166.383 172.102 151.39 163.368 158.22 149.489 61.145 
161.262 159.763 161.917 152.807 157.345 171.052 214.358 198.044 199.84 
199.534 235.908 143.62 286.904 169.8 285.04 233.741 245.654 175.86 
184.572 175.893 162.688 153.951 159.406 160.55 189.464 188.536 170.482 
190.596 157.849 173.634 178.596 162.756 148.376 153.481 144.997 160.018 
191.18 212.271 224.282 213.909 225.857 185.887 195.339 172.524 179.625 
198.355 198.355 204.972 174.078 143.77 133.725 201.662 226.58 232.408 
247.326 237.567 216.951 208.674 193.819 194.082 223.887 211.442 214.041 
223.907 193.418 178.404 189.408 160.195 155.109 169.47 180.848 202.16 
221.356 236.933 236.933 238.06 191.458 213.237 196.301 199.791 170.692 
174.46 168.773 164.477 202.945 181.177 183.166 157.212 177.341 169.364 
152.213 148.548 168.267 168.534 157.111 149.43 141.557 131.807 128.802 
139.85 151.373 200.853 220.048 184.226 166.884 188.552 179.247 182.043 
156.151 149.557 140.213 190.56 202.277 195.891 178.567 193.244 176.767 
158.347 166.728 169.673 170.325 160.03 171.479 184.562 194.898 188.577 
158.76 176.919 149.471 194.511 150.725 151.093 175.408 162.185 185.219 
190.299 177.864 203.867 212.038 181.548 211.272 174.645 176.855 195.007 
168.805 170.239 173.51 156.227 163.755 146.904 172.159 187.591 201.644 
201.644 202.293 209.489 209.489 192.916 184.82 184.82 194.52 198.346 
198.346 232.967 220.938 211.251 191.124 191.124 178.422 159.922 176.916 
147.07 145.158 139.315 132.189 158.843 148.592 182.573 190.118 190.118 
163.991 178.138 178.138 170.465 170.465 172.473 168.904 117.162 119.972 
159.364 160.881 171.113 193.777 189.558 165.341 158.079 138.626 141.964 
152.644 156.336 154.571 156.721 149.642 171.925 187.703 185.053 224.833 
234.935 210.57 262.922 223.183 263.27 243.077 203.899 203.899 210.188 
182.387 193.01 207.127 182.727 182.727 182.639 188.895 188.895 194.202 
213.893 206.598 203.593 212.733 241.786 184.074 188.97 179.928 165.2 
175.366 205.826 248.199 246.832 194.826 169.028 167.85 155.701 169.719 
196.31 178.324 202.197 179.403 194.912 194.912 177.284 187.66 187.66 
199.498 206.647 212.364 190.292 176.578 174.409 180.128 159.279 141.298 
162.041 141.669 149.43 137.224 148.579 141.76 150.608 160.252 143.617 
141.857 148.109 157.411 144.225 140.942 148 153.945 172.28 154.059 
164.203 165.512 173.966 179.201 165.156 188.545 202.369 198.106 219.745 
234.152 239.12 254.683 270.191 166.383 140.533 135.474 141.272 165.435 
189.02 217.018 173.852 163.059 160.446 151.437 123.135 106.21 109.693 
141.719 141.719 145.234 161.847 161.847 160.569 155.122 155.122 155.355 
159.085 170.915 134.393 148.822 157.919 194.559 157.686 174.912 173.614 
164.909 161.393 157.567 195.417 123.277 141.939 170.408 198.588 196.075 
164.299 169.514 169.258 164.813 166.009 176.831 154.86 166.311 171.867 
166.859 181.689 183.657 177.356 232.903 223.829 244.591 242.847 234.718 
223.449 198.111 188.298 198.463 206.471 216.447 221.992 227.408 242.516 
235.502 238.973 227.584 230.486 230.486 241.973 221.855 200.816 169.862 
164.416 199.649 198.346 213.547 211.761 204.807 209.204 181.283 191.367 
184.888 195.925 192.584 209.414 221.228 202.285 192.718 199.084 192.756 
197.986 196.813 203.8 219.79 219.79 206.296 186.138 163.392 157.416 
157.168 160.504 154.157 150.727 167.5 158.952 145.876 160.944 178.468 
191.879 182.515 182.515 188.775 204.162 212.063 167.144 206.419 212.172 
157.761 184.686 158.562 179.781 179.838 161.138 157.478 189.83 191.25 
185.827 152.884 180.239 170.797 161.065 143.521 149.404 179.559 172.171 
161.118 168.632 182.267 168.479 175.622 184.229 195.469 179.431 186.788 
199.687 213.914 213.914 234.345 232.155 232.155 230.301 231.552 231.552 
241.277 270.262 316.111 305.928 281.36 256.356 214.046 214.046 202.583 
176.666 176.666 159.484 154.437 212.265 249.991 270.088 270.088 245.909 
261.44 247.758 216.373 202.905 149.075 170.487 184.912 198.375 230.304 
267.139 245.428 247.007 205.228 205.228 202.121 210.626 210.626 230.307 
238.759 276.782 272.842 299.282 271.779 226.045 235.406 186.819 171.245 
179.124 190.338 198.737 210.589 201.379 211.943 238.703 262.479 280.64 
289.337 193.703 237.72 236.625 239.616 200.93 169.714 186.596 222.183 
209.178 205.806 172.18 172.973 212.896 187.63 171.971 163.463 167.906 
152.428 177.921 191.817 188.183 193.517 205.853 200.011 220.265 220.265 
210.388 210.388 186.925 209.617 209.617 192.42 225.79 245.577 254.864 
240.45 240.45 201.285 201.285 186.409 179.403 193.313 195.702 177.857 
177.857 190.12 227.343 227.343 204.837 195.762 216.126 216.65 180.036 
147.996 155.241 160.177 185.711 172.781 174.664 161.157 169.707 176.773 
160.366 154.284 143.594 147.982 195.023 198.839 187.826 215.045 229.375 
217.667 224.893 189.199 177.704 191.858 178.289 178.289 179.792 163.749 
168.576 170.041 184.579 184.215 163.132 172.947 179.679 179.679 183.048 
165.542 159.024 158.906 165.48 178.159 185.709 191.041 189.198 152.914 
135.346 257.091 194.178 246.761 227.461 204.523 198.009 185.434 202.776 
227.519 221.083 207.963 216.924 218.012 221.941 227.847 237.852 205.374 
208.445 208.368 192.516 206.36 206.36 242.301 242.301 290.217 265.047 
278.146 238.757 211.611 184.546 166.496 156.262 177.341 138.331 145.284 
153.014 166.864 162.26 157.674 167.369 185 185.202 187.416 187.147 
172.386 156.618 160.424 177.622 186.408 168.914 186.517 175.861 161.145 
170.488 185.173 211.218 189.845 178.141 169.491 169.491 189.821 171.699 
173.919 193.484 188.832 192.717 190.52 196.651 191.909 193.356 193.242 
185.181 211.968 188.4 193.309 170.831 183.351 189.349 172.869 153.329 
153.67 196.59 210.961 227.069 233.196 233.196 224.138 
FIELD FieldData 7
DY_minmax 1 736 double
0.820176 0.639276 0.470294 0.319959 0.413058 0.607868 0.462295 0.490235 0.543324 
0.540878 0.411106 0.565161 0.378648 0.286736 0.405039 0.575929 0.76852 0.538526 
0.404414 0.474051 0.289308 0.682225 0.593924 0.426852 0.451188 0.412147 0.315692 
0.326364 0.386969 0.486886 0.462289 0.599111 0.404033 0.833171 0.332912 0.589447 
0.463312 0.332831 0.412754 0.435185 0.35395 0.400928 0.380739 0.346495 0 
0.392668 0.386789 0.395236 0.359506 0.377306 0.431067 0.600915 0.536932 0.543976 
0.542774 0.685436 0.323476 0.885448 0.426156 0.878139 0.676937 0.723662 0.449923 
0.484093 0.450055 0.39826 0.363995 0.38539 0.389877 0.503281 0.499642 0.428829 
0.507719 0.379283 0.441194 0.460655 0.398527 0.342128 0.362152 0.328874 0.387791 
0.510009 0.592733 0.63984 0.599155 0.646018 0.489252 0.526324 0.43684 0.464692 
0.53815 0.53815 0.564104 0.442933 0.324065 0.284665 0.551122 0.648851 0.671711 
0.730218 0.691943 0.611086 0.578624 0.520362 0.521393 0.63829 0.589478 0.599674 
0.638367 0.518787 0.459899 0.50306 0.388482 0.368537 0.424862 0.469488 0.553076 
0.628364 0.689457 0.689457 0.693878 0.511102 0.596518 0.530096 0.543783 0.429656 
0.444432 0.422128 0.405279 0.556152 0.470776 0.47858 0.376786 0.45573 0.424447 
0.357178 0.342804 0.420142 0.42119 0.376388 0.346264 0.315384 0.277144 0.265358 
0.308689 0.353883 0.54795 0.623234 0.482737 0.414718 0.499705 0.463206 0.474172 
0.372622 0.346761 0.310114 0.507577 0.553532 0.528485 0.460542 0.518104 0.453481 
0.381237 0.414108 0.425659 0.428213 0.387838 0.432743 0.484055 0.524591 0.4998 
0.382857 0.454078 0.346424 0.523073 0.35134 0.352784 0.448151 0.396288 0.486632 
0.506555 0.457783 0.559768 0.591817 0.472232 0.588815 0.445156 0.453826 0.525021 
0.422254 0.427877 0.440706 0.372919 0.402447 0.336354 0.435408 0.495932 0.551052 
0.551052 0.553598 0.581821 0.581821 0.516818 0.485064 0.485064 0.523111 0.538117 
0.538117 0.673903 0.626724 0.588729 0.509792 0.509792 0.459974 0.387413 0.454067 
0.337005 0.329505 0.30659 0.278642 0.383183 0.342974 0.476251 0.505846 0.505846 
0.403372 0.458859 0.458859 0.428763 0.428763 0.436641 0.422641 0.219702 0.230726 
0.385225 0.391173 0.431304 0.520197 0.503648 0.408666 0.380184 0.303886 0.316981 
0.358869 0.37335 0.366425 0.374857 0.347093 0.434492 0.496371 0.485979 0.642001 
0.681621 0.586061 0.79139 0.635528 0.792755 0.713554 0.559895 0.559895 0.584561 
0.475521 0.517189 0.572557 0.476855 0.476855 0.47651 0.501049 0.501049 0.521864 
0.599093 0.570479 0.558693 0.594542 0.708493 0.482138 0.501342 0.46588 0.408115 
0.447988 0.567451 0.733644 0.728284 0.524311 0.423129 0.418506 0.370858 0.425837 
0.530131 0.459589 0.553218 0.463819 0.524646 0.524646 0.45551 0.496205 0.496205 
0.542633 0.570675 0.593095 0.506527 0.452738 0.444233 0.466664 0.38489 0.314368 
0.395725 0.315822 0.346262 0.298388 0.342925 0.31618 0.350885 0.388706 0.323464 
0.316559 0.34108 0.377563 0.325848 0.31297 0.340655 0.36397 0.435882 0.364418 
0.404205 0.409339 0.442495 0.463026 0.40794 0.499675 0.553892 0.537174 0.622044 
0.67855 0.698036 0.759076 0.819899 0.412754 0.311366 0.291528 0.314267 0.409035 
0.501538 0.611351 0.442049 0.399716 0.389466 0.354135 0.243132 0.176749 0.19041 
0.316018 0.316018 0.329804 0.394964 0.394964 0.38995 0.368589 0.368589 0.369501 
0.38413 0.430528 0.287287 0.343878 0.379558 0.523263 0.378645 0.446204 0.441113 
0.406972 0.393182 0.378178 0.526628 0.243688 0.31688 0.42854 0.539066 0.529208 
0.404578 0.425033 0.42403 0.406594 0.411288 0.45373 0.367561 0.41247 0.434262 
0.414622 0.472786 0.480504 0.45579 0.673653 0.638062 0.719492 0.712652 0.680768 
0.636572 0.537194 0.498708 0.538577 0.569985 0.609109 0.630856 0.652099 0.711355 
0.683846 0.697459 0.65279 0.664173 0.664173 0.709226 0.630319 0.547802 0.4264 
0.405039 0.543226 0.538114 0.597735 0.590732 0.563458 0.580702 0.471192 0.510743 
0.485332 0.528618 0.515516 0.581524 0.627863 0.553565 0.516041 0.54101 0.516189 
0.536705 0.532103 0.559505 0.622222 0.622222 0.569298 0.490235 0.401024 0.377583 
0.376611 0.389695 0.364804 0.351347 0.417133 0.38361 0.332322 0.39142 0.460152 
0.51275 0.476026 0.476026 0.500578 0.560929 0.591916 0.415737 0.569778 0.592343 
0.378935 0.48454 0.382078 0.465304 0.465526 0.392181 0.377826 0.504715 0.510283 
0.489014 0.35981 0.467098 0.430067 0.391896 0.323088 0.34616 0.464429 0.435455 
0.392104 0.421576 0.475051 0.420974 0.448988 0.482749 0.526833 0.463928 0.492786 
0.543377 0.599175 0.599175 0.679308 0.670719 0.670719 0.663446 0.668354 0.668354 
0.706497 0.820176 1 0.960061 0.863704 0.765637 0.599694 0.599694 0.554735 
0.453084 0.453084 0.385696 0.365902 0.592707 0.740671 0.819493 0.819493 0.724661 
0.785576 0.731915 0.608819 0.555998 0.34487 0.428848 0.485427 0.538227 0.663458 
0.807928 0.722774 0.728971 0.565108 0.565108 0.552922 0.586278 0.586278 0.663471 
0.696618 0.845748 0.830298 0.933997 0.826127 0.646754 0.683469 0.492907 0.431821 
0.462725 0.506706 0.539651 0.586134 0.55001 0.591446 0.6964 0.789652 0.860883 
0.894989 0.519905 0.692545 0.688248 0.69998 0.548251 0.425818 0.49203 0.631606 
0.580599 0.567376 0.435491 0.438599 0.595183 0.496088 0.434669 0.401303 0.418729 
0.35802 0.458007 0.512507 0.498257 0.519174 0.567561 0.544644 0.624085 0.624085 
0.585345 0.585345 0.493322 0.582323 0.582323 0.514875 0.645755 0.723359 0.759785 
0.703253 0.703253 0.549643 0.549643 0.491298 0.46382 0.518377 0.527745 0.457756 
0.457756 0.505853 0.651843 0.651843 0.563573 0.527981 0.607851 0.609906 0.466304 
0.340639 0.369055 0.388412 0.488559 0.437848 0.445231 0.392257 0.42579 0.453502 
0.389154 0.365299 0.323373 0.340585 0.525083 0.54005 0.496855 0.603609 0.659813 
0.613896 0.642235 0.502241 0.457155 0.512668 0.459452 0.459452 0.465345 0.402423 
0.421354 0.427102 0.484122 0.482694 0.400001 0.438497 0.464901 0.464901 0.478116 
0.409456 0.383892 0.383427 0.409212 0.45894 0.488551 0.509463 0.502235 0.359927 
0.291024 0.76852 0.521768 0.728003 0.652308 0.562341 0.536796 0.487475 0.555489 
0.652534 0.627293 0.575834 0.610981 0.615246 0.630657 0.653821 0.69306 0.565679 
0.577726 0.577424 0.51525 0.569546 0.569546 0.710513 0.710513 0.898443 0.799723 
0.8511 0.696611 0.590143 0.483989 0.413198 0.373059 0.455733 0.30273 0.330003 
0.360319 0.414641 0.396583 0.378596 0.41662 0.485772 0.486564 0.495246 0.494192 
0.436296 0.374456 0.389382 0.456834 0.491293 0.422681 0.491722 0.449929 0.392209 
0.428853 0.48645 0.588602 0.504773 0.458869 0.424942 0.424942 0.504679 0.433604 
0.44231 0.519046 0.500802 0.51604 0.507421 0.531468 0.512869 0.518543 0.518096 
0.486481 0.591544 0.499105 0.518362 0.4302 0.479302 0.50283 0.438193 0.361555 
0.362892 0.531227 0.587594 0.650771 0.674802 0.674802 0.639276 
WidthEq 1 736 double
1.30131 1.61572 2.30404 2.36138 1.6871 1.78321 2.66512 2.11867 3.30762 
2.41158 2.59669 2.27398 2.39699 2.87968 3.6768 2.65428 2.29971 3.25852 
3.06018 4.34689 3.23719 2.29094 3.18196 2.83852 3.93464 3.92596 3.56658 
3.86782 4.60798 3.17666 4.0374 4.56936 3.39959 1.685 2.51007 3.06307 
4.84876 4.13235 3.08754 4.01433 4.81006 3.78823 2.87343 2.71086 1 
3.65979 3.08285 1.39192 3.63476 4.19743 1.98305 2.6512 5.37812 4.43066 
4.89509 4.57762 2.25703 2.10581 4.90262 1.66255 2.82875 3.30626 4.65345 
3.9645 3.80432 3.69416 3.69569 3.78966 4.2032 4.73063 4.79761 5.14381 
5.21052 5.39949 5.21392 5.12539 5.25798 5.31478 5.8659 5.69472 5.71875 
5.63247 5.01436 4.47907 4.5162 3.14373 4.07787 4.54079 3.11356 2.91587 
3.12488 3.12488 3.07278 3.24507 3.57984 4.08058 4.98891 4.44168 4.71926 
4.56647 4.68666 5.29652 5.4039 4.49947 5.29479 4.7279 4.50221 4.33316 
3.66758 3.61071 3.67428 3.18099 3.41619 3.39796 3.21977 3.12027 3.02544 
2.90579 2.72822 2.72822 2.60399 2.94818 2.90154 3.13133 3.08705 3.53744 
5.02067 4.54364 3.91632 2.74324 2.79216 3.25406 2.72914 2.55133 2.54767 
2.84578 2.95833 2.71578 2.95077 3.05609 3.239 3.57944 3.70575 3.68546 
3.61312 3.7939 2.68323 2.3825 2.62723 3.3073 3.29094 3.33142 3.17511 
3.08269 2.97455 3.10473 3.46036 3.07033 2.88781 2.75915 2.78449 3.25306 
3.05458 4.29804 3.91697 3.55929 3.61803 3.20549 2.91985 2.66799 2.53661 
2.74599 2.64101 3.37533 1.96311 2.48901 2.887 2.77396 2.74572 2.64835 
2.51433 2.36549 2.26661 2.20991 2.28818 2.27988 2.27911 2.18492 2.01985 
2.33651 2.49229 2.53055 2.66181 2.88721 2.74176 2.50986 2.42355 2.30879 
2.30879 2.29397 2.31208 2.31208 2.36676 2.34296 2.34296 2.18622 2.07317 
2.07317 1.75812 1.82284 1.88792 2.16019 2.16019 2.41979 2.70904 2.52987 
2.69515 2.5348 2.28902 2.3382 1.88635 1.90162 1.732 1.75977 1.75977 
2.00331 2.2279 2.2279 2.63817 2.63817 2.54865 1.98305 1.51394 1.3872 
2.98113 2.51599 2.21056 2.13536 2.16306 2.35444 2.527 2.83047 2.84018 
3.00047 2.98232 2.86332 2.59478 2.4722 2.2136 2.27426 2.24479 2.10002 
1.94784 1.92081 1.73487 1.70983 1.59712 1.63058 1.71632 1.71632 1.78714 
2.03187 1.98272 2.35124 2.54848 2.54848 2.77255 2.86278 2.86278 2.97079 
2.83069 2.86952 2.65169 2.622 2.16189 2.35908 2.64584 2.67465 2.96697 
2.60686 2.25086 1.96252 1.97942 2.26332 2.35934 2.448 2.73797 2.69908 
2.4218 2.54382 2.2101 2.41197 2.32569 2.32569 2.68543 2.87197 2.87197 
3.07485 3.22683 3.31702 3.7365 3.75492 3.89937 3.64598 4.32227 4.86996 
4.76795 4.49178 3.89745 3.45025 2.96862 3.05019 2.94595 3.36542 3.99399 
4.00055 3.97252 4.15109 4.59043 4.05363 3.37381 3.09335 3.06051 3.6437 
4.74664 4.56192 4.28897 4.19315 4.55065 4.11289 3.8191 3.8881 3.66163 
3.39128 2.73475 2.31038 2.33537 3.08754 3.03862 2.57174 2.41289 2.4098 
2.62002 2.79771 3.42006 3.54035 3.55121 3.4159 3.95927 3.72427 2.96933 
2.36465 2.36465 2.39851 2.46575 2.46575 2.6919 2.72369 2.72369 2.72727 
2.69689 2.66293 2.60865 2.53413 2.44666 2.64909 4.1385 4.2735 4.3805 
5.1761 4.72192 4.20376 4.23164 2.90042 2.97048 3.02078 3.13833 3.39577 
3.96318 4.17438 4.2816 4.23193 3.96294 3.80847 3.50642 3.41196 3.08195 
2.97763 2.7937 2.55103 2.35924 2.0407 2.09528 2.09814 2.19301 2.3347 
2.48712 4.62304 4.8168 4.01341 3.79072 3.73198 3.15302 2.88299 2.70904 
2.70947 2.69945 2.77258 2.84123 2.84123 2.64296 2.7127 2.75808 3.23329 
3.6768 4.74415 4.78954 4.14502 3.93422 3.85364 3.68389 4.15508 3.89877 
3.81109 3.66338 3.66311 3.24208 2.77512 2.88857 2.88445 2.82768 2.94993 
2.86568 2.82286 2.62358 2.30022 2.30022 2.19769 2.11867 4.13389 4.07332 
4.00142 3.66144 3.66739 3.50857 2.90642 2.96935 2.83437 2.67233 2.59192 
2.42692 2.45045 2.45045 2.33942 2.24373 2.24351 2.6024 2.45082 2.46453 
3.05232 2.83343 3.06571 3.00017 3.16888 3.69507 4.60297 3.47171 3.68045 
3.75831 3.97062 3.11656 3.16618 3.29386 3.47101 4.11565 3.7348 3.94953 
3.95378 3.82658 3.53446 3.74079 3.27491 2.93398 2.74393 2.40636 2.21719 
2.18083 2.13018 2.13018 2.15526 2.33113 2.33113 2.34474 2.20687 2.20687 
2.04062 1.85863 1.66798 1.69391 1.7696 1.79186 1.83752 1.83752 1.90665 
1.97636 1.97636 2.05798 2.0799 1.79462 1.76837 1.73842 1.73842 1.83058 
1.77794 1.82127 1.9101 2.67447 3.14449 4.19291 3.72552 3.64248 3.05021 
2.06453 2.21689 1.9311 1.94177 1.94177 1.95079 1.88726 1.88726 1.77239 
1.78902 1.75078 1.74451 1.71743 1.72558 1.80241 1.83239 2.07015 2.22427 
2.28861 2.147 2.09148 2.11908 2.02919 2.03854 1.84629 1.71021 1.67522 
1.54396 3.55206 2.89195 2.35975 2.0218 2.43381 3.44135 2.95679 2.7082 
2.56459 2.99026 3.00984 2.81423 2.59119 2.80378 2.93885 2.88753 2.73572 
2.86034 2.79307 2.71142 2.60679 2.47227 2.41762 2.25001 2.04805 2.04805 
1.92504 1.92504 1.99735 1.7182 1.7182 1.72973 1.61063 1.5836 1.60017 
1.69268 1.69268 1.81531 1.81531 1.85133 1.88299 1.86446 1.87201 1.81564 
1.81564 1.61585 1.51294 1.51294 1.5308 1.50537 1.44432 1.36988 1.4073 
1.53554 1.64083 1.65764 1.6113 1.65987 1.78197 1.88298 2.09706 2.15653 
2.2232 2.3439 2.31211 3.78447 3.99868 3.59947 3.23813 2.87673 2.6385 
2.61098 2.53096 2.52387 2.51416 2.50735 2.58296 2.58296 2.60248 2.62411 
3.00995 2.8431 2.42998 2.21982 2.26158 2.37573 2.50789 2.50789 2.50325 
2.66165 2.79131 2.82045 2.44812 2.3408 2.32313 2.31582 2.41174 2.79644 
2.94205 2.29971 3.38507 2.90798 3.04041 3.19434 3.6395 3.43342 3.25175 
3.03335 3.25283 3.33557 2.53118 2.16596 2.07783 2.37811 2.35775 2.45248 
2.35431 2.3715 2.10998 1.8955 1.8955 1.60534 1.60534 1.40062 1.62728 
1.5858 1.97106 2.25624 3.90427 3.91946 3.72121 3.64402 2.7105 2.56356 
2.47209 2.49074 2.48974 2.48649 2.12265 2.11321 2.054 2.52484 2.5236 
2.36948 2.32243 2.35772 2.02438 1.80998 2.55967 2.37895 2.3777 2.50387 
2.39363 2.06172 1.90961 2.02047 2.24095 2.27479 2.27479 3.11228 2.85322 
2.72044 2.05105 1.983 1.99844 1.99819 2.54942 2.48964 2.49905 1.6639 
1.73682 1.41825 1.49531 1.47554 1.55121 1.62173 1.67365 1.71497 1.94728 
2.04851 2.21286 2.14354 1.84188 1.72561 1.72561 1.61572 
rRFP 1 736 double
3093.31 3291.62 3725.77 3761.94 3336.64 3397.26 3953.52 3608.85 4358.77 
3793.6 3910.36 3706.81 3784.4 4088.85 4591.63 3946.68 3723.04 4327.8 
4202.7 5014.28 4314.35 3717.51 4279.51 4062.89 4754.26 4748.78 4522.11 
4712.11 5178.96 4276.17 4819.07 5154.6 4416.78 3335.32 3855.72 4204.52 
5330.83 4878.96 4219.96 4804.52 5306.42 4661.91 4084.91 3982.37 2903.26 
4580.9 4217 3150.46 4565.11 4920.01 3523.31 3944.74 5664.72 5067.12 
5360.05 5159.81 3696.12 3600.74 5364.8 3321.16 4056.73 4357.91 5207.64 
4773.09 4672.06 4602.58 4603.54 4662.81 4923.65 5256.32 5298.57 5516.93 
5559.01 5678.2 5561.15 5505.31 5588.94 5624.77 5972.38 5864.41 5879.57 
5825.15 5435.28 5097.65 5121.07 4255.4 4844.6 5136.58 4236.37 4111.68 
4243.51 4243.51 4210.65 4319.32 4530.47 4846.31 5419.23 5074.07 5249.15 
5152.78 5228.59 5613.25 5680.98 5110.52 5612.16 5254.6 5112.25 5005.62 
4585.81 4549.94 4590.04 4278.9 4427.25 4415.75 4303.36 4240.6 4180.79 
4105.32 3993.32 3993.32 3914.96 4132.06 4102.64 4247.58 4219.65 4503.73 
5439.26 5138.38 4742.7 4002.79 4033.65 4324.99 3993.9 3881.75 3879.44 
4067.47 4138.46 3985.47 4133.69 4200.12 4315.49 4530.22 4609.89 4597.09 
4551.46 4665.49 3964.94 3775.26 3929.62 4358.57 4348.25 4373.78 4275.19 
4216.9 4148.69 4230.8 4455.11 4209.1 4093.98 4012.83 4028.81 4324.36 
4199.17 4983.47 4743.11 4517.51 4554.56 4294.35 4114.19 3955.33 3872.46 
4004.53 3938.31 4401.48 3510.73 3842.44 4093.47 4022.17 4004.36 3942.94 