# vtk DataFile Version 3.0
vtk output
ASCII
DATASET POLYDATA
POINTS 587 float
1.56129 -0.954808 1.40571 0.800475 0.70072 1.02272 1.10295 0.773216 1.07426 
1.23743 1.09225 0.966949 1.44954 1.04731 1.11133 0.111995 -0.262957 0.619384 
0.738716 0.870999 0.655847 2.78766 1.69993 0.829965 2.9437 1.6233 0.83527 
1.20359 1.58765 0.266682 -0.387698 -0.434122 0.110366 0.865353 -1.5131 0.126582 
3.47279 0.798809 0.352801 -0.459257 -1.08344 -0.131731 0.336647 -1.73831 -0.119697 
-0.518263 -0.412459 -0.297903 2.9437 -1.12741 -0.12412 -0.654901 -1.02338 -0.541846 
1.52029 -1.16436 -0.415113 2.19974 -1.54947 -1.06396 1.89209 -1.47177 -1.3462 
6.01058 -0.135012 -0.883025 5.57798 -0.887153 -1.15149 5.81544 -0.515661 -1.24943 
5.88453 -0.183376 -1.14261 0.765538 0.257288 -1.58519 -0.340291 -0.476509 -1.89617 
5.84027 -1.32886 -1.56179 5.71637 -0.591906 -1.52752 5.8238 0.301892 -1.46999 
6.52952 -0.392396 -1.46579 0.507104 -1.26017 -2.09147 0.493048 -1.0422 -2.07745 
0.666541 -1.1538 -2.13996 0.255453 -0.57781 -2.06574 5.73029 -0.735872 -1.73556 
5.80086 -0.0364668 -1.69138 5.82634 -0.860269 -2.1381 1.44694 -0.780412 -2.40487 
4.94183 -0.912695 -2.19588 5.7342 -0.395174 -2.25114 1.30403 -0.770092 -2.61384 
1.15563 -0.216188 -2.79222 2.74922 0.423947 -2.6905 2.79912 0.52253 -2.6657 
2.824 0.599467 -2.64863 2.84445 0.658579 -2.63161 2.85223 0.725247 -2.60379 
2.85859 0.790661 -2.55507 2.87397 0.846313 -2.49891 2.87849 0.912668 -2.44282 
2.87633 0.986449 -2.39416 2.87243 1.06109 -2.33812 2.86844 1.1358 -2.28207 
2.86491 1.21093 -2.23341 2.86268 1.28725 -2.20691 2.85956 1.36261 -2.18794 
2.84765 1.42909 -2.1626 2.81545 1.47506 -2.11738 2.77447 1.51214 -2.06576 
2.73259 1.54827 -2.02171 2.69194 1.5855 -1.99981 2.65093 1.62228 -1.99282 
2.60339 1.65238 -1.99405 2.54474 1.67122 -1.98917 2.4944 1.6986 -1.96844 
2.44096 1.72301 -1.91832 2.36987 1.7296 -1.84801 2.29786 1.73535 -1.76295 
2.24297 1.75842 -1.6907 2.18938 1.78267 -1.6406 2.11968 1.79041 -1.61475 
2.04307 1.79111 -1.58972 1.97246 1.79801 -1.5491 1.91894 1.82234 -1.49899 
1.86671 1.84797 -1.44873 1.80434 1.86326 -1.40713 1.74339 1.88007 -1.35048 
1.66959 1.88391 -1.28049 1.58737 1.87931 -1.18922 1.50341 1.87299 -1.0907 
1.41809 1.86526 -0.970064 1.33277 1.85492 -0.827266 1.25359 1.83363 -0.642229 
1.19517 1.78728 -0.404247 1.16964 1.70967 -0.0948456 2.82065 0.334819 -2.67505 
2.88645 0.293708 -2.66216 2.93356 0.258843 -2.65627 2.9657 0.212862 -2.65566 
2.98426 0.153334 -2.65046 3.00544 0.0965611 -2.63008 3.02118 0.0344343 -2.58061 
3.04741 -0.0168878 -2.50756 3.0797 -0.0619499 -2.41893 3.11291 -0.106172 -2.34505 
3.14051 -0.156234 -2.29416 3.15801 -0.216751 -2.27422 3.17875 -0.274063 -2.26876 
3.18937 -0.341719 -2.27195 3.2008 -0.408496 -2.26761 3.22888 -0.458255 -2.2464 
3.26211 -0.502588 -2.19483 3.28833 -0.553917 -2.12179 3.30268 -0.617186 -2.02787 
3.32754 -0.669768 -1.93268 3.35765 -0.716964 -1.82944 3.38204 -0.769818 -1.72686 
3.39454 -0.832035 -1.60326 3.41603 -0.870573 -1.45545 3.44099 -0.880878 -1.27608 
3.45673 -0.902308 -1.08306 3.4457 -0.909555 -0.883447 3.41396 -0.884844 -0.6833 
3.38481 -0.838095 -0.489175 3.35462 -0.792219 -0.317462 3.3457 -0.739036 -0.181176 
3.35693 -0.687205 -0.0809005 3.35961 -0.622686 0.00470564 3.35655 -0.55236 0.0902965 
3.35893 -0.48826 0.183287 3.37425 -0.435151 0.2616 3.38734 -0.377234 0.317741 
3.4077 -0.322117 0.337011 3.42498 -0.260495 0.326717 3.44907 -0.202096 0.286937 
3.47002 -0.139726 0.239741 3.50253 -0.0896085 0.200011 3.54003 -0.0461375 0.175074 
3.57171 0.00306297 0.150102 3.5935 0.0637282 0.110308 3.62524 0.115473 0.0631761 
3.65599 0.166453 0.030822 3.67351 0.225944 0.0352937 3.68985 0.279712 0.0765267 
3.68611 0.337518 0.131629 3.66497 0.391985 0.178016 3.65313 0.458375 0.20336 
3.64086 0.524389 0.213793 3.61276 0.574259 0.214891 3.58426 0.623849 0.220905 
3.56923 0.689072 0.243506 3.54155 0.752821 0.290027 2.61669 0.450531 -2.77773 
2.52129 0.461107 -2.83879 2.44343 0.461821 -2.86835 2.37451 0.453363 -2.8793 
2.31626 0.43379 -2.88402 2.24851 0.423558 -2.8888 2.18083 0.413256 -2.89358 
2.12403 0.392252 -2.8983 2.06479 0.373654 -2.90302 2.01595 0.343948 -2.90031 
1.9662 0.313394 -2.88283 1.90474 0.292632 -2.85065 1.84695 0.268245 -2.81845 
1.7851 0.249599 -2.80104 1.72869 0.226472 -2.79099 1.66861 0.206963 -2.78095 
1.61885 0.176417 -2.76347 1.56964 0.146213 -2.75337 1.51138 0.125771 -2.75071 
1.46438 0.0951246 -2.75537 1.42321 0.0587484 -2.75999 1.3762 0.0281084 -2.76465 
1.31848 0.00800948 -2.76937 1.27202 -0.0222941 -2.7814 1.23321 -0.0592538 -2.80078 
1.19708 -0.0988571 -2.82014 1.16808 -0.148081 -2.8173 1.1662 -0.283615 -2.7508 
1.20087 -0.326618 -2.72137 1.24825 -0.356792 -2.70528 1.27629 -0.406809 -2.72126 
1.30013 -0.461147 -2.74517 1.31077 -0.528915 -2.77067 1.31199 -0.606038 -2.76012 
1.30919 -0.686976 -2.70543 1.07205 -0.222162 -2.70109 0.990386 -0.226531 -2.63951 
0.912303 -0.230077 -2.61481 0.842256 -0.239789 -2.60483 0.782559 -0.260552 -2.58741 
0.710761 -0.272021 -2.54792 0.632761 -0.278258 -2.50106 0.562346 -0.291088 -2.46156 
0.511218 -0.32028 -2.44409 0.461922 -0.350407 -2.43398 0.402373 -0.372187 -2.40918 
0.352714 -0.408045 -2.3474 0.315468 -0.459596 -2.256 0.28994 -0.523545 -2.15715 
5.76275 -0.463898 -2.38213 5.78523 -0.526619 -2.47352 5.81573 -0.575295 -2.49917 
5.84049 -0.630637 -2.45124 5.84095 -0.723625 -2.32269 5.72548 -0.288654 -2.27039 
5.72096 -0.201733 -2.2583 5.71725 -0.127791 -2.18989 5.72023 -0.0682816 -2.06243 
5.74806 -0.038784 -1.88805 1.27549 -0.818896 -2.61839 1.25644 -0.87704 -2.62288 
1.22606 -0.924903 -2.62005 1.18764 -0.9666 -2.6025 1.14655 -1.00828 -2.56282 
1.10485 -1.05023 -2.51575 1.06177 -1.09082 -2.4687 1.01065 -1.12264 -2.42908 
0.939419 -1.13617 -2.37727 0.857864 -1.14218 -2.3108 0.768298 -1.14784 -2.22747 
1.37526 -0.775462 -2.50567 5.69317 -0.476678 -1.9932 5.69456 -0.53905 -1.75135 
5.7798 -0.78332 -1.9359 5.73435 -0.887235 -2.26427 5.6545 -0.894497 -2.35884 
5.57757 -0.895065 -2.39337 5.49858 -0.897007 -2.37607 5.41821 -0.902653 -2.31447 
5.3445 -0.915726 -2.24544 5.28206 -0.93901 -2.18374 5.21019 -0.950402 -2.14423 
5.1331 -0.953029 -2.1343 5.05743 -0.951748 -2.14635 4.99085 -0.94115 -2.17217 
5.81723 -1.01315 -1.88719 5.80838 -1.12316 -1.70073 5.80451 -1.20842 -1.60175 
5.8127 -1.27849 -1.56807 5.8346 -0.101629 -1.41982 5.80015 0.0411109 -1.68701 
5.80029 0.116992 -1.67524 5.80617 0.184607 -1.6413 5.82065 0.239419 -1.57038 
5.68787 -0.794511 -1.54082 5.64667 -0.854357 -1.34607 5.7231 -0.664099 -1.62785 
0.177496 -0.578475 -2.04087 0.106806 -0.571658 -2.00027 0.053213 -0.547404 -1.95016 
0.000155131 -0.522652 -1.90744 -0.0678154 -0.513203 -1.88882 -0.136143 -0.504208 -1.8851 
-0.194784 -0.485406 -1.88767 -0.264087 -0.477447 -1.89151 0.267422 -0.644088 -2.06877 
0.296869 -0.692587 -2.06971 0.333303 -0.73398 -2.06981 0.364106 -0.7811 -2.07058 
0.384402 -0.838908 -2.07261 0.415197 -0.886034 -2.07339 0.451631 -0.927427 -2.07349 
0.481079 -0.975926 -2.07442 0.614398 -1.0911 -2.10741 0.560778 -1.05388 -2.08631 
0.615184 -1.22132 -2.11477 0.561634 -1.26232 -2.09812 0.493308 -1.12039 -2.08189 
0.493371 -1.19862 -2.08634 6.47969 -0.420251 -1.47046 6.41201 -0.43056 -1.47524 
6.33676 -0.434277 -1.47268 6.26641 -0.444562 -1.45532 6.20672 -0.467939 -1.41575 
6.14288 -0.488111 -1.36881 6.08296 -0.511608 -1.32679 6.01048 -0.521906 -1.29965 
5.92258 -0.522255 -1.27538 5.7576 -0.556709 -1.38668 0.747439 0.1869 -1.49368 
0.704823 0.144113 -1.43186 0.63677 0.1307 -1.40711 0.560216 0.12826 -1.40455 
0.482665 0.127672 -1.40939 0.404578 0.126739 -1.40684 0.325576 0.124968 -1.38954 
0.245203 0.121935 -1.3501 0.164373 0.118482 -1.30326 0.0845358 0.115793 -1.27119 
0.00782444 0.113508 -1.26864 -0.0603148 0.105399 -1.28819 -0.116807 0.0849631 -1.30029 
-0.178278 0.0668152 -1.29026 -0.236517 0.0420072 -1.25068 -0.299735 0.0194879 -1.18898 
-0.352221 -0.0162005 -1.10506 -0.399264 -0.0607223 -0.991569 -0.444993 -0.109149 -0.855921 
-0.483067 -0.166845 -0.705454 -0.50138 -0.243112 -0.562256 -0.510739 -0.327319 -0.426392 
5.95393 -0.13475 -0.992453 5.82909 -0.262529 -1.13135 5.81051 -0.341097 -1.14007 
5.81077 -0.423193 -1.1819 5.9278 -0.269617 -1.04634 5.97898 -0.292399 -0.95341 
6.01192 -0.26135 -0.87527 6.02174 -0.195912 -0.848629 1.99696 -1.46231 -1.359 
2.07483 -1.46992 -1.32735 2.13201 -1.50373 -1.22414 1.78936 -1.46112 -1.39161 
1.70566 -1.45776 -1.43378 1.63852 -1.46577 -1.4706 1.59068 -1.49448 -1.48511 
1.55035 -1.53256 -1.48234 1.51047 -1.57282 -1.4648 1.47159 -1.61233 -1.46202 
1.43355 -1.65091 -1.47401 1.39505 -1.6873 -1.50077 1.3472 -1.71625 -1.51281 
1.28045 -1.72833 -1.5102 1.21141 -1.7399 -1.49284 1.15224 -1.76031 -1.4828 
1.08265 -1.7696 -1.48021 1.00639 -1.77147 -1.48504 0.928842 -1.77206 -1.48988 
0.850756 -1.77299 -1.48733 0.771754 -1.77476 -1.47003 0.691382 -1.77779 -1.43058 
0.61055 -1.78125 -1.38374 0.530255 -1.7842 -1.34429 0.452602 -1.7846 -1.32682 
0.382849 -1.77706 -1.32328 0.3242 -1.75826 -1.32584 0.25633 -1.74885 -1.32951 
0.189731 -1.73814 -1.33303 0.13896 -1.71128 -1.32721 0.0873505 -1.68519 -1.30662 
0.0193564 -1.67563 -1.26569 -0.0433113 -1.66061 -1.21668 -0.0843601 -1.62364 -1.17252 
-0.136948 -1.59855 -1.15205 -0.183668 -1.56757 -1.14575 -0.224223 -1.53037 -1.14614 
-0.264778 -1.49317 -1.14654 -0.310964 -1.4617 -1.14761 -0.360755 -1.43389 -1.14911 
-0.389378 -1.38456 -1.14807 -0.421605 -1.33889 -1.14747 -0.459541 -1.29902 -1.14755 
-0.499052 -1.26071 -1.14038 -0.53874 -1.22245 -1.11093 -0.574115 -1.17953 -1.03635 
-0.60076 -1.12742 -0.908656 -0.632475 -1.08019 -0.736961 1.88609 -1.57401 -1.21364 
1.89035 -1.65395 -1.09156 1.92332 -1.69923 -0.990494 1.98573 -1.7137 -0.923025 
2.05913 -1.71426 -0.898689 2.12726 -1.69976 -0.91842 2.17304 -1.64716 -0.979496 
2.29036 -1.54821 -1.01863 2.35469 -1.53339 -0.969203 2.38949 -1.49704 -0.90303 
2.43642 -1.47613 -0.814686 2.48368 -1.45879 -0.699269 2.53539 -1.4467 -0.576438 
2.57598 -1.42193 -0.468438 2.61174 -1.38806 -0.397398 2.64933 -1.35251 -0.355875 
2.69435 -1.32339 -0.321695 2.74795 -1.30446 -0.272699 2.78317 -1.26831 -0.216417 
2.801 -1.2142 -0.167635 2.83109 -1.16952 -0.14093 2.87755 -1.13922 -0.128891 
1.49175 -1.21316 -0.419659 1.47262 -1.27123 -0.424149 1.44087 -1.31774 -0.421328 
1.39395 -1.35108 -0.403833 1.33356 -1.37377 -0.364269 1.28298 -1.40785 -0.309873 
1.23899 -1.44929 -0.248051 1.19499 -1.49072 -0.186229 1.14434 -1.52473 -0.131834 
1.08196 -1.54634 -0.0848949 1.02249 -1.56963 -0.0453086 0.953091 -1.57862 0.00191382 
0.892537 -1.56415 0.0584551 -0.611731 -1.05813 -0.407349 -0.545495 -1.07499 -0.270394 
-0.651165 -0.94171 -0.633607 -0.655626 -0.868402 -0.704042 -0.671202 -0.808816 -0.746213 
-0.669994 -0.746318 -0.772315 -0.652365 -0.688605 -0.775374 -0.645108 -0.619886 -0.763577 
-0.644891 -0.546695 -0.729663 -0.638311 -0.481506 -0.680948 -0.613416 -0.438684 -0.595201 
-0.574348 -0.415026 -0.465059 1.08228 1.62184 0.065715 1.01853 1.61002 -0.0536006 
0.984026 1.56619 -0.0646053 0.96047 1.50432 -0.000553274 0.925525 1.44964 0.0982356 
0.890659 1.39487 0.197025 0.8675 1.33034 0.281121 0.841499 1.27033 0.350436 
0.820169 1.20747 0.405006 0.78904 1.15599 0.444745 0.760123 1.10408 0.469733 
0.74874 1.03404 0.502213 0.743955 0.954039 0.564258 -0.452981 -0.423291 -0.0937684 
3.49351 0.915484 0.132763 3.49852 1.00455 -0.0402546 3.48646 1.07099 -0.15368 
3.48217 1.14466 -0.229052 3.48273 1.22327 -0.291439 3.4763 1.29478 -0.354672 
3.4527 1.34878 -0.427392 3.42739 1.40095 -0.515196 3.40569 1.45666 -0.624871 
3.36322 1.49118 -0.744476 3.32344 1.52854 -0.848891 3.28714 1.56967 -0.915694 
3.25051 1.61072 -0.937935 3.21737 1.65555 -0.922564 3.18592 1.70229 -0.877255 
3.13158 1.72578 -0.827241 3.07379 1.74577 -0.777651 3.01038 1.75999 -0.736173 
2.95206 1.77947 -0.679208 2.89507 1.80041 -0.607205 2.85382 1.83745 -0.518458 
2.80502 1.86671 -0.445475 2.76471 1.90448 -0.393788 2.70206 1.91938 -0.367087 
2.62531 1.91994 -0.342076 2.5447 1.91672 -0.29522 2.46385 1.91337 -0.226077 
2.38914 1.91621 -0.14135 2.32677 1.92897 -0.0627101 2.26147 1.92429 0.00730983 
2.20175 1.90102 0.0691917 2.13762 1.88043 0.123515 2.0793 1.8557 0.163092 
2.01699 1.83664 0.187881 1.95967 1.81267 0.2127 1.89774 1.79149 0.252255 
1.84617 1.75925 0.299269 1.79505 1.72744 0.338888 1.7345 1.70752 0.356301 
1.67854 1.68481 0.358979 1.61799 1.6675 0.354242 1.56104 1.64665 0.349527 
1.492 1.63773 0.342614 1.41403 1.63446 0.329108 1.3224 1.62228 0.303621 
0.298788 -1.69836 -0.119769 0.266103 -1.65311 -0.111782 0.236031 -1.60511 -0.0886146 
0.182606 -1.58078 -0.0533686 0.126263 -1.55946 -0.0259107 0.0668673 -1.54142 -0.0285639 
0.021009 -1.5098 -0.0593397 -0.018608 -1.47187 -0.0968061 -0.0648472 -1.44059 -0.120189 
-0.122508 -1.42083 -0.130072 -0.170049 -1.39074 -0.131305 -0.210534 -1.35346 -0.131692 
-0.248463 -1.31359 -0.131772 -0.279412 -1.26662 -0.131016 -0.301085 -1.21011 -0.129142 
-0.340787 -1.17011 -0.129325 -0.400985 -1.13971 -0.131324 -0.452427 -0.982153 -0.0809462 
-0.443839 -0.905152 -0.0388606 -0.427069 -0.847216 0.00264676 -0.419782 -0.780884 0.0366083 
-0.412059 -0.71421 0.0631804 -0.393474 -0.655609 0.0676671 -0.385297 -0.5859 0.0647051 
-0.385163 -0.51002 0.0764686 3.39568 0.81818 0.485416 3.31443 0.821251 0.59206 
3.23297 0.818372 0.678532 3.15859 0.821726 0.758361 3.09574 0.836787 0.844519 
3.03019 0.849015 0.915496 2.96962 0.866177 0.964754 2.89903 0.872954 0.983064 
2.82236 0.873471 0.985781 2.74616 0.874409 0.981113 2.67648 0.882026 0.984666 
2.61774 0.900868 1.0044 2.5541 0.914856 1.04585 2.49488 0.933388 1.09528 
2.43124 0.947375 1.13673 2.37251 0.966218 1.15646 2.3029 0.973913 1.16002 
2.22797 0.976144 1.15551 2.15874 0.984181 1.15168 2.1001 1.00298 1.14911 
2.03215 1.01232 1.14544 1.96421 1.02166 1.14176 1.90564 1.04053 1.1392 
1.83769 1.04987 1.13552 1.76974 1.05921 1.13185 1.71118 1.07793 1.12928 
1.64325 1.08454 1.12545 1.57547 1.07704 1.12083 1.51729 1.05754 1.11611 
-0.312059 -0.432523 0.122579 -0.24621 -0.423902 0.156884 -0.201873 -0.398466 0.227974 
-0.166108 -0.367209 0.321173 -0.123604 -0.340841 0.399649 -0.0664341 -0.323916 0.436367 
-0.0111172 -0.302533 0.458352 0.0513764 -0.286762 0.515155 1.17936 1.42237 0.484088 
1.16675 1.30947 0.654575 1.16967 1.22946 0.772684 1.19637 1.16542 0.869451 
2.87726 1.63417 0.831772 2.82837 1.66289 0.830378 0.752031 0.784542 0.838649 
0.796299 0.851717 0.757075 0.81957 0.797688 0.879689 0.127932 -0.169467 0.660374 
0.149309 -0.104178 0.69515 0.166148 -0.0442805 0.719432 0.194792 0.00481103 0.721522 
0.223334 0.0536141 0.726068 0.241924 0.111339 0.737942 0.270478 0.157521 0.764637 
0.30661 0.197118 0.783992 0.344497 0.235858 0.79598 0.382462 0.274521 0.807969 
0.419513 0.312344 0.834716 0.455192 0.348907 0.883604 0.490413 0.385049 0.939887 
0.526092 0.421611 0.988775 0.563143 0.459435 1.01552 0.601334 0.498321 1.02647 
0.64307 0.540749 1.02723 0.702829 0.601478 1.02483 1.19603 1.01222 1.02425 
1.17115 0.941672 1.0633 1.141 0.890234 1.07832 1.1135 0.83972 1.0787 
0.174254 -0.314776 0.684708 0.204771 -0.375097 0.727773 0.236351 -0.423247 0.746808 
0.27408 -0.463391 0.751818 0.314101 -0.50109 0.759588 0.360263 -0.532451 0.782962 
0.415644 -0.5543 0.829746 0.459977 -0.587342 0.882655 0.497866 -0.626985 0.927343 
0.537049 -0.665445 0.94988 0.58232 -0.697758 0.965717 0.630816 -0.726746 0.98937 
0.65812 -0.777155 1.03279 0.696829 -0.815918 1.08502 0.759259 -0.830597 1.13265 
0.824256 -0.8428 1.15828 0.872765 -0.871865 1.16707 0.914822 -0.907537 1.16765 
0.963858 -0.93611 1.16906 1.03173 -0.945519 1.17273 1.10748 -0.946877 1.18478 
1.18366 -0.947703 1.21175 1.25855 -0.949712 1.26087 1.33298 -0.952142 1.31739 
1.40786 -0.954151 1.36651 1.48412 -0.954899 1.39349 1.38027 1.05636 1.11251 
1.31793 1.07772 1.06526 1.44468 0.967382 1.17339 1.43192 0.896086 1.22801 
1.40156 0.842981 1.27514 1.36935 0.793438 1.30748 1.33897 0.74383 1.32509 
1.28079 0.72608 1.3056 1.21062 0.727168 1.24928 1.14786 0.740979 1.16441 
1.02755 0.758595 1.12292 0.942104 0.730915 1.10648 
LINES 50 695
44 43 44 45 46 47 48 49 50 51 52 53 54 55 56 57 58 59 60 61 62 63 64 65 66 67 68 69 70 71 72 73 74 75 76 77 78 79 80 81 82 83 84 85 9 
59 43 86 87 88 89 90 91 92 93 94 95 96 97 98 99 100 101 102 103 104 105 106 107 108 109 110 111 112 113 114 115 116 117 118 119 120 121 122 123 124 125 126 127 128 129 130 131 132 133 134 135 136 137 138 139 140 141 142 12 
29 43 143 144 145 146 147 148 149 150 151 152 153 154 155 156 157 158 159 160 161 162 163 164 165 166 167 168 169 42 
10 42 170 171 172 173 174 175 176 177 41 
16 42 178 179 180 181 182 183 184 185 186 187 188 189 190 191 34 
7 40 192 193 194 195 196 37 
7 40 197 198 199 200 201 36 
13 41 202 203 204 205 206 207 208 209 210 211 212 33 
3 41 213 38 
4 40 214 215 28 
3 37 216 35 
13 37 217 218 219 220 221 222 223 224 225 226 227 39 
6 37 228 229 230 231 27 
3 36 232 24 
6 36 233 234 235 236 29 
4 35 237 238 22 
3 35 239 28 
10 34 240 241 242 243 244 245 246 247 26 
10 34 248 249 250 251 252 253 254 255 32 
4 33 256 257 32 
11 30 262 263 264 265 266 267 268 269 270 23 
3 28 271 23 
24 25 272 273 274 275 276 277 278 279 280 281 282 283 284 285 286 287 288 289 290 291 292 293 15 
5 24 295 296 297 23 
5 20 302 303 304 19 
47 20 305 306 307 308 309 310 311 312 313 314 315 316 317 318 319 320 321 322 323 324 325 326 327 328 329 330 331 332 333 334 335 336 337 338 339 340 341 342 343 344 345 346 347 348 349 17 
9 20 350 351 352 353 354 355 356 19 
17 19 357 358 359 360 361 362 363 364 365 366 367 368 369 370 371 16 
15 18 372 373 374 375 376 377 378 379 380 381 382 383 384 11 
4 17 385 386 13 
12 17 387 388 389 390 391 392 393 394 395 396 15 
15 9 397 398 399 400 401 402 403 404 405 406 407 408 409 6 
3 15 410 10 
47 12 411 412 413 414 415 416 417 418 419 420 421 422 423 424 425 426 427 428 429 430 431 432 433 434 435 436 437 438 439 440 441 442 443 444 445 446 447 448 449 450 451 452 453 454 455 9 
19 14 456 457 458 459 460 461 462 463 464 465 466 467 468 469 470 471 472 13 
10 13 473 474 475 476 477 478 479 480 10 
31 12 481 482 483 484 485 486 487 488 489 490 491 492 493 494 495 496 497 498 499 500 501 502 503 504 505 506 507 508 509 4 
10 10 510 511 512 513 514 515 516 517 5 
6 9 518 519 520 521 3 
4 8 522 523 7 
3 6 524 1 
4 6 525 526 1 
20 5 527 528 529 530 531 532 533 534 535 536 537 538 539 540 541 542 543 544 1 
6 3 545 546 547 548 2 
28 5 549 550 551 552 553 554 555 556 557 558 559 560 561 562 563 564 565 566 567 568 569 570 571 572 573 574 0 
4 4 575 576 3 
10 4 577 578 579 580 581 582 583 584 2 
4 2 585 586 1 
7 33 258 259 31 261 260 32 
8 24 294 21 301 300 299 298 24 

POINT_DATA 587
SCALARS DY_raw double
LOOKUP_TABLE default
373.735 544.1 381.095 425.569 390.7 402.746 443.48 452.93 371.383 
414.354 404.405 420.728 265.845 422.043 407.4 415.851 414.964 470.722 
322.51 347.182 292.107 388.559 1027.11 465.544 313.454 267.73 535.299 
276.39 464.181 382.16 192.289 429.009 389.608 339.138 275.653 375.628 
351.754 338.471 306.034 324.933 436.986 313.77 244.536 493.882 467.553 
495.043 516.01 536.808 486.255 617.777 564.096 569.334 653.778 501.018 
412.062 453.873 345.373 284.389 316.019 335.259 356.966 356.966 378.2 
378.2 360.409 323.619 356.617 358.796 320.401 351.912 310.192 304.378 
304.378 280.217 260.125 282.454 258.824 291.5 313.128 291.804 296.484 
282.777 285.468 302.472 345.403 344.513 487.755 521.888 510.989 485.087 
492.151 547.027 594.969 763.56 883.987 1124.91 831.865 899.292 753.036 
588.983 724.59 478.626 487.728 552.751 426.132 460.286 496.046 504.585 
509.857 567.354 526.89 664.479 539.951 475.685 418.609 340.549 318.242 
340.497 314.693 346.194 343.639 569.369 577.369 505.043 505.043 463.622 
395.277 360.757 426.765 370.08 331.489 285.063 298.141 298.141 323.431 
363.175 356.675 321.79 290.812 266.498 267.594 268.888 261.72 482.529 
464.525 490.134 556.181 573.48 607.545 596.669 532.064 492.534 505.676 
481.113 481.113 497.92 459.241 507.07 464.882 447.85 473.633 423.587 
405.051 408.677 356.005 334.057 334.057 270.491 270.491 258.467 244.536 
268.995 281.998 281.998 289.086 261.006 256.141 282.465 270.593 294.146 
290.191 300.593 336.794 361.543 390.39 369.719 388.715 390.125 369.471 
382.82 354.178 257.582 360.072 338.035 326.019 328.029 352.032 346.061 
320.454 314.739 370.325 395.875 293.577 293.577 307.399 327.202 348.375 
364.488 383.679 364.68 331.132 313.58 304.983 324.917 576.37 401.484 
397.299 384.09 373.154 375.743 321.715 329.6 324.316 290.935 291.616 
276.908 274.903 291.925 323.897 342.018 338.698 313.012 355.504 307.001 
330.821 279.087 279.262 453.909 664.471 470.076 274.215 293.39 299.569 
299.569 357.94 367.244 395.943 499 277.234 305.479 322.822 388.125 
388.125 401.052 420.193 420.193 378.421 384.178 378.217 410.601 428.63 
472.427 192.289 206.406 221.229 225.368 258.704 311.425 321.544 354.794 
364.315 393.863 293.625 319.719 332.985 337.324 326.33 300.42 359.715 
318.162 318.695 340.896 332.379 339.28 347.351 316.557 342.098 326.216 
294.767 308.32 310.826 363.962 356.203 389.984 371.516 395.005 417.32 
495.374 363.776 398.144 408.376 388.559 294.021 306.144 340.09 304.214 
314.977 327.722 328.036 323.732 342.055 342.055 352.865 315.774 315.774 
332.491 366.99 384.841 368.298 341.349 341.349 329.867 327.367 326.616 
343.484 343.016 397.982 357.394 345.368 345.368 300.817 300.817 302.271 
282.173 325.799 323.535 273.881 273.881 312.435 316.673 316.673 292.197 
292.197 282.662 276.407 267.752 277.618 338.937 408.838 425.148 319.897 
330.457 360.642 367.689 365.553 327.882 325.171 298.697 259.714 263.412 
275.08 287.953 378.444 399.336 382.248 359.055 350.297 348.237 394.532 
410.274 446.341 446.341 304.241 289.899 289.899 286.065 308.839 305.847 
275.61 294.083 290.722 279.499 297.353 306.157 352.365 481.546 427.443 
434.537 383.24 381.043 422.55 471.529 564.166 497.496 540.999 559.816 
416.955 438.943 385.682 380.443 402.397 443.154 408.712 467.713 465.972 
532.021 462.64 482.534 446.021 412.389 464.122 337.9 402.075 436.421 
456.153 497.958 400.142 432.914 385.851 324.933 268.552 224.423 190.058 
201.987 201.987 223.934 253.72 300.434 310.399 365.67 377.091 346.901 
355.048 341.288 379.341 409.98 396.944 381.224 388.428 370.565 328.622 
293.677 292.903 291.625 278.618 277.624 298.625 287.813 305.207 285.114 
296.478 296.478 326.485 319.324 332.845 357.531 407.4 370.303 370.303 
364.426 360.266 360.266 352.763 346.159 346.159 354.555 356.977 356.977 
340.317 340.317 345.582 367.398 389.285 421.752 444.739 468.365 434.498 
453.489 409.147 447.603 452.741 307.744 332.269 331.863 336.875 327.213 
351.142 338.162 321.014 321.014 301.174 318.015 354.611 332.9 375.395 
371.019 364.955 403.516 360.576 334.935 360.934 339.051 339.051 340.072 
341.761 341.761 361.303 382.805 388.439 384.366 404.405 361.94 348.971 
368.785 324.56 331.472 299.73 332.826 441.089 492.693 454.686 454.929 
403.224 422.055 486.413 469.647 480.044 405.657 441.019 416.812 440.798 
440.798 443.898 469.239 469.239 511.652 525.026 572.35 550.781 598.214 
627.048 539.352 507.996 483.552 487.276 447.047 444.963 404.502 381.095 
440.189 499.649 503.23 519.784 519.784 525.856 494.466 539.602 516.36 
516.521 481.611 469.328 504.989 524.98 507.277 507.277 570.573 512.766 
512.766 502.362 541.062 563.061 515.161 499.122 543.191 415.922 427.367 
444.528 406.068 426.307 441.079 477.511 477.511 490.158 441.025 368.703 
459.362 542.991 
FIELD FieldData 7
DY_minmax 1 587 double
0.196476 0.378714 0.204349 0.251922 0.214623 0.227509 0.271082 0.28119 0.193961 
0.239926 0.229284 0.246744 0.0810683 0.24815 0.232487 0.241527 0.240579 0.300222 
0.141681 0.168073 0.10916 0.212333 0.895384 0.294683 0.131994 0.0830838 0.369299 
0.0923481 0.293225 0.205489 0.00238602 0.255602 0.213455 0.159469 0.0915594 0.198501 
0.172963 0.158755 0.124057 0.144274 0.264135 0.132333 0.0582736 0.324996 0.296832 
0.326237 0.348666 0.370913 0.316837 0.457524 0.400103 0.405706 0.496034 0.332629 
0.237474 0.282199 0.166138 0.100905 0.134738 0.155319 0.178539 0.178539 0.201252 
0.201252 0.182222 0.142868 0.178166 0.180496 0.139425 0.173133 0.128506 0.122286 
0.122286 0.0964413 0.0749492 0.0988338 0.0735573 0.108511 0.131646 0.108835 0.113842 
0.0991799 0.102059 0.120247 0.16617 0.165218 0.318442 0.354953 0.343295 0.315588 
0.323144 0.381844 0.433127 0.613467 0.742285 1 0.686531 0.758657 0.602209 
0.426724 0.571781 0.308676 0.318412 0.387967 0.252525 0.289059 0.327311 0.336444 
0.342084 0.403587 0.360304 0.507481 0.374275 0.305531 0.244477 0.160978 0.137116 
0.160922 0.13332 0.167017 0.164283 0.405743 0.4143 0.336934 0.336934 0.292627 
0.219519 0.182594 0.253202 0.192567 0.151286 0.101626 0.115614 0.115614 0.142667 
0.185181 0.178228 0.140911 0.107775 0.0817666 0.0829393 0.0843225 0.076655 0.312851 
0.293593 0.320987 0.391636 0.410141 0.446579 0.434945 0.365838 0.323554 0.337611 
0.311337 0.311337 0.329315 0.287941 0.339103 0.293974 0.275756 0.303335 0.249802 
0.229974 0.233854 0.177511 0.154033 0.154033 0.0860377 0.0860377 0.0731762 0.0582736 
0.0844371 0.0983466 0.0983466 0.105928 0.0758915 0.0706881 0.0988463 0.0861469 0.111341 
0.10711 0.118238 0.156961 0.183435 0.214292 0.192181 0.2125 0.214009 0.191916 
0.206195 0.175556 0.0722289 0.181861 0.158289 0.145435 0.147585 0.173261 0.166874 
0.139483 0.133369 0.192829 0.220159 0.110732 0.110732 0.125518 0.146701 0.169349 
0.186585 0.207113 0.18679 0.150904 0.132129 0.122933 0.144256 0.413231 0.226159 
0.221682 0.207553 0.195855 0.198624 0.140832 0.149265 0.143614 0.107907 0.108634 
0.0929016 0.0907571 0.108966 0.143165 0.162549 0.158998 0.131522 0.176975 0.125091 
0.150572 0.0952324 0.0954199 0.282238 0.507472 0.299531 0.0900212 0.110533 0.117143 
0.117143 0.179581 0.189533 0.220232 0.33047 0.0932502 0.123463 0.142016 0.211869 
0.211869 0.225697 0.246171 0.246171 0.201489 0.207647 0.201271 0.235911 0.255197 
0.302046 0.00238602 0.0174871 0.0333427 0.0377705 0.0734295 0.129824 0.140648 0.176215 
0.1864 0.218006 0.110784 0.138696 0.152887 0.157527 0.145767 0.118052 0.18148 
0.137031 0.1376 0.161349 0.152239 0.15962 0.168254 0.135314 0.162635 0.145645 
0.112006 0.126503 0.129183 0.186023 0.177723 0.213857 0.194103 0.219229 0.243099 
0.326592 0.185824 0.222586 0.233531 0.212333 0.111207 0.124175 0.160487 0.12211 
0.133624 0.147257 0.147593 0.142988 0.162589 0.162589 0.174152 0.134476 0.134476 
0.152359 0.189261 0.208356 0.19066 0.161833 0.161833 0.149552 0.146877 0.146074 
0.164117 0.163616 0.222413 0.178997 0.166133 0.166133 0.118477 0.118477 0.120032 
0.0985335 0.1452 0.142778 0.0896644 0.0896644 0.130905 0.135438 0.135438 0.109257 
0.109257 0.0990563 0.0923661 0.0831078 0.0936616 0.159253 0.234026 0.251472 0.138887 
0.150182 0.182471 0.190009 0.187724 0.147428 0.144528 0.116209 0.0745097 0.0784655 
0.0909467 0.104717 0.201513 0.223862 0.205582 0.180773 0.171405 0.169201 0.218723 
0.235561 0.274141 0.274141 0.12214 0.106798 0.106798 0.102697 0.127058 0.123857 
0.0915134 0.111274 0.107678 0.0956739 0.114771 0.124189 0.173617 0.3118 0.253927 
0.261515 0.206643 0.204293 0.248693 0.301085 0.400177 0.328862 0.375396 0.395524 
0.242708 0.266228 0.209256 0.203652 0.227136 0.270732 0.23389 0.297003 0.295141 
0.365793 0.291577 0.312857 0.273799 0.237824 0.293162 0.158144 0.226791 0.263531 
0.284638 0.329356 0.224723 0.259779 0.209436 0.144274 0.0839632 0.0367592 0 
0.0127601 0.0127601 0.0362361 0.0680984 0.118068 0.128727 0.187849 0.200066 0.167772 
0.176487 0.161768 0.202473 0.235247 0.221302 0.204487 0.212193 0.193085 0.148219 
0.11084 0.110012 0.108644 0.0947306 0.0936673 0.116132 0.104567 0.123173 0.10168 
0.113836 0.113836 0.145934 0.138273 0.152737 0.179143 0.232487 0.192805 0.192805 
0.186519 0.182069 0.182069 0.174043 0.166979 0.166979 0.17596 0.178551 0.178551 
0.16073 0.16073 0.166361 0.189697 0.21311 0.247839 0.272428 0.297701 0.261473 
0.281788 0.234356 0.275491 0.280988 0.125887 0.152121 0.151686 0.157048 0.146712 
0.172309 0.158425 0.140081 0.140081 0.118859 0.136874 0.17602 0.152795 0.198252 
0.193571 0.187084 0.228332 0.1824 0.154973 0.182783 0.159375 0.159375 0.160467 
0.162274 0.162274 0.183178 0.206178 0.212205 0.207848 0.229284 0.183859 0.169987 
0.191182 0.143874 0.151269 0.117314 0.152716 0.268524 0.323723 0.283068 0.283329 
0.22802 0.248164 0.317006 0.299072 0.310193 0.230623 0.268448 0.242555 0.268212 
0.268212 0.271528 0.298636 0.298636 0.344004 0.35831 0.408932 0.38586 0.436598 
0.467442 0.373635 0.340093 0.313946 0.31793 0.274897 0.272668 0.229387 0.204349 
0.267561 0.331164 0.334995 0.352703 0.352703 0.359197 0.32562 0.373902 0.34904 
0.349212 0.31187 0.298731 0.336877 0.35826 0.339324 0.339324 0.407031 0.345196 
0.345196 0.334067 0.375464 0.398995 0.347758 0.330601 0.37774 0.241603 0.253845 
0.272202 0.231063 0.252712 0.268513 0.307484 0.307484 0.321012 0.268456 0.191093 
0.28807 0.377526 
WidthEq 1 587 double
1 2.71715 2.60464 2.65298 2.33436 4.28045 2.94073 2.44991 2.71228 
4.06533 4.6074 3.63814 4.00694 4.55391 3.25077 5.18139 2.24281 4.36513 
3.0749 4.62863 4.3893 3.49791 1.1759 3.23036 4.49743 3.51102 2.05464 
3.14047 3.92777 2.66745 2.41701 3.84224 3.94267 4.80726 4.13181 4.11424 
4.80147 4.40436 2.96796 3.31344 3.45154 4.75114 6.87792 3.13371 3.03519 
2.79248 2.3864 1.95639 1.7909 1.62399 1.90814 2.16043 2.03646 2.63756 
3.33473 3.25326 3.88303 4.15074 4.14544 4.04482 3.82382 3.82382 3.57136 
3.57136 3.56854 3.90732 3.7714 3.91159 4.25335 4.17972 4.97232 5.44236 
5.44236 5.61003 5.44821 5.45263 5.0156 4.89333 4.54928 5.02196 5.3536 
5.45736 5.71855 5.60176 5.29872 4.91205 2.98355 2.74384 2.61206 2.50076 
1.95754 1.72142 1.77128 1.53144 1.39578 1.15652 1.286 1.19559 1.32909 
1.49761 1.43382 1.66933 1.77727 1.79208 2.02169 1.93576 1.86117 1.81752 
1.78824 1.59134 1.59328 1.43849 1.7485 2.08174 2.2647 2.86483 2.78984 
2.57968 2.40563 2.45184 2.22497 1.6822 1.67493 1.78869 1.78869 1.79475 
2.06284 2.11712 2.16364 2.36002 2.3801 2.88397 2.99428 2.99428 2.94339 
2.85481 2.94297 2.92534 3.171 3.32991 3.62472 3.73415 3.99888 3.0974 
3.02502 2.79914 2.57563 2.5232 2.49958 2.54988 2.57151 2.64849 2.39775 
2.57747 2.57747 2.40363 2.722 2.51063 2.83809 3.22736 3.06578 3.78542 
4.17554 3.94236 4.97371 5.3615 5.3615 6.40696 6.40696 6.665 6.87792 