# vtk DataFile Version 3.0
vtk output
ASCII
DATASET POLYDATA
POINTS 530 float
2.24802 -1.56185 1.98854 2.36296 -0.565656 1.78688 0.799559 -1.86148 1.81934 
2.59168 -0.485482 1.48134 -0.0832851 -0.338762 1.7054 2.20626 -1.84334 1.67384 
0.693761 -1.94801 1.78888 1.32931 -2.12741 1.58267 1.29306 -2.23097 1.5904 
2.5168 -1.39563 1.30203 2.76828 -0.617186 0.91032 5.55584 0.300375 0.707461 
5.74382 -0.216128 0.6691 -0.306933 -1.13387 0.961287 6.04779 0.548413 0.0763575 
6.06603 0.323899 0.0236359 4.4683 0.587951 -0.0166465 4.6621 0.379458 -0.0752157 
3.04391 -0.375848 0.218737 2.95576 -0.461234 0.226708 6.29606 -0.125339 -0.220743 
6.10457 -0.673372 -0.113003 4.08589 0.275741 -0.253191 1.29858 1.13586 -0.232887 
5.36524 0.660338 -0.580576 4.97268 0.647792 -0.502179 4.31385 0.374758 -0.466374 
-0.458439 -1.13143 -0.498361 6.10917 0.234783 -0.7069 5.87941 -1.25431 -0.603684 
2.71369 -0.920469 -0.538766 -0.124326 -1.59279 -0.417325 3.64933 0.0351731 -0.827077 
-0.363819 -0.942471 -0.653598 -0.544026 0.210277 -0.924198 -0.562006 0.281881 -0.831827 
-0.56518 0.349403 -0.724749 -0.571191 0.41847 -0.610265 -0.559567 0.480808 -0.503254 
-0.529792 0.534581 -0.425886 -0.484801 0.580815 -0.378148 -0.454516 0.630547 -0.35251 
-0.431942 0.682979 -0.326837 -0.400947 0.734116 -0.279035 -0.353329 0.781087 -0.209131 
-0.308346 0.830083 -0.12445 -0.247648 0.872472 -0.0546063 -0.177859 0.910456 0.000418521 
-0.107392 0.945059 0.0407881 -0.0403445 0.969364 0.0967786 0.018423 0.969719 0.17683 
0.0746717 0.962489 0.287148 0.133778 0.963328 0.40429 0.197638 0.977847 0.512984 
0.255903 0.976668 0.600577 0.310707 0.965697 0.681474 0.365511 0.954726 0.762381 
0.423772 0.953537 0.849965 0.486657 0.965755 0.921713 0.544749 0.964469 0.979615 
0.602436 0.962222 1.02273 0.664747 0.973091 1.0723 0.722637 0.971325 1.12282 
0.780526 0.969558 1.17333 0.842635 0.979946 1.2155 0.900524 0.978179 1.26601 
0.958414 0.976413 1.31653 1.02049 0.986707 1.35871 1.07693 0.98119 1.3798 
1.12964 0.965211 1.38683 1.18095 0.945305 1.38672 1.22893 0.9159 1.38732 
1.27191 0.87222 1.38899 1.32013 0.843399 1.39697 1.37261 0.826555 1.41891 
1.42898 0.82056 1.46231 1.4873 0.820009 1.51273 1.53542 0.790447 1.55789 
1.58461 0.764207 1.58053 1.63545 0.742862 1.58796 1.68275 0.711526 1.5887 
1.72178 0.656528 1.59121 1.76016 0.599715 1.59386 1.80311 0.555819 1.60297 
1.84142 0.498518 1.62793 1.87709 0.433357 1.67574 1.91297 0.368677 1.73096 
1.95189 0.312818 1.77808 1.9951 0.269818 1.80197 2.0312 0.212202 1.81216 
2.0544 0.148096 1.8157 2.06351 0.0894834 1.82669 2.09057 0.0361227 1.8517 
2.13247 -0.00530488 1.89038 2.17109 -0.0616083 1.93011 2.20581 -0.12876 1.94839 
2.23781 -0.197986 1.95202 2.25994 -0.264974 1.94092 2.26793 -0.326681 1.93482 
2.29 -0.395657 1.90653 2.32338 -0.474217 1.85875 -0.495896 0.183433 -1.08713 
-0.443699 0.167825 -1.22122 -0.385501 0.168878 -1.31941 -0.331689 0.157108 -1.39438 
-0.280728 0.136998 -1.45387 -0.229326 0.117954 -1.49859 -0.173661 0.110897 -1.52936 
-0.109716 0.127501 -1.5619 -0.0461396 0.143247 -1.60921 0.00935232 0.136083 -1.66967 
0.0640421 0.126725 -1.73739 0.123048 0.1297 -1.80604 0.176629 0.117076 -1.86609 
0.224031 0.0866015 -1.90996 0.266447 0.0415918 -1.93046 0.314221 0.0116953 -1.93725 
0.365456 -0.00840821 -1.93735 0.416691 -0.0285117 -1.93744 0.46467 -0.0579176 -1.93684 
0.507621 -0.101692 -1.93517 0.554962 -0.132924 -1.93443 0.602265 -0.16426 -1.93368 
0.644581 -0.209851 -1.93187 0.688632 -0.25048 -1.93044 0.730981 -0.295977 -1.92863 
0.778923 -0.325487 -1.92802 0.830195 -0.345486 -1.92813 0.882065 -0.363773 -1.92836 
0.934008 -0.381852 -1.9286 0.986551 -0.398218 -1.92897 1.04239 -0.405168 -1.93005 
1.10322 -0.397864 -1.93219 1.15909 -0.40472 -1.93327 1.21243 -0.418881 -1.92638 
1.26831 -0.426018 -1.90517 1.32706 -0.425234 -1.86228 1.37935 -0.442978 -1.81057 
1.43874 -0.440376 -1.76781 1.49851 -0.436384 -1.74743 1.56034 -0.426394 -1.73492 
1.61686 -0.431704 -1.71384 1.67125 -0.443367 -1.67002 1.72854 -0.446846 -1.61937 
1.79058 -0.436656 -1.57719 1.84705 -0.44207 -1.5561 1.9004 -0.456231 -1.54921 
1.95584 -0.464433 -1.54277 2.01334 -0.466909 -1.52191 2.06144 -0.496564 -1.47674 
2.11083 -0.522613 -1.42441 2.15962 -0.550375 -1.37196 2.20375 -0.591357 -1.32595 
2.25271 -0.618742 -1.2661 2.30207 -0.645165 -1.19146 2.34745 -0.683168 -1.10113 
2.39762 -0.707386 -1.01924 2.45028 -0.724394 -0.945315 2.5 -0.749678 -0.878195 
2.54423 -0.790898 -0.809896 2.59136 -0.827816 -0.734518 2.6433 -0.87504 -0.643755 
-0.608587 0.184141 -0.794486 -0.662102 0.153582 -0.672227 -0.688747 0.112509 -0.564856 
-0.694915 0.0637105 -0.464981 -0.685562 0.00781955 -0.387335 -0.690816 -0.0440578 -0.324407 
-0.705904 -0.0935947 -0.276219 -0.722403 -0.142086 -0.220632 -0.737288 -0.191141 -0.165042 
-0.742947 -0.24398 -0.116897 -0.734609 -0.302827 -0.0835911 -0.738842 -0.357269 -0.0502277 
-0.742576 -0.410784 -0.00209152 -0.7318 -0.468828 0.0533809 -0.726106 -0.525644 0.101474 
-0.714318 -0.586251 0.127372 -0.707813 -0.64611 0.138518 -0.687307 -0.711426 0.142209 
-0.668424 -0.776173 0.145906 -0.671707 -0.833592 0.142305 -0.674893 -0.890776 0.116411 
-0.652157 -0.949841 0.043153 -0.611499 -1.00149 -0.0897536 -0.5549 -1.06638 -0.277923 
-0.398082 -1.01719 -0.580219 3.68276 0.0821456 -0.823622 3.74052 0.122254 -0.798109 
3.81045 0.160858 -0.73571 3.88317 0.201126 -0.636354 3.95596 0.240983 -0.514707 
4.02506 0.270193 -0.384828 -0.16256 -1.53341 -0.58351 -0.199581 -1.47113 -0.705365 
-0.234781 -1.40453 -0.760716 -0.268207 -1.33332 -0.744387 -0.303772 -1.26003 -0.682842 
-0.359257 -1.19032 -0.594523 -0.0745423 -1.61568 -0.521156 -0.021543 -1.6291 -0.647977 
0.0387325 -1.62153 -0.79121 0.0963593 -1.62181 -0.911584 0.14256 -1.65533 -0.984921 
0.194969 -1.67169 -1.01499 0.258954 -1.65526 -1.02524 0.324112 -1.63548 -1.03574 
0.383907 -1.63084 -1.05996 0.444228 -1.62439 -1.10658 0.499355 -1.6327 -1.15954 
0.555288 -1.63879 -1.20522 0.620144 -1.61969 -1.23051 0.689096 -1.58897 -1.24926 
0.758482 -1.55691 -1.27552 0.827194 -1.52616 -1.32395 0.893986 -1.49529 -1.37978 
0.951507 -1.46073 -1.42815 0.994746 -1.42144 -1.45417 1.0494 -1.3956 -1.46478 
1.10837 -1.3873 -1.47436 1.17194 -1.36569 -1.49978 1.22887 -1.33285 -1.54803 
1.2719 -1.29377 -1.60374 1.32963 -1.25873 -1.64472 1.39716 -1.22642 -1.64867 
1.4635 -1.20352 -1.61486 1.52142 -1.20519 -1.56434 1.57525 -1.21846 -1.5204 
1.62864 -1.2328 -1.49123 1.68528 -1.23783 -1.46275 1.74736 -1.22754 -1.42056 
1.80545 -1.22883 -1.36266 1.86374 -1.22963 -1.29737 1.92642 -1.2179 -1.23301 
1.98408 -1.22053 -1.1676 2.03848 -1.23246 -1.10147 2.09288 -1.24439 -1.03535 
2.15037 -1.2474 -0.977318 2.21308 -1.23529 -0.935272 2.27412 -1.22766 -0.915164 
2.34059 -1.20442 -0.903639 2.41059 -1.17119 -0.885443 2.482 -1.13433 -0.837818 
2.55395 -1.0958 -0.76803 2.62428 -1.05425 -0.683559 2.68214 -1.00055 -0.606945 
-0.188238 -1.6093 -0.384797 -0.242657 -1.59898 -0.332001 -0.28925 -1.56658 -0.25857 
-0.329175 -1.51532 -0.171713 -0.370528 -1.46795 -0.0993996 -0.407207 -1.40686 -0.0674755 
-0.440577 -1.33819 -0.117066 -0.462709 -1.254 -0.268234 2.7882 -0.871948 -0.506832 
2.84007 -0.822137 -0.444668 2.8989 -0.776166 -0.345302 2.94768 -0.726249 -0.231071 
2.96589 -0.665669 -0.116708 2.9901 -0.607737 -0.00974456 2.98225 -0.538029 0.104738 
5.93696 -1.20916 -0.511658 5.96998 -1.15763 -0.44909 5.99104 -1.10412 -0.416018 
6.01007 -1.05045 -0.390329 6.02941 -0.995777 -0.349866 6.04915 -0.940145 -0.29462 
6.06898 -0.884103 -0.23445 6.08782 -0.826901 -0.181758 6.10148 -0.760476 -0.141895 
6.12499 0.285682 -0.485397 6.11574 0.312013 -0.241799 6.05742 0.255529 -0.8702 
6.0117 0.293047 -0.997634 5.96627 0.330693 -1.0731 5.92704 0.385489 -1.10529 
5.88781 0.440004 -1.1152 5.84047 0.471237 -1.11593 5.78927 0.491444 -1.11585 
5.73804 0.511548 -1.11575 5.69006 0.540954 -1.11635 5.64707 0.584633 -1.11802 
5.5993 0.614521 -1.11123 5.54889 0.636647 -1.07663 5.49804 0.658688 -0.982624 
5.44033 0.672061 -0.81112 6.14377 0.166739 -0.673714 6.17905 0.10022 -0.615895 
6.21552 0.0346796 -0.521039 6.25426 -0.0368585 -0.383781 4.22828 0.335619 -0.424352 
4.1542 0.30353 -0.35341 4.38722 0.338309 -0.428878 4.4521 0.320529 -0.355242 
4.53399 0.329803 -0.231843 4.33588 0.46427 -0.326761 4.38024 0.533089 -0.176517 
5.03961 0.673701 -0.594809 5.10447 0.69309 -0.642396 5.16529 0.700024 -0.632142 
5.2288 0.710404 -0.5999 5.29247 0.697586 -0.578533 4.9318 0.698356 -0.571187 
4.88281 0.725637 -0.63103 4.82993 0.741519 -0.667738 4.77409 0.748479 -0.666663 
4.71381 0.742139 -0.62005 4.65539 0.740756 -0.544096 4.59217 0.724768 -0.442319 
4.52864 0.697953 -0.324972 4.48125 0.657257 -0.179936 4.94573 0.610689 -0.343079 
4.90469 0.574657 -0.235652 4.87428 0.529819 -0.194769 4.83924 0.482356 -0.183302 
4.76873 0.436482 -0.148682 5.41409 0.591155 -0.352161 5.46744 0.560794 -0.151147 
5.51666 0.536976 0.00748017 5.54544 0.492892 0.138272 5.54603 0.444986 0.252771 
5.54456 0.396864 0.382176 5.55623 0.345679 0.533707 6.18485 -0.639367 -0.2486 
6.22538 -0.597732 -0.348959 6.25522 -0.552463 -0.394797 6.28829 -0.504584 -0.381495 
6.29333 -0.444904 -0.340957 6.30323 -0.386932 -0.300451 6.32016 -0.332846 -0.279684 
6.33566 -0.278137 -0.266336 6.33411 -0.212933 -0.248262 1.37053 1.17369 -0.140779 
1.43778 1.19848 -0.0774071 1.49509 1.19536 -0.0490694 1.54787 1.17958 -0.0420584 
1.59978 1.1614 -0.0422956 1.65105 1.1414 -0.042397 1.69927 1.11257 -0.0344116 
1.7435 1.07217 -0.0107173 1.79658 1.05677 0.0333829 1.85755 1.06379 0.0832459 
1.91063 1.04839 0.127346 1.95487 1.00799 0.15104 2.00328 0.979644 0.166417 
2.05512 0.960983 0.188488 2.10757 0.943765 0.232724 2.15693 0.917623 0.285064 
2.2007 0.875493 0.338588 2.24592 0.837645 0.384364 2.28902 0.793594 0.438031 
2.33378 0.754308 0.491352 2.37274 0.698553 0.538465 2.40797 0.632327 0.571516 
2.4426 0.564387 0.604694 2.47749 0.497342 0.652654 2.51087 0.431379 0.708023 
2.53451 0.368275 0.756034 2.54143 0.309374 0.781954 2.55109 0.24841 0.793086 
2.54625 0.191974 0.796892 2.54333 0.135415 0.808082 2.56474 0.0719897 0.841328 
2.5965 0.00769958 0.91147 2.61972 -0.051397 1.01122 2.61924 -0.102185 1.11108 
2.61621 -0.154293 1.18138 2.62648 -0.213813 1.21468 2.63297 -0.273145 1.2347 
2.65132 -0.337646 1.27404 2.65121 -0.407359 1.35878 4.12436 0.216939 -0.0796226 
4.16262 0.157927 0.0642616 4.203 0.105539 0.163106 4.24735 0.0652901 0.201634 
4.28927 0.0184573 0.210964 4.33372 -0.0209391 0.204883 4.3802 -0.0547222 0.213238 
4.43703 -0.0588481 0.211952 4.49159 -0.0694423 0.211148 4.54017 -0.0971344 0.211621 
4.5842 -0.138305 0.250228 4.634 -0.163383 0.317333 4.6879 -0.177131 0.413282 
4.74236 -0.189268 0.509121 4.79623 -0.203119 0.605078 4.84559 -0.229542 0.679712 
4.8863 -0.280484 0.741321 4.92701 -0.331156 0.780627 4.97932 -0.348657 0.817466 
5.04096 -0.339428 0.844883 5.10234 -0.331037 0.879789 5.16858 -0.308655 0.906223 
5.23461 -0.286764 0.925266 5.29484 -0.281052 0.915817 5.35597 -0.272404 0.876458 
5.41439 -0.271301 0.822799 5.47528 -0.263238 0.776057 5.53449 -0.260346 0.749496 
5.59702 -0.250011 0.729779 5.66273 -0.242438 0.705212 4.56936 0.430536 -0.0636216 
4.51243 0.5005 -0.044342 6.06746 -0.576135 0.0772388 6.03112 -0.501517 0.229314 
5.99027 -0.451095 0.333585 5.95065 -0.398666 0.407997 5.90834 -0.353705 0.470578 
5.86668 -0.302959 0.532775 5.81336 -0.261716 0.598386 6.23452 -0.098328 0.00690926 
6.18598 -0.0587523 0.176456 6.14938 0.00370517 0.267446 6.11765 0.0733401 0.298438 
6.0951 0.139114 0.292298 6.0873 0.197758 0.249096 6.07258 0.259308 0.156381 
3.01078 -0.422376 0.222673 2.92912 -0.497234 0.403051 2.88685 -0.529673 0.572161 
2.84144 -0.569526 0.739364 4.74247 0.351447 0.124906 4.79884 0.312512 0.281845 
4.84713 0.278007 0.386727 4.89073 0.234995 0.455169 4.936 0.197242 0.500938 
4.97979 0.155496 0.532161 5.03251 0.139237 0.56148 5.09458 0.149531 0.603661 
5.1564 0.158988 0.653343 5.22368 0.184148 0.694414 5.29364 0.217272 0.712619 
5.3632 0.249434 0.71605 5.4293 0.271812 0.712784 5.49038 0.279823 0.710591 
6.03226 0.423733 0.0502419 6.03223 0.493297 0.0679899 -0.325608 -1.0692 0.957588 
-0.320364 -1.01235 0.961173 -0.303663 -0.958411 0.97948 -0.286051 -0.902586 1.02734 
-0.277156 -0.84205 1.09742 -0.281962 -0.775061 1.18973 -0.272356 -0.71312 1.28197 
-0.251708 -0.655047 1.37415 -0.221933 -0.601274 1.45153 -0.185669 -0.550327 1.52148 
-0.168765 -0.493149 1.58413 -0.132906 -0.443163 1.6393 -0.104038 -0.391832 1.67972 
2.79325 -0.702406 0.8533 2.78923 -0.76897 0.790907 2.77177 -0.826301 0.733233 
2.75238 -0.881733 0.682917 2.73487 -0.937041 0.642445 2.72658 -0.996133 0.594539 
2.7325 -1.0602 0.546559 2.72289 -1.11773 0.513444 2.69726 -1.16633 0.524727 
2.66495 -1.20818 0.595172 2.6531 -1.25333 0.71725 2.6228 -1.28981 0.868973 
2.59727 -1.32797 1.02067 2.56818 -1.36543 1.165 5.74412 -0.128229 0.69555 
5.72453 -0.0518117 0.713388 5.704 0.0156876 0.719461 5.69589 0.0768018 0.718181 
5.67272 0.141011 0.714636 5.63683 0.199117 0.711836 5.59419 0.243457 0.710117 
2.68153 -0.565643 1.19845 2.47999 -1.38531 1.49544 2.4579 -1.40836 1.66834 
2.44003 -1.44854 1.80016 2.40944 -1.49032 1.88788 2.34376 -1.52647 1.94401 
2.53285 -1.46656 1.20967 2.52619 -1.52677 1.15437 2.50959 -1.58019 1.14345 
2.49167 -1.63149 1.15471 2.47152 -1.68312 1.15119 2.44154 -1.73241 1.13295 
2.39757 -1.77569 1.12954 2.36758 -1.81952 1.18271 2.33701 -1.85614 1.30227 
2.28056 -1.86716 1.47533 1.31118 -2.17919 1.58653 1.39673 -2.10252 1.67574 
1.45569 -2.10141 1.74088 1.51365 -2.10269 1.76908 1.57844 -2.08406 1.7661 
1.64262 -2.06687 1.74094 1.69852 -2.07308 1.69527 1.75385 -2.0809 1.6497 
1.81477 -2.07301 1.62525 1.87582 -2.06538 1.64535 1.94299 -2.04018 1.68644 
2.01177 -2.00495 1.72433 2.07217 -1.965 1.73246 2.12507 -1.91185 1.7127 
1.29288 -2.06626 1.67622 1.24736 -2.0307 1.74198 1.19693 -2.00867 1.77163 
1.14526 -1.9899 1.77925 1.09335 -1.97172 1.77949 1.04145 -1.95354 1.77973 
0.989615 -1.93488 1.7855 0.936605 -1.91415 1.79674 0.875793 -1.88585 1.81327 
0.731888 -1.89407 1.81218 2.21768 -1.73379 1.83719 2.2207 -1.64403 1.94265 
2.47409 -0.530125 1.63499 2.21003 -1.4719 2.04807 2.18781 -1.39779 2.08842 
2.19287 -1.33924 2.10427 2.20918 -1.28641 2.10534 2.2271 -1.23455 2.10147 
2.2433 -1.18209 2.09761 2.24834 -1.12573 2.0938 2.22966 -1.06105 2.09011 
2.21099 -0.996377 2.08641 2.21593 -0.939973 2.0826 2.2303 -0.886877 2.07875 
2.23707 -0.831115 2.07494 2.22954 -0.770895 2.0638 2.23762 -0.717359 2.03534 
2.26477 -0.671348 1.97714 2.31362 -0.626631 1.89121 
LINES 42 622
68 34 35 36 37 38 39 40 41 42 43 44 45 46 47 48 49 50 51 52 53 54 55 56 57 58 59 60 61 62 63 64 65 66 67 68 69 70 71 72 73 74 75 76 77 78 79 80 81 82 83 84 85 86 87 88 89 90 91 92 93 94 95 96 97 98 99 100 1 
63 34 101 102 103 104 105 106 107 108 109 110 111 112 113 114 115 116 117 118 119 120 121 122 123 124 125 126 127 128 129 130 131 132 133 134 135 136 137 138 139 140 141 142 143 144 145 146 147 148 149 150 151 152 153 154 155 156 157 158 159 160 161 30 
26 34 162 163 164 165 166 167 168 169 170 171 172 173 174 175 176 177 178 179 180 181 182 183 184 185 27 
3 27 186 33 
8 32 187 188 189 190 191 192 22 
8 31 193 194 195 196 197 198 27 
49 31 199 200 201 202 203 204 205 206 207 208 209 210 211 212 213 214 215 216 217 218 219 220 221 222 223 224 225 226 227 228 229 230 231 232 233 234 235 236 237 238 239 240 241 242 243 244 245 30 
10 31 246 247 248 249 250 251 252 253 27 
9 30 254 255 256 257 258 259 260 19 
11 29 261 262 263 264 265 266 267 268 269 21 
4 28 270 271 15 
16 28 272 273 274 275 276 277 278 279 280 281 282 283 284 285 24 
6 28 286 287 288 289 20 
4 26 290 291 22 
5 26 292 293 294 17 
4 26 295 296 16 
7 25 297 298 299 300 301 24 
11 25 302 303 304 305 306 307 308 309 310 16 
7 25 311 312 313 314 315 17 
9 24 316 317 318 319 320 321 322 11 
11 21 323 324 325 326 327 328 329 330 331 20 
41 23 332 333 334 335 336 337 338 339 340 341 342 343 344 345 346 347 348 349 350 351 352 353 354 355 356 357 358 359 360 361 362 363 364 365 366 367 368 369 370 3 
32 22 371 372 373 374 375 376 377 378 379 380 381 382 383 384 385 386 387 388 389 390 391 392 393 394 395 396 397 398 399 400 12 
4 17 401 402 16 
9 21 403 404 405 406 407 408 409 12 
9 20 410 411 412 413 414 415 416 15 
3 19 417 18 
5 19 418 419 420 10 
16 17 421 422 423 424 425 426 427 428 429 430 431 432 433 434 11 
4 15 435 436 14 
15 13 437 438 439 440 441 442 443 444 445 446 447 448 449 4 
16 10 450 451 452 453 454 455 456 457 458 459 460 461 462 463 9 
9 12 464 465 466 467 468 469 470 11 
3 10 471 3 
7 9 472 473 474 475 476 0 
12 9 477 478 479 480 481 482 483 484 485 486 5 
3 8 487 7 
15 7 488 489 490 491 492 493 494 495 496 497 498 499 500 5 
4 5 511 512 0 
3 1 513 3 
18 0 514 515 516 517 518 519 520 521 522 523 524 525 526 527 528 529 1 
13 7 501 502 503 504 505 506 507 508 509 2 510 6 

POINT_DATA 530
SCALARS DY_raw double
LOOKUP_TABLE default
71.4782 62.0544 26.2002 83.6534 22.6 55.9445 0 25.4747 23.9425 
67.0441 77.9425 162.972 173.282 37.8518 336.269 202.142 168.308 115.29 
62.7447 56.9639 193.874 125.303 104.723 16.2255 129.146 132.722 93.3496 
42.2878 168.385 84.028 67.566 67.6921 67.0458 22.1489 60.9184 62.2217 
70.1554 79.6792 66.9482 62.9564 64.475 48.0411 48.9027 51.6629 43.9925 
51.4462 52.2263 53.5615 49.9235 41.137 42.4276 41.3891 32.345 38.9092 
35.4692 34.3233 33.9486 39.9146 34.8502 23.4479 30.5716 36.145 41.0158 
40.2223 42.1437 50.656 60.5177 59.5564 59.5564 47.183 44.2476 44.2476 
39.3949 35.8607 41.1168 35.9089 40.0174 50.1308 73.0032 59.7252 68.2753 
64.567 64.567 52.669 53.2956 57.944 63.5126 64.9776 55.9451 56.3021 
62.0591 73.0369 68.593 67.8396 53.6884 54.032 54.5806 61.587 58.5704 
68.9914 76.1021 56.6588 48.3993 66.7969 69.9385 58.6972 68.1354 79.4299 
81.1548 71.5538 71.4369 80.0564 74.072 72.1719 78.7508 73.9117 75.6597 
67.3767 72.2221 72.2221 79.684 83.8867 70.0854 70.0854 67.4629 66.8903 
66.8903 69.664 65.4014 75.5228 79.653 79.653 78.1116 70.1242 70.4368 
65.3583 60.7402 63.0575 50.5974 48.6967 48.6967 45.7218 52.3293 55.1898 
58.9152 58.9152 65.8093 60.8799 60.8799 63.4793 50.5954 51.5485 52.2856 
47.2627 50.9651 67.7655 72.1936 60.3004 60.1113 62.9162 59.3002 65.7367 
57.2013 42.0894 51.7217 71.4806 58.7023 64.1905 55.7484 50.274 60.075 
53.3946 35.7206 42.9586 33.0206 32.0993 45.0061 46.6362 49.5069 49.5069 
48.4346 58.622 44.0014 50.8465 55.7852 48.2903 25.4754 78.2325 90.083 
99.577 108.795 93.152 95.5076 48.0574 50.2056 47.0981 36.1551 43.5682 
50.6621 65.2781 69.9673 68.0863 64.0575 56.2334 54.8983 60.0728 60.0728 
60.0851 69.3526 74.2123 76.6505 68.1944 64.7217 67.9234 63.8146 70.4676 
70.0031 74.2173 73.2941 61.2949 58.851 49.403 43.627 45.7957 49.7532 
52.0249 54.268 56.2547 59.5542 56.8009 60.1837 64.3807 56.7076 61.5736 
55.0165 56.6222 56.7867 46.9668 49.6692 48.0587 58.0764 57.0207 63.7937 
58.6528 54.9339 57.1547 62.0354 53.9298 52.6425 57.3593 59.3102 75.7388 
75.8285 70.1416 71.9288 85.2048 101.387 87.8553 73.3835 76.4743 51.2948 
87.6271 96.5321 99.6256 105.938 123.914 127.684 120.355 125.858 127.207 
177.613 231.223 165.541 122.521 115.772 115.772 129.05 134.25 158.382 
144.889 140.031 140.031 126.48 103.829 123.363 147.801 138.635 161.455 
173.572 190.191 105.891 109.308 105.039 105.604 116.546 126.646 139.7 
120.184 104.831 110.577 119.728 122.271 122.853 121.798 116.313 121.061 
125.211 139.328 135.236 143.268 154.938 156.779 182.49 159.167 145.193 
129.277 145.347 153.382 127.418 117.925 114.171 139.063 138.59 132.456 
122.756 135.45 129.46 131.05 144.163 139.369 153.795 180.235 29.2077 
39.7093 45.5246 43.5946 43.5946 43.6952 43.732 43.732 49.0525 58.0412 
64.1742 60.3973 60.5401 67.7255 63.9389 72.9927 77.2766 70.9487 75.1276 
76.5085 89.5931 78.8926 70.2849 79.6898 76.2418 90.5926 81.1506 62.7925 
69.1793 59.6204 55.6724 62.9158 66.7066 79.0934 89.2427 77.277 81.6494 
72.6018 88.9016 137.163 130.531 106.523 99.1214 99.1214 93.2036 98.8902 
98.8902 113.427 119.839 125.176 128.438 129.307 103.305 103.146 111.08 
113.818 96.8113 103.566 111.725 135.954 144.073 174.392 201.034 203.179 
191.3 174.55 149.611 154.698 167.686 118.595 139.452 135.066 143.943 
136.981 116.938 126.441 147.054 169.735 178.74 171.311 196.724 192.553 
199.343 200.454 205.003 56.0144 60.6298 79.5045 77.3113 123.169 146.65 
148.906 161.895 150.76 160.889 152.055 147.613 172.939 196.85 194.027 
196.585 183.986 161.583 222.896 272.45 44.848 44.848 48.9768 39.4053 
40.2566 36.3409 37.1153 38.2752 42.8971 45.8401 51.0974 58.8912 68.1696 
76.2868 70.82 67.843 69.8255 71.9807 76.8369 70.8185 72.0517 72.0517 
75.2652 69.8653 80.9859 63.9316 59.5934 172.304 171.882 148.08 138.065 
147.095 163.672 162.972 73.135 87.0126 99.566 88.3661 97.2834 90.4277 
65.1278 58.3547 50.1115 67.3425 60.4351 60.4351 50.5363 53.028 55.1235 
57.3872 23.9425 40.2936 52.336 57.4485 56.7327 53.9723 50.8397 51.8671 
44.8599 36.3111 29.6263 29.22 29.6442 44.6949 26.7151 28.5373 35.0691 
43.1345 44.2257 37.4356 30.6755 27.1931 23.7071 23.2321 54.8916 64.7515 
95.828 70.1874 63.1564 60.6596 65.2841 60.3169 60.3169 66.6054 61.2708 
52.5301 51.8848 39.6964 39.6964 42.761 45.4449 43.0808 50.1483 
FIELD FieldData 7
DY_minmax 1 530 double
0.212562 0.184538 0.0779142 0.248769 0.067208 0.166368 0 0.0757569 0.0712004 
0.199376 0.231786 0.484647 0.515308 0.112564 1 0.60113 0.500514 0.34285 
0.18659 0.1694 0.576545 0.372628 0.311427 0.0482514 0.384055 0.394688 0.277604 
0.125756 0.500743 0.249883 0.200928 0.201303 0.199381 0.0658666 0.18116 0.185035 
0.208629 0.236951 0.199091 0.18722 0.191736 0.142865 0.145427 0.153635 0.130825 
0.152991 0.155311 0.159281 0.148463 0.122334 0.126172 0.123083 0.0961877 0.115708 
0.105478 0.102071 0.100957 0.118698 0.103638 0.0697294 0.0909141 0.107488 0.121973 
0.119613 0.125327 0.150641 0.179968 0.177109 0.177109 0.140313 0.131584 0.131584 
0.117153 0.106643 0.122273 0.106786 0.119004 0.149079 0.217097 0.177611 0.203038 
0.19201 0.19201 0.156627 0.158491 0.172314 0.188874 0.193231 0.16637 0.167431 
0.184552 0.217198 0.203982 0.201742 0.159659 0.160681 0.162312 0.183148 0.174177 
0.205167 0.226313 0.168492 0.14393 0.198641 0.207984 0.174554 0.202621 0.236209 
0.241339 0.212787 0.212439 0.238072 0.220276 0.214625 0.234189 0.219799 0.224997 
0.200365 0.214775 0.214775 0.236965 0.249463 0.20842 0.20842 0.200621 0.198919 
0.198919 0.207167 0.194491 0.22459 0.236873 0.236873 0.232289 0.208536 0.209465 
0.194363 0.18063 0.187521 0.150467 0.144815 0.144815 0.135968 0.155617 0.164124 
0.175202 0.175202 0.195704 0.181045 0.181045 0.188775 0.150461 0.153295 0.155487 
0.14055 0.15156 0.201522 0.21469 0.179322 0.178759 0.187101 0.176347 0.195488 
0.170106 0.125166 0.15381 0.212569 0.174569 0.19089 0.165785 0.149505 0.178651 
0.158785 0.106226 0.127751 0.098197 0.0954571 0.133839 0.138687 0.147224 0.147224 
0.144035 0.17433 0.130852 0.151208 0.165894 0.143606 0.0757588 0.232648 0.267889 
0.296123 0.323535 0.277016 0.284021 0.142913 0.149302 0.14006 0.107518 0.129563 
0.150659 0.194124 0.208069 0.202475 0.190494 0.167227 0.163257 0.178645 0.178645 
0.178682 0.206241 0.220693 0.227944 0.202797 0.19247 0.201991 0.189772 0.209557 
0.208176 0.220708 0.217962 0.182279 0.175011 0.146915 0.129738 0.136187 0.147956 
0.154712 0.161383 0.167291 0.177103 0.168915 0.178975 0.191456 0.168637 0.183108 
0.163608 0.168383 0.168873 0.13967 0.147707 0.142917 0.172708 0.169569 0.18971 
0.174422 0.163363 0.169967 0.184481 0.160377 0.156549 0.170575 0.176377 0.225232 
0.225499 0.208588 0.213902 0.253382 0.301506 0.261265 0.218228 0.22742 0.152541 
0.260586 0.287068 0.296267 0.315039 0.368497 0.379708 0.357913 0.374277 0.378288 
0.528186 0.687613 0.492286 0.364355 0.344282 0.344282 0.38377 0.399234 0.470997 
0.430871 0.416424 0.416424 0.376128 0.308767 0.366859 0.439533 0.412275 0.480135 
0.51617 0.565591 0.314898 0.325062 0.312366 0.314046 0.346584 0.37662 0.41544 
0.357404 0.311748 0.328835 0.356049 0.36361 0.365341 0.362205 0.345892 0.360011 
0.372355 0.414336 0.402166 0.426052 0.460755 0.466231 0.54269 0.473331 0.431775 
0.384444 0.432233 0.456129 0.378915 0.350686 0.339524 0.413547 0.41214 0.393899 
0.365053 0.402803 0.38499 0.389716 0.428714 0.414455 0.457357 0.535984 0.0868581 
0.118088 0.135381 0.129642 0.129642 0.129941 0.130051 0.130051 0.145873 0.172603 
0.190842 0.17961 0.180035 0.201403 0.190142 0.217066 0.229806 0.210988 0.223415 
0.227522 0.266432 0.234611 0.209014 0.236982 0.226728 0.269405 0.241326 0.186733 
0.205726 0.177299 0.165559 0.187099 0.198372 0.235208 0.26539 0.229807 0.24281 
0.215904 0.264376 0.407897 0.388174 0.316779 0.294768 0.294768 0.27717 0.29408 
0.29408 0.337309 0.356379 0.37225 0.381949 0.384533 0.307209 0.306737 0.33033 
0.338473 0.287898 0.307986 0.332247 0.404299 0.428447 0.518608 0.597838 0.604216 
0.568889 0.519078 0.444915 0.460042 0.498665 0.352679 0.414703 0.40166 0.428059 
0.407354 0.347751 0.376012 0.437311 0.504759 0.531538 0.509446 0.585018 0.572615 
0.592807 0.59611 0.60964 0.166576 0.180301 0.236431 0.229909 0.366281 0.436108 
0.442818 0.481445 0.44833 0.478453 0.452182 0.438973 0.514287 0.585392 0.576999 
0.584605 0.547139 0.480517 0.66285 0.810215 0.133369 0.133369 0.145647 0.117184 
0.119715 0.108071 0.110374 0.113823 0.127568 0.13632 0.151954 0.175131 0.202723 
0.226862 0.210605 0.201752 0.207648 0.214057 0.228498 0.2106 0.214268 0.214268 
0.223824 0.207766 0.240836 0.19012 0.177219 0.512398 0.511143 0.440361 0.410579 
0.437432 0.486729 0.484647 0.217489 0.258759 0.29609 0.262784 0.289302 0.268914 
0.193677 0.173536 0.149022 0.200264 0.179722 0.179722 0.150285 0.157695 0.163927 
0.170659 0.0712004 0.119825 0.155637 0.170841 0.168712 0.160503 0.151187 0.154243 
0.133405 0.107982 0.088103 0.0868945 0.0881561 0.132914 0.0794454 0.0848643 0.104289 
0.128274 0.131519 0.111326 0.0912229 0.0808671 0.0705004 0.0690877 0.163237 0.192558 
0.284974 0.208724 0.187815 0.18039 0.194142 0.179371 0.179371 0.198072 0.182207 
0.156214 0.154295 0.118049 0.118049 0.127163 0.135144 0.128114 0.149131 
WidthEq 1 530 double
4.38665 5.18835 3.58547 5.55291 1 4.6101 2.71072 3.602 3.16508 
5.37661 6.89457 4.61957 4.64906 4.91839 1.73251 5.28505 6.67635 8.18414 
4.38699 6.34999 6.28701 7.15016 6.52166 4.08802 7.80149 5.45119 6.81278 
6.3484 7.30875 5.64359 8.01691 5.7308 4.34583 2.92565 6.1689 6.52248 
5.41156 5.1012 5.13934 5.28874 5.08677 5.80836 5.38928 5.52041 5.87146 
5.5695 5.59297 5.64846 5.70392 5.6183 5.71302 5.75055 5.87974 5.95541 
5.88765 5.92804 5.97845 6.02186 6.00055 5.53569 5.66539 5.29008 4.5775 
4.42367 4.37645 4.20207 3.95256 3.60885 3.60885 3.38957 3.36516 3.36516 
3.36896 3.6059 3.57299 4.11903 4.08022 4.10327 3.929 4.13276 4.05974 
3.83772 3.83772 3.67807 3.799 3.73292 3.832 4.03524 4.4145 4.43021 
4.24886 4.06671 3.98918 3.95521 4.01055 3.89251 4.01022 4.08869 4.67762 
4.83916 5.00709 5.92229 5.4069 4.68285 4.60919 4.69171 4.63929 4.56855 
4.52025 4.71226 4.51322 4.30934 4.56758 4.78857 5.06751 5.44623 5.31525 
4.87736 4.72404 4.72404 4.71186 4.70194 5.22819 5.22819 5.5475 5.58661 
5.58661 5.5215 5.39561 5.53012 5.77731 5.77731 6.06517 6.50346 6.48468 
6.67964 6.82036 6.51469 6.5948 6.23882 6.23882 6.00916 5.97906 5.74979 
5.89916 5.89916 5.4237 5.82376 5.82376 5.69634 6.0719 5.99455 6.17359 
6.28445 6.35769 6.52662 6.52038 7.04207 7.08536 7.13823 7.86085 8.04025 
6.96068 7.20419 6.28363 5.21428 5.20832 4.83654 4.91297 5.27449 4.97911 
5.0876 5.35461 4.87096 5.07137 4.94995 4.55361 4.36206 4.28365 4.28365 
4.37518 4.15544 4.6319 5.00605 5.29388 5.31908 4.24292 5.54604 6.36313 
5.82132 5.88768 6.45333 7.01577 6.35324 4.79727 4.40443 4.73128 5.26256 
6.12608 5.85128 5.48141 4.69125 4.69719 4.84676 4.84259 4.91221 4.91221 
5.16035 4.99981 5.25802 5.39762 5.87438 6.0207 5.69863 6.05473 5.40745 
5.34876 4.97957 4.56804 4.83499 4.99278 5.89721 6.5581 7.30789 7.77559 
7.70823 7.31462 7.01221 6.4469 6.17578 5.9099 5.64828 6.20023 6.16352 
6.76161 7.17899 7.03017 7.63624 7.42895 7.52288 6.8143 6.63864 6.30987 
6.78331 7.64683 7.725 6.23435 6.26129 5.77993 5.5461 5.56077 5.442 
5.78595 6.20473 7.15457 6.15506 5.71077 5.08848 5.45831 5.52866 6.60808 
5.57328 7.98035 8.4954 7.53016 7.43933 7.16456 7.5199 7.2272 7.14365 
6.95952 5.44093 6.77646 6.51935 5.79563 5.79563 4.75064 4.62934 4.01965 
4.64219 5.01247 5.01247 5.47444 6.04688 5.77019 5.90272 8.13659 6.73428 
6.01099 5.67692 6.8125 6.84239 6.85049 6.92141 7.34357 7.12389 7.18154 
5.6733 7.01565 7.63396 8.20264 8.28398 5.45058 4.8127 4.83094 4.47718 
3.98039 4.60523 5.20393 6.07427 6.64558 4.68608 4.42446 5.94402 6.43214 
7.42213 6.70913 5.99151 6.70661 6.5412 6.16467 5.54129 5.18147 7.00089 
7.61444 7.35045 8.02701 8.412 8.21561 9.15967 8.32973 7.03404 6.08538 
7.44712 7.1368 7.11236 7.11236 6.79114 6.03723 6.03723 5.5461 5.21577 
5.02258 5.14427 5.1878 5.08951 5.58533 5.29245 5.0613 5.24168 5.01999 
4.65674 4.20624 4.2985 4.55446 4.2358 4.52521 4.1425 4.47797 5.38791 
5.07536 5.36964 5.24874 5.10699 4.82981 4.37192 4.03731 4.64718 4.66127 
5.25248 4.66909 5.45606 5.17042 5.21051 4.89763 4.89763 4.48019 4.14561 
4.14561 3.81471 3.60699 3.6602 3.58352 3.8285 4.03253 5.86564 5.94168 
6.64728 7.39769 7.31986 6.90976 5.80029 5.54141 4.88405 3.7801 3.46615 
3.55473 3.61661 4.13739 4.18719 4.50539 8.94438 8.26313 6.07762 5.20886 
4.89032 4.66495 4.85197 4.66794 4.66833 6.13752 5.82163 5.09283 4.88198 
4.86494 4.9386 4.97348 6.10629 6.49186 6.12456 6.42325 7.95801 7.25006 
6.6906 6.02545 5.46486 5.37613 5.24719 4.66368 4.4825 3.77456 3.55342 
3.67308 4.08786 4.7185 4.55041 3.51117 5.79402 5.79402 6.25194 7.60711 
7.53192 7.25767 7.15311 6.92589 5.6491 5.5362 4.64231 2.7274 2.63329 
6.64938 6.84863 6.7926 5.79874 5.36477 5.57297 5.84452 5.70563 5.70563 
5.4304 4.91732 4.10269 5.26688 5.51386 4.60791 4.32949 4.21489 4.11769 
4.0794 4.36556 4.61957 6.67915 4.46625 3.88998 4.08166 3.7548 4.08802 
5.11871 4.97132 5.01661 4.5527 4.40141 4.40141 4.01612 4.63019 4.80467 
4.84899 3.16508 3.55044 3.36461 3.31758 2.78234 2.75401 2.5427 2.68494 
2.67477 3.40226 3.5357 4.09207 4.50813 4.72425 3.54818 3.44217 3.21537 
3.10378 3.02765 3.08743 3.13997 3.29679 3.44369 3.72631 4.7377 4.58198 
4.92174 4.26173 4.10314 4.05344 3.90417 3.6353 3.6353 3.18773 3.04174 