# vtk DataFile Version 3.0
vtk output
ASCII
DATASET POLYDATA
POINTS 447 float
5.65376 0.444393 3.18617 5.78851 0.0255447 3.18319 5.83904 -0.131523 3.18207 
5.89504 0.233147 3.18404 4.99582 0.871089 2.79107 5.53738 0.876416 2.16809 
6.09318 -0.565463 2.57855 5.97151 0.528981 2.1855 6.22863 -0.409908 2.17898 
5.73882 -0.904879 1.77779 1.59568 -0.961098 0.992352 1.38553 -1.02729 0.79271 
3.90779 0.650822 0.793626 2.93096 0.453522 0.595963 0.594262 1.60974 0.41126 
1.23756 1.58561 0.4088 2.60515 -0.68983 0.390319 2.25873 1.1053 0.402261 
2.6837 0.741775 0.331894 -0.068429 1.51351 0.213068 2.79527 0.393933 0.129415 
2.62222 0.571256 -0.135572 -1.02541 0.172786 -0.791498 -0.975474 0.673628 -1.25538 
-0.843794 -0.0430177 -1.51939 1.00116 1.23348 -1.39249 -0.633206 0.443262 -2.12466 
-0.373236 -0.244378 -1.99636 -0.199321 -0.2462 -1.997 -0.0181037 0.447629 -1.99352 
-0.159051 0.34593 -2.19362 -0.227387 0.379102 -2.1265 -0.292723 0.402914 -2.06687 
-0.35344 0.412287 -2.02215 -0.418379 0.434413 -2.0045 -0.484258 0.455093 -2.01648 
-0.55123 0.453275 -2.06071 -0.155401 0.289329 -2.19397 -0.164422 0.228652 -2.1943 
-0.159039 0.172608 -2.19465 -0.14587 0.11907 -2.19502 -0.140478 0.0630299 -2.19537 
-0.149508 0.00234939 -2.1957 -0.145937 -0.0543292 -2.18864 -0.144122 -0.111731 -2.15936 
-0.166201 -0.177084 -2.09301 -0.118287 0.399316 -2.09715 -0.0699354 0.428958 -2.03048 
-0.676875 0.357335 -2.06082 -0.715116 0.282087 -2.01668 -0.749029 0.212494 -1.98982 
-0.771317 0.147166 -1.95555 -0.770949 0.0875107 -1.87443 -0.780625 0.0208628 -1.72664 
-0.252443 -0.260821 -2.02652 -0.309044 -0.264473 -2.02634 -0.145334 -0.286659 -1.99002 
-0.115112 -0.334869 -1.9682 -0.0942242 -0.38624 -1.92414 -0.0637993 -0.434596 -1.87268 
-0.00791137 -0.474759 -1.82126 0.0558336 -0.512341 -1.77728 0.102307 -0.555534 -1.72585 
0.118241 -0.608604 -1.66696 0.151793 -0.656059 -1.60069 0.180424 -0.705097 -1.53442 
0.212444 -0.753045 -1.46816 0.266854 -0.79379 -1.40192 0.322891 -0.83401 -1.33569 
0.364525 -0.878865 -1.26945 0.409425 -0.922669 -1.2032 0.439929 -0.971157 -1.12953 
0.472229 -1.01917 -1.04104 0.528662 -1.05964 -0.922959 0.596428 -1.09661 -0.78268 
0.666024 -1.13293 -0.634993 0.73506 -1.16731 -0.516924 0.800904 -1.19196 -0.435826 
0.862001 -1.20201 -0.384254 0.92767 -1.22628 -0.332784 0.995281 -1.25658 -0.281347 
1.05733 -1.26959 -0.229796 1.11008 -1.25372 -0.185451 1.17154 -1.2649 -0.133887 
1.23544 -1.2837 -0.0897785 1.29208 -1.28008 -0.0677404 1.34499 -1.26504 -0.0900618 
1.39724 -1.24808 -0.12719 1.44953 -1.23117 -0.156908 1.5025 -1.2162 -0.1496 
1.55859 -1.21084 -0.127549 1.61937 -1.21999 -0.0907813 1.67549 -1.21467 -0.061321 
1.72854 -1.19984 -0.031793 1.78099 -1.18319 -0.0170722 1.8334 -1.16649 -0.00975122 
1.88629 -1.15133 -0.0172616 1.94163 -1.14387 -0.0396368 1.99846 -1.14112 -0.0768659 
2.04548 -1.10784 -0.106468 2.09112 -1.07014 -0.106408 2.13471 -1.02591 -0.0840704 
2.18343 -0.997646 -0.0618569 2.2346 -0.977127 -0.061919 2.28324 -0.948726 -0.0619249 
2.32677 -0.904354 -0.0470068 2.37198 -0.86508 -0.0024845 2.41566 -0.820912 0.0642829 
2.46404 -0.791264 0.145777 2.51247 -0.761755 0.234661 2.55677 -0.719428 0.316245 
-0.722275 0.498972 -2.02278 -0.79646 0.54174 -1.89879 -0.855627 0.581444 -1.73291 
-0.904038 0.627018 -1.51271 1.05358 1.25018 -1.38517 1.1066 1.26506 -1.36305 
1.16277 1.27029 -1.31878 1.22364 1.26095 -1.26719 1.2804 1.26434 -1.22294 
1.33714 1.26772 -1.19349 1.39852 1.25666 -1.16415 1.45837 1.25045 -1.11996 
1.52043 1.23742 -1.0684 1.58093 1.22922 -1.01681 1.64657 1.205 -0.972754 
1.71478 1.17285 -0.92134 1.78038 1.14845 -0.86986 1.83961 1.13786 -0.825695 
1.89389 1.10992 -0.803837 1.93677 1.06786 -0.789421 1.99467 1.02867 -0.767643 
2.0622 0.992302 -0.723661 2.13148 0.956449 -0.672263 2.20074 0.920639 -0.628285 
2.2681 0.884326 -0.599113 2.32421 0.844394 -0.569922 2.35646 0.796676 -0.525882 
2.38865 0.748837 -0.467021 2.44311 0.708049 -0.398318 2.50015 0.667367 -0.322224 
2.54951 0.619985 -0.233792 -0.940852 -0.0337437 -1.29675 -1.01043 0.00498266 -1.10367 
-1.04048 0.0535069 -0.962529 -1.04585 0.108961 -0.865877 -0.935202 0.770969 -1.15617 
-0.897793 0.84979 -1.07435 -0.861236 0.918289 -1.01234 -0.821883 0.975933 -0.965231 
-0.777867 1.01901 -0.905871 -0.73841 1.07638 -0.824189 -0.701871 1.14298 -0.712811 
-0.665307 1.20953 -0.594024 -0.62571 1.26662 -0.482713 -0.580961 1.30758 -0.393739 
-0.537287 1.3518 -0.319551 -0.488991 1.38158 -0.260285 -0.440692 1.41131 -0.208431 
-0.396499 1.45376 -0.163896 -0.347573 1.48154 -0.112056 -0.295029 1.49807 -0.0602849 
-0.238868 1.50337 -0.00860447 -0.178032 1.49412 0.0429728 -0.121757 1.49918 0.116872 
-1.03151 0.583897 -1.2162 -1.0723 0.507829 -1.17206 -1.09542 0.441516 -1.11805 
-1.09172 0.384502 -1.06407 -1.07663 0.331212 -1.0126 -1.05971 0.278514 -0.961119 
-1.0426 0.225716 -0.887423 -0.956112 0.138026 -0.59195 -0.889842 0.11267 -0.392335 
-0.828215 0.101745 -0.192617 -0.762005 0.0765385 -0.000410937 -0.693346 0.0436423 0.17693 
-0.62733 0.0188045 0.324698 -0.566617 0.010298 0.442952 -0.504991 -0.00120224 0.531553 
-0.448059 0.00180732 0.605438 -0.390626 0.003224 0.671911 -0.326021 -0.0176533 0.738216 
-0.260859 -0.0402635 0.804518 -0.199742 -0.0502986 0.87091 -0.133985 -0.0747554 0.937189 
-0.0657612 -0.106885 1.00342 -0.000598531 -0.129495 1.06973 0.0568415 -0.128139 1.12879 
0.113663 -0.124901 1.18045 0.174504 -0.134195 1.22462 0.230698 -0.129006 1.2763 
0.283867 -0.114412 1.32806 0.337008 -0.0997741 1.3724 0.393099 -0.0944182 1.39445 
0.453799 -0.103431 1.40899 0.509886 -0.0980653 1.43104 0.563029 -0.0834275 1.47538 
0.616197 -0.0688337 1.52714 0.672364 -0.0636008 1.57141 0.733095 -0.0726666 1.59336 
0.789189 -0.0673616 1.60801 0.842808 -0.0543238 1.63011 0.899009 -0.0491956 1.67438 
0.959877 -0.0585335 1.72597 1.01664 -0.0551469 1.77022 1.07332 -0.0516286 1.79226 
1.13403 -0.0607012 1.7994 1.19007 -0.0553083 1.79923 1.24361 -0.0421381 1.79911 
1.29965 -0.0367453 1.79894 1.36033 -0.0457736 1.79867 1.41693 -0.0421229 1.79849 
1.47353 -0.0384722 1.79831 1.53421 -0.0475005 1.79804 1.59022 -0.0420028 1.79787 
1.6432 -0.0270999 1.79777 1.69618 -0.0121976 1.79766 1.75223 -0.0068043 1.79749 
1.81344 -0.0175311 1.7898 1.87305 -0.0233524 1.76733 1.93476 -0.0358005 1.72259 
1.99489 -0.0433874 1.67047 2.06022 -0.0671383 1.61824 2.12867 -0.100547 1.57335 
2.19761 -0.13554 1.52105 2.26604 -0.168905 1.46874 2.33129 -0.192785 1.41651 
2.39021 -0.202854 1.3718 2.44422 -0.23036 1.31959 2.48674 -0.272006 1.25993 
2.54237 -0.311294 1.19282 2.5962 -0.351277 1.12572 2.62589 -0.399025 1.05866 
2.64257 -0.450906 0.984213 2.64772 -0.506339 0.887572 2.63637 -0.566816 0.753909 
2.62806 -0.626053 0.583211 2.65102 0.494254 -0.0768728 2.71158 0.440784 0.0114726 
2.66768 0.661276 0.0944363 2.8693 0.429768 0.363938 2.80564 0.312427 0.0943313 
2.80957 0.246209 0.0939227 2.80053 0.183868 0.125675 2.80615 0.127547 0.16483 
2.82121 0.0745122 0.17928 2.83789 0.0222105 0.164088 2.85447 -0.0299143 0.119277 
2.86919 -0.082586 0.0670486 2.87258 -0.138953 0.0222595 2.85028 -0.203746 -0.000266656 
2.81668 -0.272277 -0.0079642 2.78127 -0.341444 -0.00824878 2.74589 -0.410655 -0.00112349 
2.71229 -0.479397 0.0208084 2.68828 -0.545151 0.0723544 2.67821 -0.604602 0.153518 
2.6502 -0.65762 0.264416 2.73009 0.683879 0.526447 2.75951 0.629672 0.674171 
2.78958 0.580314 0.750321 2.83423 0.536842 0.752371 2.87541 0.492738 0.692699 
2.60779 0.801789 0.423887 2.55942 0.853233 0.491039 2.51389 0.897613 0.516158 
2.48549 0.946413 0.504201 2.46657 0.998364 0.467548 2.44758 1.05018 0.430884 
2.41799 1.09645 0.409045 2.36633 1.12299 0.401979 2.31164 1.12006 0.402159 
1.18455 1.57081 0.408902 1.12795 1.56716 0.409084 1.06361 1.58754 0.409438 
0.998723 1.60965 0.409803 0.93844 1.61744 0.410066 0.876514 1.63031 0.402956 
0.816182 1.63813 0.380999 0.751751 1.65863 0.344312 0.69099 1.66779 0.322365 
0.642793 1.63813 0.344583 2.94826 0.400416 0.721517 2.9655 0.347398 0.832252 
2.98264 0.294556 0.913357 2.99967 0.241892 0.964834 3.01659 0.189403 0.986681 
3.0336 0.136992 1.00113 3.05246 0.0851286 1.02297 3.08266 0.0367529 1.06701 
3.13691 -0.00393676 1.11844 3.1929 -0.0440665 1.16985 3.23454 -0.0887609 1.21387 
3.28124 -0.131882 1.2653 3.3229 -0.176621 1.31675 3.37898 -0.216673 1.36075 
3.43506 -0.256561 1.38253 3.47832 -0.300472 1.38952 3.53433 -0.340228 1.38908 
3.59013 -0.380048 1.38864 3.62978 -0.425069 1.38823 3.6649 -0.471492 1.38042 
3.68067 -0.524087 1.36524 3.72698 -0.566804 1.3426 3.79241 -0.603308 1.32732 
3.86071 -0.636809 1.30466 3.92547 -0.658767 1.25984 3.98185 -0.65483 1.17818 
4.03511 -0.641296 1.08178 4.09142 -0.63722 0.992706 4.15549 -0.657154 0.918275 
4.22017 -0.678919 0.858651 4.28026 -0.68635 0.813949 4.34148 -0.697188 0.791444 
4.39806 -0.693544 0.776441 4.45458 -0.689761 0.75404 4.5151 -0.698525 0.709329 
4.57092 -0.692718 0.657301 4.62371 -0.677446 0.612761 4.67606 -0.660678 0.590452 
4.72904 -0.645776 0.59035 4.78565 -0.642386 0.612387 4.84889 -0.665464 0.656462 
4.90623 -0.703071 0.715293 4.94802 -0.74776 0.781548 4.99476 -0.790909 0.855195 
5.03605 -0.833953 0.936282 5.09043 -0.862227 1.0248 5.14918 -0.871155 1.09862 
5.21119 -0.884359 1.15758 5.27166 -0.892459 1.20916 5.33688 -0.915167 1.29027 
5.40226 -0.938191 1.40842 5.46361 -0.948572 1.54888 5.52893 -0.971396 1.66704 
5.59293 -0.990366 1.74076 5.64599 -0.975545 1.77029 5.69068 -0.934813 1.77778 
3.97157 0.632317 0.822917 4.02468 0.64705 0.867254 4.06956 0.687413 0.919194 
4.11843 0.715349 0.963626 4.16968 0.735736 0.985784 4.21838 0.763988 0.993187 
4.26248 0.806506 0.993281 4.31178 0.832861 0.993261 4.36718 0.840256 1.00052 
4.42729 0.833142 1.02248 4.4798 0.849773 1.07424 4.5241 0.892049 1.14841 
4.56895 0.932705 1.23738 4.60966 0.98618 1.31904 4.65396 1.02846 1.3932 
4.7106 1.03233 1.45969 4.7662 1.03941 1.5188 4.81927 1.05425 1.56314 
4.87177 1.07082 1.59268 4.92427 1.08738 1.62222 4.97737 1.10212 1.66655 
5.03357 1.10731 1.71824 5.09441 1.09802 1.76241 5.15115 1.10139 1.79186 
5.20875 1.10262 1.82792 5.27859 1.07495 1.89845 5.37909 1.00712 2.0166 
1.43824 -1.01101 0.88892 1.49083 -0.994567 0.95549 1.5433 -0.977898 0.985031 
5.88491 0.618298 2.06041 5.81101 0.673808 1.99357 5.74799 0.718568 2.00575 
5.67554 0.781834 2.07345 5.77451 -0.83687 1.65213 5.8133 -0.778459 1.54123 
5.85744 -0.736483 1.45984 5.90066 -0.691514 1.4081 5.94866 -0.661249 1.38589 
5.99678 -0.63121 1.38589 6.04086 -0.588529 1.40821 6.08916 -0.5588 1.46006 
6.13749 -0.52923 1.54896 6.17998 -0.486158 1.69721 6.21543 -0.450811 1.91211 
5.79176 -0.889155 1.9777 5.84235 -0.872106 2.17021 5.87962 -0.846716 2.34801 
5.89233 -0.800572 2.4964 5.90623 -0.741426 2.61522 5.91505 -0.683598 2.6896 
5.9435 -0.631547 2.71944 5.98966 -0.601872 2.69723 6.0411 -0.58281 2.64531 
6.02287 0.662052 2.14907 6.03886 0.745877 2.1347 5.99733 0.793306 2.14254 
5.93178 0.829996 2.16444 5.85587 0.863266 2.1766 5.73947 0.883587 2.17753 
6.22653 -0.305394 1.91294 6.2163 -0.233215 1.69859 6.21109 -0.173678 1.55081 
6.21975 -0.11236 1.46225 6.21406 -0.0560446 1.41076 6.19898 -0.00296481 1.38891 
6.18221 0.0494688 1.38187 6.16537 0.101825 1.38224 6.14852 0.154181 1.38261 
6.13157 0.206503 1.38299 6.11292 0.258224 1.39077 6.08481 0.306797 1.41338 
6.04237 0.35055 1.46565 6.01452 0.398678 1.55493 5.99664 0.448733 1.70344 
5.98228 0.494121 1.91858 5.37216 0.902498 2.24564 5.28326 0.890075 2.31957 
5.23291 0.851254 2.38931 5.18047 0.834189 2.46425 5.12011 0.842688 2.55341 
5.06029 0.849626 2.66478 6.17855 -0.282405 2.26882 6.14816 -0.204048 2.32124 
6.11822 -0.151381 2.32167 6.07542 -0.106974 2.29986 6.0471 -0.0580477 2.26322 
6.02841 -0.00607576 2.23396 6.01309 0.0469833 2.2047 6.00564 0.102413 2.19765 
6.00142 0.158726 2.21282 5.95907 0.20256 2.25768 5.9091 0.244118 2.30255 
5.89347 0.300134 2.31775 5.92011 0.389665 2.27375 6.16122 -0.534975 2.37849 
6.14704 -0.490849 2.38621 5.99324 0.411198 2.56992 5.97806 0.325641 2.87318 
5.94192 0.266056 3.06554 5.55187 0.779693 2.54057 5.56844 0.710636 2.8286 
5.58575 0.655 3.0091 5.60293 0.601946 3.10581 5.61996 0.549281 3.15728 
5.63688 0.496793 3.17913 5.82219 -0.0791674 3.18244 5.80535 -0.0268116 3.18281 

LINES 33 516
8 30 31 32 33 34 35 36 26 
11 30 37 38 39 40 41 42 43 44 45 28 
4 30 46 47 29 
4 28 54 55 27 
57 28 56 57 58 59 60 61 62 63 64 65 66 67 68 69 70 71 72 73 74 75 76 77 78 79 80 81 82 83 84 85 86 87 88 89 90 91 92 93 94 95 96 97 98 99 100 101 102 103 104 105 106 107 108 109 110 16 
6 26 111 112 113 114 23 
29 25 115 116 117 118 119 120 121 122 123 124 125 126 127 128 129 130 131 132 133 134 135 136 137 138 139 140 141 21 
21 23 146 147 148 149 150 151 152 153 154 155 156 157 158 159 160 161 162 163 164 19 
9 23 165 166 167 168 169 170 171 22 
68 22 172 173 174 175 176 177 178 179 180 181 182 183 184 185 186 187 188 189 190 191 192 193 194 195 196 197 198 199 200 201 202 203 204 205 206 207 208 209 210 211 212 213 214 215 216 217 218 219 220 221 222 223 224 225 226 227 228 229 230 231 232 233 234 235 236 237 16 
4 21 238 239 20 
3 21 240 18 
3 20 241 13 
19 20 242 243 244 245 246 247 248 249 250 251 252 253 254 255 256 257 258 16 
7 18 259 260 261 262 263 13 
11 18 264 265 266 267 268 269 270 271 272 17 
12 15 273 274 275 276 277 278 279 280 281 282 14 
58 13 283 284 285 286 287 288 289 290 291 292 293 294 295 296 297 298 299 300 301 302 303 304 305 306 307 308 309 310 311 312 313 314 315 316 317 318 319 320 321 322 323 324 325 326 327 328 329 330 331 332 333 334 335 336 337 338 9 
29 12 339 340 341 342 343 344 345 346 347 348 349 350 351 352 353 354 355 356 357 358 359 360 361 362 363 364 365 5 
5 11 366 367 368 10 
6 7 369 370 371 372 5 
13 9 373 374 375 376 377 378 379 380 381 382 383 8 
11 9 384 385 386 387 388 389 390 391 392 6 
8 7 393 394 395 396 397 398 5 
18 8 399 400 401 402 403 404 405 406 407 408 409 410 411 412 413 414 7 
8 5 415 416 417 418 419 420 4 
15 8 421 422 423 424 425 426 427 428 429 430 431 432 433 7 
3 8 434 6 
3 8 435 6 
5 7 436 437 438 3 
8 5 439 440 441 442 443 444 0 
4 2 445 446 1 
13 26 48 49 50 51 52 53 24 142 143 144 145 22 

POINT_DATA 447
SCALARS DY_raw double
LOOKUP_TABLE default
634.149 846.146 872.808 934.314 898.245 470.606 550.56 799.446 569.537 
526.55 127.122 148.064 630.598 377.083 955.565 391.12 598.9 505.6 
449.626 466.532 346.59 319.377 422.687 430.395 392.87 556.084 320.223 
418.277 457.847 430.694 337.548 353.983 390.776 393.929 355.739 352.646 
342.602 351.024 351.024 397.882 422.279 435.399 394.031 422.681 362.444 
378.142 367.424 401.728 308.51 317.53 326.47 347.473 372.58 393.262 
457.847 449.791 336.526 366.799 383.794 394.767 401.093 401.093 361.884 
398.629 490.747 441.249 497.525 378.857 374.544 399.334 326.431 295.838 
353.19 310.044 361.04 373.852 350.748 369.539 370.193 316.656 346.044 
324.379 294.151 321.698 326.803 304.247 284.871 274.391 261.661 261.661 
310.516 320.1 341.518 357.218 363.778 359.673 378.935 347.212 341.263 
339.634 362.213 352.277 385.994 422.417 403.186 403.186 467.709 414.41 
484.702 529.598 508.201 361.586 444.464 390.731 341.46 409.512 324.235 
360.288 297.638 249.958 279.864 243.586 237.956 267.341 261.579 283.88 
333.409 362.453 373.868 339.603 309.135 324.842 284.647 293.334 272.646 
272.326 249.632 273.238 299.099 312.973 350.444 339.856 373.634 356.954 
357.329 401.218 423.583 423.795 429.751 386.744 440.974 387.119 430.428 
592.541 528.906 507.953 614.28 624.38 484.043 399.843 442.99 366.14 
371.9 409.995 463.533 443.16 483.074 518.266 522.848 428.15 501.327 
422.952 428.91 395.594 504.996 462.361 527.678 542.364 458.432 438.524 
482.772 450.333 449.706 499.595 398.723 387.956 426.118 402.396 393.598 
378.587 423.874 427.273 461.971 446.146 419.906 417.128 466.803 401.872 
448.204 483.517 550.064 550.064 501.215 543.933 609.021 688.519 626.932 
626.932 564.494 499.819 499.819 514.806 460.673 451.037 413.085 413.085 
374.739 383.419 383.419 426.298 469.212 426.712 447.231 402.131 402.16 
440.482 411.073 445.113 488.546 547.044 571.297 551.946 424.441 435.959 
424.731 438.065 458.653 547.228 322.705 330.378 381.305 381.296 335.255 
357.744 389.905 410.463 410.463 422.859 381.945 355.847 301.435 350.256 
406.162 368.953 405.037 441.789 496.976 515.447 506.985 501.866 537.556 
561.623 546.832 441.121 461.426 500.831 488.974 482.266 461.879 437.322 
436.171 460.951 505.6 418.967 457.989 506.716 506.716 495.029 498.668 
480.937 556.247 572.209 718.027 402.027 441.66 465.942 469.916 458.85 
458.85 455.792 482.636 513.166 554.342 540.428 565.983 484.131 528.562 
497.46 397.066 396.917 393.589 408.137 408.137 389.447 417.874 427.438 
439.833 432.163 471.892 454.33 501.11 483.461 407.16 391.737 359.738 
359.738 465.009 397.751 480.15 511.959 450.57 532.061 566.772 568.183 
526.81 517.892 578.886 512.139 552.487 562.776 619.608 641.973 703.044 
843.655 699.814 667.002 655.266 567.301 470.6 716.393 736.718 814.449 
829.22 978.153 978.153 850.991 628.351 628.351 555.228 506.083 574.215 
710.539 729.15 633.43 598.823 638.467 568.601 532.627 532.627 537.157 
556.138 583.752 568.522 545.719 487.047 504.662 140.593 124.29 127.122 
776.73 759.334 585.286 512.94 475.156 558.013 608.185 538.604 479.783 
476.939 485.936 603.308 591.412 611.065 607.236 672.391 669.843 690.535 
626.816 674.165 633.802 623.219 575.378 551.313 719.39 622.983 666.274 
655.289 540.31 518.464 552.465 546.698 677.349 675.421 627.138 638.344 
549.234 557.373 585.039 651.451 599.49 544.3 589.57 568.115 580.055 
630.738 568.744 604.57 610.158 626.551 576.871 688.656 630.791 659.826 
658.869 653.287 631.978 631.978 608.894 608.299 608.299 644.387 641.789 
673.575 647.528 611.783 611.783 736.445 898.737 891.996 617.736 709.109 
750.131 743.591 617.425 661.051 872.808 824.289 
FIELD FieldData 7
DY_minmax 1 447 double
0.597121 0.845401 0.876626 0.948659 0.906416 0.405587 0.499225 0.790708 0.52145 
0.471106 0.00331624 0.0278432 0.592962 0.296058 0.973547 0.312497 0.555839 0.446571 
0.381016 0.400817 0.260347 0.228476 0.349467 0.358494 0.314547 0.505695 0.229467 
0.344303 0.390645 0.358845 0.249757 0.269005 0.312095 0.315787 0.271061 0.267439 
0.255676 0.265539 0.265539 0.320417 0.34899 0.364355 0.315906 0.34946 0.278914 
0.297298 0.284746 0.324921 0.215749 0.226313 0.236783 0.261381 0.290784 0.315006 
0.390645 0.38121 0.24856 0.284014 0.303917 0.316769 0.324178 0.324178 0.278258 
0.321292 0.429176 0.371207 0.437114 0.298136 0.293085 0.322118 0.236737 0.200908 
0.268076 0.217546 0.27727 0.292274 0.265216 0.287223 0.287988 0.225289 0.259707 
0.234334 0.198933 0.231194 0.237172 0.210756 0.188065 0.175791 0.160882 0.160882 
0.218099 0.229323 0.254406 0.272794 0.280476 0.275669 0.298228 0.261075 0.254107 
0.2522 0.278644 0.267006 0.306494 0.349151 0.326628 0.326628 0.402195 0.339774 
0.422096 0.474676 0.449617 0.277909 0.374971 0.312042 0.254338 0.334038 0.234165 
0.276389 0.203016 0.147176 0.1822 0.139713 0.13312 0.167534 0.160786 0.186903 
0.24491 0.278924 0.292292 0.252164 0.216481 0.234876 0.187802 0.197975 0.173747 
0.173372 0.146794 0.17444 0.204728 0.220976 0.26486 0.25246 0.292019 0.272484 
0.272923 0.324324 0.350517 0.350765 0.35774 0.307372 0.370885 0.307812 0.358533 
0.548391 0.473866 0.449326 0.573851 0.58568 0.421325 0.322714 0.373245 0.283242 
0.289988 0.334603 0.397304 0.373444 0.420189 0.461404 0.466771 0.355865 0.441566 
0.349778 0.356755 0.317737 0.445863 0.395931 0.472427 0.489627 0.39133 0.368015 
0.419836 0.381845 0.381111 0.439538 0.321402 0.308793 0.353486 0.325704 0.315399 
0.29782 0.350858 0.354838 0.395475 0.376941 0.34621 0.342956 0.401134 0.32509 
0.379352 0.420709 0.498645 0.498645 0.441436 0.491464 0.567692 0.660797 0.588668 
0.588668 0.515545 0.4398 0.4398 0.457352 0.393954 0.382669 0.338222 0.338222 
0.293313 0.303478 0.303478 0.353696 0.403955 0.354181 0.378212 0.325393 0.325427 
0.370308 0.335865 0.375731 0.426598 0.495108 0.523511 0.500849 0.351522 0.365011 
0.351861 0.367478 0.391589 0.495323 0.232373 0.24136 0.301003 0.300992 0.247071 
0.273409 0.311075 0.335151 0.335151 0.349668 0.301753 0.271188 0.207463 0.26464 
0.330114 0.286537 0.328797 0.371839 0.436471 0.458104 0.448192 0.442198 0.483995 
0.512182 0.49486 0.371056 0.394836 0.440986 0.427099 0.419243 0.395367 0.366607 
0.365259 0.394281 0.446571 0.34511 0.390811 0.447878 0.447878 0.43419 0.438453 
0.417687 0.505886 0.52458 0.695355 0.325271 0.371688 0.400126 0.404779 0.391819 
0.391819 0.388238 0.419677 0.455432 0.503655 0.487359 0.517288 0.421427 0.473463 
0.437037 0.319461 0.319286 0.315389 0.332428 0.332428 0.310538 0.34383 0.355031 
0.369547 0.360565 0.407094 0.386526 0.441313 0.420643 0.331282 0.31322 0.275744 
0.275744 0.399032 0.320264 0.416765 0.454018 0.382122 0.47756 0.518212 0.519865 
0.471411 0.460967 0.5324 0.454229 0.501482 0.513532 0.58009 0.606284 0.677807 
0.842484 0.674024 0.635597 0.621852 0.518832 0.40558 0.693441 0.717244 0.808279 
0.825578 1 1 0.851075 0.59033 0.59033 0.504693 0.447136 0.526929 
0.686585 0.708381 0.596279 0.555749 0.602178 0.520354 0.478223 0.478223 0.483529 
0.505758 0.538099 0.520262 0.493556 0.424843 0.445473 0.0190937 0 0.00331624 
0.764104 0.743731 0.539895 0.455167 0.410917 0.507954 0.566713 0.485224 0.416335 
0.413005 0.423541 0.561001 0.54707 0.570085 0.565601 0.641908 0.638924 0.663157 
0.588533 0.643985 0.596715 0.58432 0.528291 0.500108 0.696951 0.584043 0.634744 
0.621879 0.487221 0.461636 0.501457 0.494703 0.647714 0.645457 0.588909 0.602034 
0.497672 0.507205 0.539606 0.617384 0.55653 0.491894 0.544912 0.519785 0.533769 
0.593126 0.520522 0.562479 0.569024 0.588222 0.53004 0.660956 0.593187 0.627193 
0.626071 0.619534 0.594578 0.594578 0.567543 0.566847 0.566847 0.609111 0.606069 
0.643295 0.612789 0.570927 0.570927 0.716924 0.906993 0.899098 0.577898 0.684911 
0.732953 0.725293 0.577534 0.628627 0.876626 0.819803 
WidthEq 1 447 double
1.34114 1.10536 1.20928 1.29956 1 3.73851 2.32795 2.27637 2.95878 
3.26965 2.26464 3.50128 1.82772 2.73634 1.53173 2.79471 2.77069 2.5737 
3.04728 2.58433 4.07892 4.51978 4.6893 5.24006 5.09429 2.50143 5.11963 
2.2199 3.0258 3.16586 5.1359 5.56271 5.3517 5.12569 5.35979 5.34239 
5.24727 4.63406 4.63406 3.43477 3.44098 3.08984 2.81276 2.78102 2.96149 
3.30936 4.19547 3.23185 5.42363 5.16522 4.61263 4.15677 4.08598 4.85665 
3.0258 2.81968 3.42744 3.17473 3.16507 3.02526 2.95174 2.95174 3.13942 
3.05476 2.88272 3.26257 3.07807 3.58973 3.687 3.75163 4.24768 4.50211 
4.28986 4.57214 4.2933 4.25245 4.07682 3.83896 3.77648 4.09857 4.00855 
3.98011 3.93242 3.83175 3.73827 3.65829 3.66479 3.52713 3.28751 3.28751 
3.04804 2.91473 2.92086 2.80578 2.70474 2.77609 2.79104 3.05593 3.23105 
3.19584 3.07767 3.20625 2.95907 2.78044 3.02331 3.02331 2.85142 3.30613 
2.98871 2.88516 3.16862 4.726 3.98353 4.06846 5.39202 3.56982 4.58228 
4.41809 4.92523 5.38317 5.2147 5.14844 5.08466 4.85191 4.40741 4.12148 
3.73323 3.47189 3.39397 3.59433 3.8143 3.65404 3.95558 3.96015 3.82894 
3.96354 4.12449 4.07599 4.014 3.91441 4.00547 4.27126 5.49437 5.4445 
5.39617 4.80832 5.31578 5.14716 4.94143 4.81374 4.43834 4.06006 3.56965 
3.18242 3.36499 3.40997 3.18758 3.20949 4.01874 4.44105 4.33496 4.55218 
4.34024 4.14641 3.09466 4.82493 4.06179 3.45909 3.45114 3.90869 3.48855 
4.36296 4.62817 4.70274 4.18826 3.97801 3.53764 3.58321 3.71456 3.68275 
3.45943 3.5018 3.49178 3.36533 3.42999 3.52193 3.42258 3.50817 3.51993 
3.58621 3.4651 3.43866 3.30706 3.37608 3.38046 3.22931 3.10995 2.96914 
2.90041 2.75087 2.38891 2.38891 2.36353 2.03631 1.94935 1.77606 1.89535 
1.89535 1.76541 1.82945 1.82945 1.69815 1.81362 1.7927 1.82046 1.82046 
1.90422 2.17145 2.17145 2.03577 2.14633 2.22765 2.25164 2.32167 2.26501 
2.24451 2.2771 2.27759 2.25221 2.22186 2.23195 2.2578 2.47939 2.74926 
2.78159 2.87842 3.18582 2.74406 4.49459 4.25018 3.48244 3.52633 4.0118 
3.93962 3.69768 3.32301 3.32301 3.13309 3.46226 3.5847 3.94405 3.78325 
3.46644 3.47311 3.35375 3.16537 3.02048 2.93655 3.09805 2.96054 2.47631 
2.58599 2.78467 2.94793 3.21526 3.00078 3.14873 3.28326 3.3938 3.5037 
3.44091 2.99885 2.5737 2.69106 2.98952 3.11633 3.11633 3.09246 3.07931 
3.01359 2.81851 2.58228 2.23996 2.71923 2.57962 2.48772 2.34632 2.09813 
2.09813 1.93574 1.82625 1.59943 1.41388 1.17336 1.14499 1.08716 1.04772 
1.13783 1.37782 1.35632 1.40518 1.44367 1.44367 1.41022 1.42087 1.33342 
1.37308 1.34867 1.29435 1.32988 1.34315 1.42019 1.48071 1.66628 1.68385 
1.68385 1.46639 1.53099 1.17121 1.01058 1.13184 1.14394 1.26015 1.52269 
1.81457 1.92672 2.03421 2.34926 2.49618 2.56039 2.44804 2.28732 2.02825 
1.75332 2.12813 2.5233 2.68791 3.18333 3.58661 1.8047 1.91348 1.82488 
1.60249 1.29924 1.29924 1.36467 1.62536 1.62536 1.80199 2.15173 2.35549 
2.10272 2.3454 2.39639 2.53187 2.44403 2.57517 2.87009 2.87009 2.77787 
2.61898 2.49065 2.65607 2.56686 2.86825 3.10208 3.57986 2.94163 2.26464 
2.33401 2.22535 2.62939 3.2493 3.22684 2.22804 1.84438 1.86745 1.82371 
1.82217 2.02548 1.87497 2.14714 2.50837 2.84592 2.52376 2.05583 1.88152 
1.97427 1.84128 2.02263 2.15545 2.32617 2.3817 2.36384 2.30733 2.3745 
2.51413 2.74577 3.37369 2.77638 2.13089 1.5621 1.57649 1.6278 1.67027 
1.71119 1.70047 1.67102 1.69805 1.83974 2.16075 2.19293 2.31752 2.28776 
2.38515 2.98058 2.59772 2.27412 2.05248 1.94375 1.47951 2.42011 2.02651 
1.83348 1.69138 1.60657 1.60657 1.68014 1.94356 1.94356 2.04168 2.32353 
2.30784 2.52476 2.36333 2.36333 2.36499 1.8232 1.55474 2.71356 2.18262 
1.80597 1.68854 1.50285 1.384 1.20928 1.22198 
rRFP 1 447 double
2791.14 2694.64 2737.17 2774.12 2651.52 3772.31 3195.01 3173.9 3453.19 
3580.42 3169.1 3675.22 2990.28 3362.15 2869.14 3386.04 3376.21 3295.59 
3489.41 3299.94 3911.63 4092.06 4161.44 4386.85 4327.19 3266.01 4337.56 
3150.79 3480.62 3537.94 4344.22 4518.9 4432.54 4340.04 4435.85 4428.73 
4389.8 4138.83 4138.83 3648 3650.54 3506.83 3393.43 3380.44 3454.3 
3596.67 3959.33 3564.95 4461.98 4356.22 4130.06 3943.49 3914.52 4229.93 
3480.62 3396.26 3645 3541.57 3537.62 3480.4 3450.31 3450.31 3527.12 
3492.47 3422.06 3577.52 3502.01 3711.42 3751.23 3777.68 3980.7 4084.83 
3997.96 4113.49 3999.37 3982.65 3910.77 3813.42 3787.85 3919.67 3882.83 
3871.19 3851.67 3810.47 3772.21 3739.48 3742.14 3685.8 3587.73 3587.73 
3489.72 3435.16 3437.67 3390.57 3349.22 3378.42 3384.54 3492.95 3564.62 
3550.21 3501.85 3554.47 3453.31 3380.2 3479.6 3479.6 3409.25 3595.35 
3465.44 3423.06 3539.07 4176.46 3872.59 3907.35 4449.04 3703.27 4117.64 
4050.44 4258 4445.42 4376.47 4349.35 4323.25 4227.99 4046.07 3929.05 
3770.15 3663.19 3631.3 3713.3 3803.33 3737.74 3861.15 3863.02 3809.32 
3864.41 3930.28 3910.43 3885.06 3844.3 3881.57 3990.35 4490.93 4470.52 
4450.74 4210.15 4417.84 4348.83 4264.63 4212.37 4058.73 3903.91 3703.2 
3544.72 3619.44 3637.85 3546.83 3555.8 3887 4059.84 4016.42 4105.32 
4018.58 3939.25 3508.8 4216.95 3904.62 3657.95 3654.7 3841.96 3670.01 
4027.88 4136.42 4166.94 3956.38 3870.33 3690.1 3708.75 3762.51 3749.49 
3658.09 3675.43 3671.33 3619.58 3646.04 3683.67 3643.01 3678.04 3682.85 
3709.98 3660.41 3649.59 3595.73 3623.98 3625.77 3563.91 3515.06 3457.43 
3429.3 3368.1 3219.96 3219.96 3209.57 3075.65 3040.06 2969.14 3017.96 
3017.96 2964.78 2990.99 2990.99 2937.25 2984.51 2975.95 2987.31 2987.31 
3021.59 3130.96 3130.96 3075.43 3120.68 3153.96 3163.78 3192.44 3169.25 
3160.86 3174.2 3174.4 3164.01 3151.59 3155.72 3166.3 3256.99 3367.44 
3380.67 3420.3 3546.11 3365.31 4081.75 3981.72 3667.51 3685.47 3884.16 
3854.62 3755.6 3602.26 3602.26 3524.53 3659.25 3709.36 3856.43 3790.62 
3660.96 3663.69 3614.84 3537.74 3478.44 3444.09 3510.19 3453.91 3255.73 
3300.62 3381.93 3448.75 3558.16 3470.38 3530.93 3585.99 3631.23 3676.21 
3650.51 3469.59 3295.59 3343.62 3465.77 3517.67 3517.67 3507.9 3502.52 
3475.62 3395.78 3299.1 3159 3355.15 3298.01 3260.4 3202.53 3100.95 
3100.95 3034.49 2989.68 2896.85 2820.91 2722.47 2710.86 2687.19 2671.05 
2707.93 2806.15 2797.35 2817.35 2833.1 2833.1 2819.41 2823.77 2787.98 
2804.21 2794.22 2771.99 2786.53 2791.96 2823.49 2848.26 2924.21 2931.4 
2931.4 2842.4 2868.84 2721.59 2655.85 2705.48 2710.43 2757.99 2865.44 
2984.9 3030.8 3074.79 3203.73 3263.86 3290.14 3244.16 3178.38 3072.35 
2959.83 3113.23 3274.96 3342.33 3545.09 3710.14 2980.86 3025.38 2989.12 
2898.1 2773.99 2773.99 2800.77 2907.46 2907.46 2979.75 3122.89 3206.28 
3102.83 3202.15 3223.02 3278.47 3242.52 3296.19 3416.89 3416.89 3379.15 
3314.12 3261.6 3329.3 3292.79 3416.14 3511.84 3707.38 3446.17 3169.1 
3197.49 3153.02 3318.38 3572.09 3562.9 3154.12 2997.1 3006.54 2988.64 
2988.01 3071.22 3009.62 3121.01 3268.85 3407 3275.15 3083.64 3012.3 
3050.26 2995.83 3070.05 3124.41 3194.28 3217.01 3209.7 3186.57 3214.06 
3271.21 3366.01 3623 3378.54 3114.36 2881.57 2887.46 2908.46 2925.84 
2942.59 2938.2 2926.15 2937.21 2995.2 3126.58 3139.75 3190.74 3178.56 
3218.42 3462.11 3305.42 3172.98 3082.27 3037.77 2847.77 3232.73 3071.64 
2992.64 2934.48 2899.77 2899.77 2929.88 3037.69 3037.69 3077.85 3193.2 
3186.78 3275.56 3209.49 3209.49 3210.17 2988.43 2878.56 3352.83 3135.53 
2981.38 2933.32 2857.32 2808.68 2737.17 2742.37 
rGFP 1 447 double
3544.86 3629.67 3749.84 3908.57 3592.62 4453.74 3976.05 4514.21 4379.51 
4416.01 2982.26 3212.79 3846.93 3726.2 4158.04 3787.44 4353.74 3995.64 
4064.51 3900.05 4108.09 4137.89 4676.48 4949.67 4695.77 4085.38 4333.8 
3622.91 4079.73 4057.89 4427.99 4663.48 4785.69 4713.53 4601.06 4578.35 
4492.1 4321.04 4321.04 4061.01 4147.43 4039.69 3802.69 3869.86 3767.75 
3945.78 4235.89 3992.7 4367.62 4334.49 4200.26 4138.74 4216.73 4604.31 
4079.73 3962.64 3847.8 3858.86 3909.11 3888.65 3878.3 3878.3 3830.48 
3912.09 4109.06 4133.98 4225.79 4054.37 4075.32 4192.53 4080.95 4026.27 
4209.51 4111.94 4244.43 4284.16 4124.31 4113.02 4092.4 3992.21 4081.51 
3985.44 3851.1 3927.04 3916.05 3807.4 3738.37 3662.19 3554.59 3554.59 
3640.84 3627.38 3691.9 3696.65 3678.3 3692.86 3752 3755.43 3797.01 
3779.79 3809.15 3823.86 3836.56 3868.88 3913.33 3913.33 4028.01 4064.47 
4143.01 4222.35 4304.67 4403.23 4464.91 4284.05 4535.53 4156.26 4180.11 
4286.16 4160.31 4039.94 4153.78 3948.46 3904.3 3991.49 3847.26 3864.38 
3939.07 3952.77 3963.27 3915.02 3873.51 3881.36 3820.32 3856.02 3738.32 