# vtk DataFile Version 3.0
vtk output
ASCII
DATASET POLYDATA
POINTS 554 float
1.96863 -0.439611 1.78438 2.11695 -0.184689 1.81164 2.62156 -1.20945 1.43634 
3.04722 0.027849 1.53188 2.44941 1.29057 1.29865 2.83804 1.09343 1.13882 
0.739187 -1.47332 0.385271 1.7645 -1.87067 0.298202 -0.0203442 -0.767124 -0.0888865 
-0.211903 -0.428891 -0.101269 1.32021 -1.8813 0.0406169 3.90441 0.13322 0.432615 
-0.531839 -0.0639787 -0.330464 1.34396 1.88587 -0.0292478 1.5402 1.89955 -0.00424336 
-0.187865 1.11467 -0.72612 4.20041 0.258969 -0.467214 4.21527 -0.523012 -0.559328 
-0.469844 -0.844564 -1.35777 -0.3873 0.127559 -1.65033 3.80683 0.963473 -1.03013 
2.67123 1.50933 -1.28789 3.67661 0.830379 -1.18541 4.5816 -0.344732 -1.11245 
4.6007 -0.190536 -1.10479 0.389711 -1.39622 -1.87419 5.30038 -0.0755603 -1.21505 
5.96938 0.27508 -1.25385 6.56087 -0.160935 -1.06037 6.16178 0.595946 -1.08438 
1.81707 -1.68911 -1.90742 6.1415 -0.0450006 -1.36093 6.62305 -0.504861 -1.40048 
6.64711 0.0437183 -1.44593 3.56531 0.414819 -2.02023 6.24139 -0.911982 -1.73102 
6.4326 0.00324571 -1.67581 2.90122 0.731132 -2.39495 6.42405 -0.573179 -1.89827 
7.01072 -0.217865 -1.82583 2.02216 -0.686496 -2.85585 1.97071 -0.70919 -2.86306 
1.91226 -0.722793 -2.87084 1.86919 -0.756368 -2.87737 1.84137 -0.80975 -2.88267 
1.8034 -0.851395 -2.88137 1.75149 -0.877819 -2.86636 1.68647 -0.891559 -2.83015 
1.62964 -0.917374 -2.78584 1.57871 -0.949402 -2.74849 1.52555 -0.974211 -2.73358 
1.46507 -0.986617 -2.7341 1.41473 -1.01075 -2.74122 1.37048 -1.0428 -2.74785 
1.32636 -1.07645 -2.74704 1.28028 -1.109 -2.73898 1.22719 -1.1339 -2.72407 
1.16571 -1.14647 -2.71724 1.11236 -1.16958 -2.70976 1.0571 -1.1931 -2.6876 
0.988947 -1.20565 -2.6368 0.921178 -1.22304 -2.5637 0.849081 -1.23481 -2.49095 
0.781056 -1.25042 -2.4253 0.703791 -1.25403 -2.36039 0.625606 -1.25789 -2.28813 
0.554953 -1.27442 -2.20043 0.482527 -1.29009 -2.10544 0.425878 -1.32914 -1.99436 
6.98834 -0.148486 -1.81692 6.94847 -0.0956494 -1.7921 6.90795 -0.0522584 -1.74712 
6.86519 -0.0119668 -1.68947 6.81156 0.0205211 -1.62037 6.73488 0.0359757 -1.53979 
6.97294 -0.279988 -1.83082 6.92386 -0.322938 -1.83282 6.87812 -0.358168 -1.82854 
6.83069 -0.392955 -1.80142 6.77627 -0.429254 -1.72481 6.7084 -0.467018 -1.58521 
6.40775 -0.65017 -1.85813 6.38627 -0.719005 -1.82582 6.35439 -0.774323 -1.79434 
6.32538 -0.831939 -1.77006 6.28597 -0.876039 -1.74662 6.44554 -0.492815 -1.98994 
6.46336 -0.413456 -2.05221 6.4765 -0.33542 -2.07778 6.48454 -0.259501 -2.07418 
6.48108 -0.190684 -2.04238 6.46025 -0.13263 -1.96831 6.44485 -0.0670796 -1.84101 
6.47624 -0.57636 -1.76238 6.52067 -0.56592 -1.63447 6.5722 -0.549939 -1.51544 
2.83046 0.73056 -2.45237 2.76448 0.725115 -2.49442 2.70724 0.711335 -2.51699 
2.64662 0.702629 -2.53607 2.59171 0.68876 -2.56581 2.5364 0.679735 -2.61785 
2.49125 0.658965 -2.6765 2.44518 0.637952 -2.72779 2.38706 0.628245 -2.75779 
2.32914 0.615408 -2.77295 2.25988 0.615836 -2.78159 2.18447 0.624256 -2.79073 
2.10893 0.634281 -2.80731 2.03627 0.643454 -2.83848 1.97246 0.645476 -2.8912 
1.91881 0.635754 -2.95054 1.85499 0.637776 -3.00326 1.78234 0.646949 -3.03444 
1.7059 0.656877 -3.04365 1.62807 0.667249 -3.03062 1.55537 0.682878 -2.99437 
1.49474 0.706071 -2.94886 1.4293 0.712268 -2.91202 1.36915 0.699684 -2.89756 
1.30632 0.690494 -2.89826 1.24859 0.675959 -2.90598 1.18667 0.666867 -2.91403 
1.12802 0.652079 -2.9144 1.06327 0.642321 -2.90042 0.998848 0.627805 -2.86416 
0.923229 0.626386 -2.82137 0.843482 0.631772 -2.78634 0.77147 0.631446 -2.77295 
0.709609 0.619382 -2.76615 0.638779 0.617522 -2.75267 0.567288 0.61363 -2.72439 
0.511114 0.589854 -2.69489 0.462868 0.558666 -2.67957 0.41063 0.534108 -2.67201 
0.348302 0.521208 -2.65783 0.292456 0.495558 -2.62087 0.240863 0.4615 -2.56873 
0.18946 0.425751 -2.50916 0.138124 0.389914 -2.44958 0.0867874 0.354078 -2.39 
0.0364366 0.318405 -2.33776 -0.0119532 0.281631 -2.29278 -0.0553637 0.238392 -2.2474 
-0.09975 0.190049 -2.16995 -0.171614 0.165178 -2.04285 -0.26315 0.141959 -1.86088 
2.97037 0.708946 -2.33851 3.04045 0.689695 -2.2968 3.10562 0.670612 -2.27436 
3.15902 0.642759 -2.26491 3.21685 0.618191 -2.25851 3.2683 0.589105 -2.24561 
3.32329 0.563717 -2.21719 3.37014 0.533374 -2.16756 3.42145 0.50698 -2.10975 
3.46822 0.476571 -2.06014 3.52178 0.450072 -2.03194 6.34727 0.0084083 -1.62095 
6.25169 -0.00228414 -1.51562 6.4733 0.0341149 -1.63979 6.51937 0.0551359 -1.5885 
6.5801 0.0542255 -1.52118 6.60769 -0.0508281 -1.25242 6.60693 -0.404689 -1.23723 
6.5988 -0.320982 -1.12335 6.58907 -0.242396 -1.07208 5.97125 0.171941 -1.28952 
5.97919 0.0951701 -1.31543 6.01449 0.0482862 -1.33005 6.07641 0.0124581 -1.34283 
5.89788 0.299257 -1.36156 5.84776 0.330566 -1.44892 5.79573 0.357105 -1.50929 
5.74637 0.386785 -1.53935 5.68946 0.411604 -1.55309 5.63565 0.439174 -1.55887 
5.5698 0.454764 -1.56657 5.50348 0.453064 -1.56745 5.4565 0.420416 -1.55203 
5.42324 0.36544 -1.51326 5.38219 0.319138 -1.46768 5.34339 0.27154 -1.42935 
5.32414 0.205835 -1.4116 5.32085 0.137125 -1.39942 5.32876 0.0756404 -1.37065 
5.32028 0.00355845 -1.30696 6.19924 -0.0702525 -1.16597 6.25093 -0.0950506 -1.01657 
6.29749 -0.124452 -0.937065 6.36548 -0.141886 -0.927285 6.45433 -0.151843 -0.976272 
6.11516 -0.14589 -1.3434 6.11483 -0.216546 -1.32905 6.10391 -0.277214 -1.32502 
6.0705 -0.320725 -1.32882 6.02659 -0.354484 -1.32799 5.97233 -0.377853 -1.31317 
5.89882 -0.380393 -1.27763 5.81856 -0.372641 -1.23511 5.74595 -0.356944 -1.19884 
5.6894 -0.32998 -1.18258 5.63217 -0.304479 -1.18139 5.58914 -0.268367 -1.18554 
5.5526 -0.227201 -1.1887 5.50966 -0.191022 -1.19283 5.45486 -0.164092 -1.19876 
5.4104 -0.129097 -1.20312 5.36452 -0.0952141 -1.2077 1.7654 -1.72308 -1.85529 
1.70949 -1.74864 -1.81834 1.64599 -1.76002 -1.80425 1.58649 -1.77514 -1.79728 
1.52266 -1.78465 -1.79064 1.46007 -1.79866 -1.76906 1.38622 -1.79949 -1.74099 
1.30438 -1.79283 -1.69871 1.22143 -1.78473 -1.65651 1.13841 -1.77654 -1.61432 
1.05632 -1.7681 -1.57949 0.973299 -1.75991 -1.5373 0.890366 -1.75166 -1.49509 
0.809779 -1.74204 -1.46003 0.739857 -1.7255 -1.4458 0.685146 -1.69803 -1.44423 
0.627913 -1.67253 -1.44304 0.583137 -1.63686 -1.43249 0.546184 -1.59508 -1.42073 
0.512906 -1.5523 -1.43837 0.477401 -1.51405 -1.50126 0.435542 -1.48353 -1.61002 
0.408296 -1.44302 -1.73902 6.18873 0.546448 -1.14246 6.18494 0.491641 -1.18216 
6.14569 0.457869 -1.19568 6.08738 0.442231 -1.19356 6.04342 0.407117 -1.19776 
6.01314 0.344774 -1.21861 5.23348 -0.0781951 -1.2235 5.17987 -0.0995269 -1.22346 
5.12547 -0.122722 -1.20865 5.05908 -0.134682 -1.17255 4.99387 -0.149616 -1.12892 
4.92035 -0.15231 -1.09339 4.85063 -0.155611 -1.07982 4.79695 -0.176856 -1.07978 
4.74412 -0.197762 -1.0871 4.67598 -0.198782 -1.09566 0.320982 -1.37782 -1.84481 
0.265915 -1.34645 -1.77593 0.206675 -1.31555 -1.66277 0.13291 -1.29457 -1.52935 
0.0660277 -1.26962 -1.41735 0.000607799 -1.24632 -1.35004 -0.0460053 -1.21114 -1.32479 
-0.0819531 -1.16905 -1.32037 -0.115558 -1.12559 -1.32309 -0.149162 -1.08214 -1.32581 
-0.184192 -1.03979 -1.32874 -0.227131 -1.00362 -1.33287 -0.283366 -0.977802 -1.33902 
-0.335554 -0.948833 -1.34455 -0.39179 -0.92302 -1.3507 -0.434729 -0.886841 -1.35483 
3.75928 0.905916 -1.10277 3.7173 0.864559 -1.15426 4.59115 -0.267635 -1.10862 
4.5671 -0.147081 -1.1075 4.53207 -0.104736 -1.11043 4.4893 -0.0684295 -1.11454 
4.43518 -0.040499 -1.11288 4.39799 0.00201887 -1.0862 4.37588 0.0586212 -1.01981 
4.33849 0.105832 -0.915799 4.29029 0.147296 -0.78347 4.242 0.194898 -0.631029 
2.67984 1.56888 -1.18767 2.71353 1.60164 -1.11512 2.76844 1.61262 -1.07053 
2.82237 1.62632 -1.03344 2.87885 1.63382 -0.98131 2.93133 1.64507 -0.92207 
2.99416 1.64288 -0.862006 3.06406 1.63295 -0.808794 3.13407 1.62127 -0.748157 
3.20271 1.60838 -0.687721 3.26437 1.58958 -0.635843 3.31541 1.56111 -0.60803 
3.37089 1.53518 -0.594508 3.41534 1.50018 -0.590148 3.45971 1.46512 -0.585799 
3.51543 1.43844 -0.587217 3.56104 1.40294 -0.605134 3.60059 1.36179 -0.638947 
3.63735 1.31848 -0.673172 3.6658 1.26961 -0.693702 3.68921 1.21727 -0.7075 
3.73606 1.18251 -0.727726 3.77442 1.13717 -0.786727 3.79211 1.0631 -0.891617 
-0.411984 0.0306839 -1.56212 -0.441464 -0.0466627 -1.47135 -0.478664 -0.105542 -1.37593 
-0.500375 -0.16978 -1.26382 -0.50241 -0.230674 -1.13918 -0.498866 -0.289058 -1.00629 
-0.468505 -0.326677 -0.869321 -0.432756 -0.360095 -0.731549 -0.382207 -0.381975 -0.591532 
-0.32458 -0.397874 -0.442953 -0.267366 -0.413165 -0.279461 3.87331 0.931675 -0.983065 
3.89875 0.878789 -0.936881 3.92648 0.833301 -0.880196 3.96323 0.795194 -0.829591 
3.97414 0.735443 -0.807865 3.98922 0.676149 -0.830413 4.02934 0.634988 -0.871626 
4.05483 0.582412 -0.91505 4.08076 0.532048 -0.928474 4.10167 0.479629 -0.912708 
4.10728 0.417665 -0.859352 4.12202 0.363515 -0.767237 4.15036 0.312621 -0.630988 
-0.411725 0.215124 -1.58566 -0.416934 0.295206 -1.53875 -0.411193 0.372295 -1.51548 
-0.401342 0.449421 -1.5141 -0.387859 0.525745 -1.53221 -0.366451 0.594667 -1.56453 
-0.335743 0.651512 -1.59608 -0.315908 0.718146 -1.60627 -0.298767 0.783945 -1.5944 
-0.275143 0.836994 -1.55976 -0.25467 0.894136 -1.52536 -0.22987 0.945658 -1.49062 
-0.207295 1.00152 -1.46348 -0.178863 1.04439 -1.40898 -0.160169 1.08288 -1.28208 
-0.168052 1.11721 -1.04567 4.14985 -0.540569 -0.500879 4.11391 -0.596386 -0.440065 
4.08516 -0.661549 -0.378661 4.04338 -0.709793 -0.318307 4.00055 -0.756684 -0.258047 
3.96578 -0.814029 -0.197128 3.92171 -0.859298 -0.136959 3.87345 -0.896246 -0.0919717 
3.82795 -0.93244 -0.0690207 3.79215 -0.975449 -0.0749683 3.76558 -1.03045 -0.0801711 
3.72794 -1.07396 -0.0714315 3.68053 -1.11057 -0.0337888 3.63018 -1.14625 0.0184516 
3.57977 -1.18183 0.0706865 3.53119 -1.21691 0.108225 3.48536 -1.25124 0.123727 
3.44131 -1.28498 0.124537 3.39706 -1.31703 0.117908 3.34581 -1.34142 0.118138 
3.28348 -1.35432 0.13231 3.22763 -1.37997 0.169262 3.17696 -1.41378 0.214064 
3.12831 -1.44878 0.251597 3.08249 -1.48311 0.267099 3.03751 -1.5171 0.275257 
2.99051 -1.5499 0.290665 2.93467 -1.57555 0.327617 2.86866 -1.58945 0.371183 
2.81183 -1.61527 0.415478 2.7609 -1.6473 0.452827 2.70407 -1.67311 0.497122 
2.638 -1.68694 0.540684 2.58098 -1.71105 0.577541 2.52671 -1.73441 0.592362 
2.46609 -1.74665 0.591837 2.41458 -1.76926 0.584623 2.363 -1.79179 0.577403 
2.30212 -1.80224 0.569435 2.24333 -1.81541 0.561634 2.17526 -1.81651 0.553085 
2.1081 -1.81737 0.537187 2.05207 -1.82978 0.507351 1.99671 -1.83873 0.455311 
1.95149 -1.85941 0.396656 1.90424 -1.8789 0.345271 1.83885 -1.87917 0.31468 
4.16512 0.184923 -0.207758 4.09811 0.142309 0.0289015 4.00498 0.132011 0.238493 
-0.127846 1.25116 -0.744763 -0.0949229 1.3382 -0.727395 -0.0648113 1.38401 -0.666038 
-0.0330469 1.41472 -0.56859 0.00527938 1.43569 -0.465975 0.0529749 1.44449 -0.362615 
0.0953726 1.4645 -0.28193 0.140785 1.48348 -0.215847 0.203349 1.48308 -0.163227 
0.271089 1.47451 -0.102767 0.333849 1.47241 -0.0426976 0.387247 1.48392 0.00918373 
0.445565 1.49192 0.0466269 0.499624 1.50545 0.0837262 0.556107 1.51294 0.135857 
0.607607 1.52402 0.20243 0.667415 1.52287 0.277096 0.72729 1.52163 0.351768 
0.779966 1.53118 0.418436 0.84378 1.52916 0.471157 0.915518 1.51973 0.509683 
0.988365 1.50887 0.548297 1.05944 1.49741 0.601604 1.1296 1.48571 0.662269 
1.19969 1.47409 0.722919 1.2696 1.46416 0.776131 1.33249 1.46189 0.836201 
1.38614 1.47161 0.895535 1.44996 1.46959 0.948257 1.52262 1.46041 0.979433 
1.5973 1.45005 1.00336 1.67113 1.43935 1.03463 1.74221 1.42789 1.08794 
1.81237 1.41619 1.1486 1.88345 1.40473 1.20191 1.95728 1.39403 1.23318 
2.03286 1.38377 1.24975 2.10794 1.37264 1.25876 2.17513 1.3555 1.26657 
2.22933 1.33055 1.2725 2.28924 1.32269 1.27972 2.34621 1.33175 1.28715 
2.4046 1.32271 1.29414 -0.275292 0.978027 -0.608206 -0.331525 0.895933 -0.525618 
-0.35465 0.824614 -0.489868 -0.356537 0.756045 -0.489645 -0.343181 0.696155 -0.504957 
-0.341819 0.628614 -0.529503 -0.356211 0.562387 -0.54104 -0.383092 0.506526 -0.538839 
-0.402663 0.438107 -0.52122 -0.415227 0.362034 -0.510459 -0.426597 0.284587 -0.499585 
-0.437393 0.207914 -0.481151 -0.443187 0.136672 -0.4395 -0.439206 0.0759611 -0.388785 
-0.453441 0.0156795 -0.347815 -0.489247 -0.028518 -0.331397 1.49591 1.86774 -0.0108692 
1.44593 1.84646 -0.0178461 1.3887 1.85382 -0.0247494 3.87224 0.0652733 0.530837 
3.822 0.016459 0.64987 3.76273 -0.0235039 0.783009 3.70404 -0.0613506 0.901361 
3.64779 -0.0965774 0.990218 3.58611 -0.121869 1.0638 3.50792 -0.125733 1.13607 
3.42164 -0.120347 1.21509 3.33662 -0.112006 1.28691 3.26178 -0.0960483 1.35279 
3.20897 -0.0633763 1.41454 3.16491 -0.0243539 1.47012 3.11494 0.00913327 1.50983 
3.89109 0.198529 0.530289 3.86857 0.255277 0.604104 3.85142 0.314812 0.65628 
3.82089 0.363919 0.706426 3.78254 0.406929 0.755396 3.74511 0.450189 0.797007 
3.71725 0.499984 0.825105 3.70127 0.559032 0.855004 3.67157 0.608325 0.897789 
3.63306 0.651205 0.946734 3.5926 0.692104 0.987885 3.54699 0.727596 1.0058 
3.49043 0.754085 1.01458 3.44473 0.78951 1.03249 3.40268 0.829169 1.0734 
3.35331 0.863589 1.12069 3.293 0.889012 1.15883 3.24579 0.923252 1.17651 
3.19898 0.956885 1.17928 3.13476 0.976471 1.17192 3.06911 0.994947 1.16434 
3.01389 1.02155 1.15835 2.94824 1.04002 1.15077 2.88401 1.05961 1.14341 
1.2851 -1.83902 0.0376723 1.24224 -1.80278 0.0335541 1.18744 -1.77585 0.0276231 
1.14307 -1.74078 0.0232745 1.09862 -1.70578 0.0189139 1.0423 -1.68004 0.0127526 
0.989192 -1.65132 0.014567 0.930201 -1.62626 0.030454 0.880833 -1.59184 0.0777429 
0.835701 -1.55226 0.155615 0.788319 -1.51257 0.263088 -0.0173586 -0.834449 -0.0908157 
0.00530612 -0.886433 -0.0897599 0.0373053 -0.931139 -0.087288 0.0722566 -0.973545 -0.0843684 
0.115195 -1.00972 -0.0802371 0.171431 -1.03554 -0.0740889 0.223619 -1.06451 -0.0685546 
0.279854 -1.09032 -0.0624064 0.322793 -1.1265 -0.0582751 0.357909 -1.16878 -0.0553305 
0.393025 -1.21105 -0.0523859 0.435877 -1.2473 -0.0482677 0.490602 -1.27429 -0.0423487 
0.532536 -1.31079 -0.0308819 0.564896 -1.35382 -0.00590204 0.59367 -1.39779 0.0484758 
0.628017 -1.43555 0.13364 0.679896 -1.45779 0.251406 0.760952 -1.43229 0.493963 
0.776436 -1.38023 0.587313 0.803123 -1.33982 0.666732 0.838845 -1.30825 0.732033 
0.883669 -1.28562 0.783224 0.940806 -1.27608 0.820571 0.99598 -1.264 0.857761 
1.05966 -1.26585 0.910471 1.12746 -1.2745 0.970947 1.19029 -1.27668 1.03101 
1.24579 -1.26646 1.07564 1.31144 -1.26798 1.11367 1.38494 -1.27681 1.13751 
1.45845 -1.28565 1.16133 1.52495 -1.28683 1.19202 1.57927 -1.27508 1.23655 
1.63674 -1.26742 1.28135 1.69282 -1.25507 1.31119 1.75999 -1.25423 1.32709 
1.82813 -1.25321 1.33564 1.88907 -1.24139 1.33619 1.96108 -1.24107 1.3228 
2.04083 -1.24645 1.28778 2.11553 -1.24529 1.25233 2.17719 -1.23152 1.23811 
2.23742 -1.22311 1.26086 2.29357 -1.21085 1.29072 2.36283 -1.21128 1.29936 
2.44093 -1.21886 1.28645 2.51712 -1.22686 1.28824 2.57975 -1.22734 1.34087 
2.13662 -0.236284 1.81234 2.12941 -0.293874 1.80947 2.09645 -0.337251 1.80386 
2.05471 -0.372373 1.79744 2.0117 -0.406035 1.79091 
LINES 36 623
30 40 41 42 43 44 45 46 47 48 49 50 51 52 53 54 55 56 57 58 59 60 61 62 63 64 65 66 67 68 25 
7 38 81 82 83 84 85 35 
9 38 86 87 88 89 90 91 92 36 
5 38 93 94 95 32 
4 36 158 159 31 
5 36 160 161 162 33 
3 33 163 28 
5 32 164 165 166 28 
6 27 167 168 169 170 31 
18 27 171 172 173 174 175 176 177 178 179 180 181 182 183 184 185 186 26 
7 31 187 188 189 190 191 28 
19 31 192 193 194 195 196 197 198 199 200 201 202 203 204 205 206 207 208 26 
25 30 209 210 211 212 213 214 215 216 217 218 219 220 221 222 223 224 225 226 227 228 229 230 231 25 
8 29 232 233 234 235 236 237 27 
12 26 238 239 240 241 242 243 244 245 246 247 24 
18 25 248 249 250 251 252 253 254 255 256 257 258 259 260 261 262 263 18 
4 20 264 265 22 
3 24 266 23 
11 24 267 268 269 270 271 272 273 274 275 16 
26 21 276 277 278 279 280 281 282 283 284 285 286 287 288 289 290 291 292 293 294 295 296 297 298 299 20 
13 19 300 301 302 303 304 305 306 307 308 309 310 9 
15 20 311 312 313 314 315 316 317 318 319 320 321 322 323 16 
18 19 324 325 326 327 328 329 330 331 332 333 334 335 336 337 338 339 15 
49 17 340 341 342 343 344 345 346 347 348 349 350 351 352 353 354 355 356 357 358 359 360 361 362 363 364 365 366 367 368 369 370 371 372 373 374 375 376 377 378 379 380 381 382 383 384 385 386 7 
5 16 387 388 389 11 
45 15 390 391 392 393 394 395 396 397 398 399 400 401 402 403 404 405 406 407 408 409 410 411 412 413 414 415 416 417 418 419 420 421 422 423 424 425 426 427 428 429 430 431 432 4 
18 15 433 434 435 436 437 438 439 440 441 442 443 444 445 446 447 448 12 
5 14 449 450 451 13 
15 11 452 453 454 455 456 457 458 459 460 461 462 463 464 3 
26 11 465 466 467 468 469 470 471 472 473 474 475 476 477 478 479 480 481 482 483 484 485 486 487 488 5 
13 10 489 490 491 492 493 494 495 496 497 498 499 6 
20 8 500 501 502 503 504 505 506 507 508 509 510 511 512 513 514 515 516 517 6 
33 6 518 519 520 521 522 523 524 525 526 527 528 529 530 531 532 533 534 535 536 537 538 539 540 541 542 543 544 545 546 547 548 2 
7 1 549 550 551 552 553 0 
15 33 74 73 72 71 70 69 39 75 76 77 78 79 80 32 
65 19 146 145 144 143 142 141 140 139 138 137 136 135 134 133 132 131 130 129 128 127 126 125 124 123 122 121 120 119 118 117 116 115 114 113 112 111 110 109 108 107 106 105 104 103 102 101 100 99 98 97 96 37 147 148 149 150 151 152 153 154 155 156 157 34 

POINT_DATA 554
SCALARS DY_raw double
LOOKUP_TABLE default
1915.81 1152.23 1114.59 1191.3 1336.44 1388.05 1084.8 1605.46 1037.93 
939.354 1234.62 1102.62 1474.9 929.846 645.277 1297.58 1152.14 828.586 
944.647 1294.05 1142.04 1408.85 1383.67 1113.49 1112.83 1498.09 963.407 
1189.97 1051.03 1259.11 886.227 1062.48 1169.38 844.392 1177.22 1244.2 
987.774 1160.97 1132.22 971.119 937.961 981.508 983.31 993.922 993.922 
1023.08 1023.08 1103.12 1128.56 1392.17 1290.69 1249.74 1249.74 1152.75 
1196.17 1196.17 1127.75 1145.88 1145.88 1132.73 1245.9 1301.15 1237.52 
1280.61 1237.91 1188.91 1290.67 1293.21 1263.91 950.203 998.217 999.513 
822.268 856.163 799.933 1005.47 1052.49 1091.96 1119.73 1082.47 1035.58 
1031.03 1037.91 962.784 1098.68 1290.02 1039.17 1028.51 1049.78 969.395 
894.403 862.761 868.512 1177.91 1115.33 1109.68 1235.87 1154.09 1200.9 
1139.83 1178.01 1206.17 1133.88 1067.28 1175.83 1299.13 1404.66 1368.7 
1368.7 1233.04 1201.45 1078.96 952.55 883.447 883.447 941.97 1023.61 
1073.52 1076.07 1159 1159 1130.52 1056.61 1072.83 1045.91 1084.5 
1143.64 1114.03 1073.73 1132.38 1119.68 1193.23 1192.98 1297.81 1297.81 
1343.53 1303.34 1363.72 1407.24 1383.53 1419.16 1209.17 1131.76 1149.29 
1128.93 1218.24 1323.07 1246.05 1363.93 1265.02 1129.53 1129.53 1033.33 
1053.31 1090.74 1159.9 1113.38 1233.88 1072.76 1056.81 931.357 967.654 
875.847 1013.71 1249.86 1139.33 1044.58 1262.77 1223.87 1091.64 1069.46 
1279.3 1245.39 1114.8 1068.76 977.32 987.376 969.839 993.039 1019.49 
1112.46 1172.36 1328.45 1196.31 977.015 837.23 774.794 1023.6 1056.49 
1209.53 1249.9 1190.26 1094.86 1129.97 1154.93 1209.95 1225.46 1283.48 
1209.82 1087.49 966.938 917.883 917.883 832.167 819.586 819.586 777.24 
773.32 773.32 922.456 979.098 979.098 1151.87 1176.11 1276.08 1255.2 
1335.71 1332.53 1210 1258.76 1328.16 1298.45 1366.22 1400.64 1377.22 
1377.22 1289.49 1464.42 1332.98 1463.35 1425.15 1277.96 1142.57 1031.46 
1016.23 1030.93 1101.71 1203.18 963.407 1019.15 1186.68 1320.6 1500.45 
1461.45 1243.62 1243.62 1063.98 1092.11 1647.64 1806.2 1789.56 1662.19 
1507.44 1325.46 1462.86 1372.99 1252.03 1252.03 1053.07 976.054 976.054 
924.163 924.163 901.24 1228.83 1324.85 1183.49 1227.84 1252.3 1134.68 
1167.61 941.962 896.138 904.107 893.541 1002.44 1579.25 1687.99 1376.73 
1195.23 1195.23 1033.14 1041.04 1115.53 1112.19 1088.97 986.643 880.317 
820.73 831.047 831.047 998.689 1089.75 1006.07 1069.32 1069.32 1147.42 
1153.44 1132.76 1162.54 1163.65 1078.33 993.966 938.455 930.721 1033.72 
871.267 932.97 928.606 865.285 903.207 1017.41 986.274 1021.53 1051.04 
1253.07 1154.31 1054.96 1054.96 1172.87 1202.82 1174.62 1118.15 1160.94 
1467.94 1576.7 1505.96 1566.53 1331.18 1353.22 1293.28 1243.54 1243.54 
1416.94 1137.81 1342.67 1052.61 1120.03 1205.8 1418.53 883.831 843.432 
882.345 1037.19 999.198 1118.77 1206.94 1285.19 1158.82 1195.23 1195.23 
1263 1223.9 1184.5 1239.45 1164.76 1231.45 1237.58 1237.58 1176.66 
1088.74 1156.9 1177.33 1109.69 1109.69 1052.36 988.145 1042.34 927.692 
938.786 1035.73 988.718 1060.44 1118.23 1180.15 1180.15 1209.34 1185.93 
1185.93 1297.11 1358.96 1358.96 1303.69 1221.99 1205.62 1291.96 1343.29 
1030.61 1065.71 1133.21 1179.52 1151.78 1066.58 992.458 1054.52 1106.31 
1078.5 1212.56 1166.35 1260.03 1306.79 1212.78 1336.12 1206.95 1216.69 
1262.86 1290.16 1136.25 1247.43 1043.88 973.998 902.426 910.493 1032.23 
1093.75 1059.55 1099.42 1046.43 926.273 900.374 801.227 828.888 828.888 
922.669 898.837 960.715 1017.79 1103.41 1141.35 1196.37 1233.77 1235.73 
1265.25 1395.38 1465.31 1608.8 1665.58 1923 1811.68 1777.98 1688.38 
1662.53 1501.92 1394.6 1509.02 1469.36 1387.63 1299.23 1474.9 710.998 
738.248 873.339 1168.42 1298.9 1401.23 1454.48 1480.54 1249.43 1178.4 
1228.62 1253.7 1226.41 1286.34 1219.67 1191.3 1129.15 1216.94 1324.88 
1324.88 1409.7 1316.79 1366.09 1268.91 1305.88 1286.68 1249.8 1249.8 
1273.69 1212.19 1358.46 1193.57 1165.6 1180.3 1033.55 1058.22 1058.22 
1214.17 1214.17 1297.92 1234.62 1201.12 1139.91 1139.91 1157.46 1095.55 
1187.53 1033.74 1088.85 1037.21 971.896 1033.28 940.68 940.68 927.177 
956.449 956.449 986.769 1023.52 1023.52 1010.95 1010.95 1024.26 1162.35 
1162.35 1188.68 1075 1166.1 1097.26 1262.01 1060.39 1251.12 1261.23 
1274.76 1274.76 1300.7 1166.89 1199.84 1123.61 1158.24 1143.64 1150.69 
1145.27 1081.96 1158.37 1255.72 1252.13 1325.57 1241.55 1265.15 1266.22 
1210.25 1164.16 1193.64 1193.64 1159.45 1127.35 1088.95 1012.14 1099.54 
1041.75 1065.1 1202.53 1406.66 1326.38 
FIELD FieldData 7
DY_minmax 1 554 double
0.994369 0.396763 0.367305 0.427341 0.540936 0.581329 0.343988 0.751478 0.307307 
0.230157 0.461243 0.357935 0.6493 0.222715 0 0.510519 0.396693 0.143465 
0.2343 0.507755 0.388786 0.597605 0.577894 0.366446 0.36593 0.667447 0.248982 
0.426297 0.317558 0.480413 0.188578 0.326518 0.410182 0.155836 0.416318 0.468746 
0.268052 0.403606 0.381102 0.255018 0.229067 0.263148 0.264559 0.272865 0.272865 
0.295684 0.295684 0.358327 0.378236 0.584547 0.505129 0.473077 0.473077 0.397166 
0.431154 0.431154 0.377603 0.391795 0.391795 0.381504 0.470072 0.513312 0.463512 
0.497242 0.463822 0.425473 0.505111 0.507103 0.48417 0.238648 0.276225 0.27724 
0.138521 0.165049 0.12104 0.281902 0.318705 0.349591 0.371328 0.342163 0.305468 
0.301908 0.30729 0.248495 0.354855 0.504605 0.308276 0.299935 0.316578 0.253668 
0.194976 0.170212 0.174713 0.416864 0.367881 0.363463 0.462226 0.398221 0.434854 
0.387058 0.416942 0.438974 0.382402 0.330277 0.415234 0.51173 0.594327 0.56618 
0.56618 0.46001 0.435281 0.33942 0.240484 0.186402 0.186402 0.232204 0.296098 
0.335161 0.337158 0.402063 0.402063 0.379772 0.321925 0.33462 0.313551 0.343752 
0.390042 0.366867 0.335322 0.381227 0.371284 0.428855 0.428655 0.510702 0.510702 
0.546483 0.515028 0.562283 0.596348 0.57779 0.605671 0.441322 0.380744 0.394461 
0.378525 0.448428 0.530467 0.470193 0.562445 0.48504 0.378994 0.378994 0.303705 
0.319345 0.34864 0.402764 0.36636 0.460664 0.334563 0.322083 0.223898 0.252305 
0.180454 0.288349 0.473174 0.386668 0.312513 0.483274 0.452835 0.349346 0.331986 
0.49621 0.469674 0.36747 0.331436 0.259871 0.267741 0.254016 0.272173 0.292877 
0.365633 0.412521 0.534682 0.431264 0.259632 0.150231 0.101366 0.296095 0.32183 
0.44161 0.473205 0.426527 0.351864 0.379338 0.398877 0.441938 0.454079 0.499483 
0.441838 0.346092 0.251746 0.213353 0.213353 0.146268 0.136421 0.136421 0.10328 
0.100211 0.100211 0.216932 0.261263 0.261263 0.396483 0.415452 0.493694 0.477352 
0.540364 0.537872 0.441978 0.480139 0.534453 0.5112 0.564241 0.591177 0.572847 
0.572847 0.504189 0.641097 0.538223 0.640261 0.610363 0.495161 0.389202 0.302243 
0.290326 0.301829 0.357221 0.43664 0.248982 0.292605 0.423726 0.528537 0.669293 
0.638768 0.468287 0.468287 0.327693 0.349711 0.784491 0.908584 0.895562 0.795876 
0.674765 0.532341 0.639872 0.56954 0.47487 0.47487 0.319154 0.25888 0.25888 
0.218268 0.218268 0.200327 0.456715 0.531862 0.421227 0.455937 0.475081 0.383024 
0.408801 0.232198 0.196334 0.202571 0.194302 0.279534 0.730963 0.816071 0.572464 
0.430416 0.430416 0.303559 0.309742 0.368041 0.365429 0.347253 0.267167 0.183952 
0.137317 0.145391 0.145391 0.276595 0.347866 0.28237 0.331876 0.331876 0.392999 
0.397713 0.381523 0.404833 0.405697 0.338923 0.272898 0.229453 0.223401 0.304011 
0.176869 0.22516 0.221745 0.172187 0.201867 0.291246 0.266878 0.294475 0.317571 
0.475682 0.398394 0.320639 0.320639 0.412919 0.43636 0.414282 0.370091 0.403576 
0.643851 0.728969 0.673608 0.721015 0.536818 0.554063 0.507158 0.468222 0.468222 
0.603935 0.385477 0.545807 0.318792 0.371558 0.438692 0.605181 0.186702 0.155084 
0.185539 0.30673 0.276994 0.370576 0.439583 0.500823 0.401917 0.43042 0.43042 
0.483456 0.452853 0.422019 0.465022 0.406567 0.458763 0.463562 0.463562 0.415883 
0.347071 0.400416 0.416409 0.363471 0.363471 0.318602 0.268343 0.310758 0.22103 
0.229712 0.305585 0.268791 0.324924 0.370153 0.418611 0.418611 0.441461 0.423137 
0.423137 0.510155 0.558559 0.558559 0.515302 0.451359 0.438551 0.506118 0.546296 
0.30158 0.329048 0.381879 0.418124 0.396414 0.329731 0.271718 0.32029 0.360827 
0.339062 0.443982 0.407814 0.481135 0.517726 0.444153 0.540684 0.439593 0.447212 
0.483344 0.504713 0.384255 0.471268 0.311965 0.25727 0.201256 0.207569 0.302842 
0.350997 0.324225 0.35543 0.313957 0.219919 0.19965 0.122053 0.143702 0.143702 
0.217099 0.198446 0.246875 0.291541 0.358551 0.38825 0.431307 0.460577 0.462113 
0.485217 0.58706 0.64179 0.754091 0.798535 1 0.912879 0.886504 0.816375 
0.796147 0.670444 0.586448 0.676 0.644958 0.580994 0.511814 0.6493 0.0514357 
0.0727627 0.178491 0.409431 0.511555 0.591643 0.633318 0.653712 0.472834 0.417245 
0.456551 0.476174 0.454819 0.50172 0.449542 0.427341 0.378695 0.447409 0.531883 
0.531883 0.598266 0.525552 0.564136 0.488079 0.517018 0.501986 0.473126 0.473126 
0.491823 0.443694 0.55817 0.429119 0.407224 0.418734 0.30388 0.323186 0.323186 
0.445238 0.445238 0.510789 0.461243 0.435029 0.387117 0.387117 0.400859 0.352399 
0.424393 0.30403 0.347155 0.306741 0.255626 0.30367 0.231194 0.231194 0.220627 
0.243536 0.243536 0.267266 0.296032 0.296032 0.286195 0.286195 0.296605 0.404684 
0.404684 0.42529 0.336317 0.407619 0.353741 0.482678 0.324886 0.474157 0.482068 
0.492661 0.492661 0.512958 0.408237 0.434023 0.374361 0.401465 0.390037 0.39556 
0.391313 0.341763 0.401571 0.477757 0.474951 0.532422 0.466666 0.485138 0.485979 
0.442168 0.406096 0.429169 0.429169 0.402415 0.377294 0.347234 0.287123 0.355529 
0.310295 0.328567 0.43613 0.595888 0.53306 
WidthEq 1 554 double
1.22031 2.43832 2.31582 2.11665 1.43386 1.21445 3.41013 1.9579 2.99979 
3.74726 2.7569 3.25279 3.71315 2.84997 3.4923 3.51988 4.00197 3.0932 
4.85256 4.57435 3.23706 1 2.50923 2.26536 2.65686 3.28195 3.09518 
3.65865 3.03462 1.89486 3.09931 3.96661 3.67658 3.80368 2.63597 2.32181 
3.55579 3.40799 3.84507 2.93956 3.29186 3.2201 4.03971 4.20421 4.20421 
4.21117 4.21117 3.99706 3.8692 3.28632 3.47916 3.59274 3.59274 3.80401 
3.81401 3.81401 3.95242 4.0259 4.0259 3.83395 4.03529 3.79061 3.91122 
3.80219 3.96602 4.1288 3.79429 3.9313 3.90983 2.86244 2.66886 2.56507 
2.93641 2.97648 3.68399 3.03335 2.99377 2.92189 3.04006 3.31031 3.80057 
3.84669 3.77125 3.93601 3.41382 2.4236 3.82269 3.47906 3.217 3.53466 
3.58635 3.64087 3.73173 4.2875 4.3503 4.15629 3.22725 3.44117 3.25276 
3.43794 3.26578 3.28727 3.27032 3.26719 2.96993 2.83841 2.66033 2.69071 
2.69071 2.81627 2.97396 3.17891 3.53704 3.65794 3.65794 3.67923 3.67213 
3.5999 3.66653 3.54215 3.54215 3.63964 3.94244 3.84521 3.96875 3.87736 
3.62967 3.95435 4.10003 3.80125 4.16656 3.93106 4.05869 3.837 3.837 
3.7265 3.55834 3.50709 3.4571 3.60055 3.54076 4.31619 4.65189 4.64693 
4.67476 4.39822 4.46757 3.2368 3.1006 3.06363 2.85038 2.85038 2.73941 
2.78189 2.79844 2.76769 2.92081 2.76789 3.47968 3.64628 3.61261 3.58108 
3.88389 3.48391 2.95753 2.77426 2.90784 3.78266 3.88563 4.16277 4.17682 
3.36112 3.01375 2.94547 2.99208 2.94557 3.22932 3.37468 3.3344 3.33631 
3.14161 2.97541 2.59775 2.59028 2.74174 3.00865 3.26322 4.05824 3.66916 
2.94516 2.68699 2.7451 3.8496 3.44296 3.18526 2.97484 2.82873 2.84686 
2.77943 2.82243 2.90848 2.90885 2.90885 3.14304 3.15978 3.15978 3.28367 
3.33453 3.33453 3.90058 3.96416 3.96416 3.68523 3.55195 3.48935 3.38415 
3.13365 3.23871 3.38888 3.10898 3.21155 3.12656 3.20303 3.15591 3.11864 
3.11864 3.19766 3.03357 3.15947 3.10835 3.1769 3.38976 2.6087 3.08173 
3.24814 3.31853 3.36548 3.35959 3.09518 2.91943 2.35274 2.11206 1.90942 
1.94422 2.23688 2.23688 2.56707 2.80356 2.89828 2.59358 1.92509 1.99196 
1.99075 2.38618 2.27575 2.5413 3.16384 3.16384 4.13997 4.64559 4.64559 
5.33431 5.33431 5.51024 3.02814 2.76864 2.40633 2.5677 2.49358 2.69841 
2.74134 3.29189 3.52446 3.83138 4.2963 4.38584 1.66301 1.67208 2.18175 
2.47559 2.47559 2.58353 2.54706 2.41961 2.36622 2.28201 2.37471 2.36492 
2.51529 2.41534 2.41534 2.31323 2.19919 2.26221 2.07407 2.07407 1.98985 
2.17829 2.42232 2.85842 5.11002 5.51117 5.78891 5.93077 5.64787 5.33688 
5.61798 5.75244 5.47651 5.23765 4.75993 3.59208 3.80532 3.78477 3.45675 
3.12976 3.24058 3.15999 3.15999 3.12961 3.46638 3.74994 4.0408 4.01866 
3.95769 3.43717 3.39039 3.16306 3.61088 3.32071 3.17832 3.27484 3.27484 
3.06943 3.6911 3.31795 4.03616 4.07748 4.12839 3.58693 3.15301 3.4065 
3.32896 2.94727 3.02398 2.80851 2.56793 2.43415 2.60575 2.27816 2.27816 
2.08776 1.79057 1.95661 1.73548 1.6803 1.6276 1.50742 1.50742 1.6065 
1.91722 1.93328 2.11757 2.33814 2.33814 2.6361 2.72476 2.75554 2.92768 
2.89341 2.77866 2.85047 2.81637 2.74899 2.69414 2.69414 2.56108 2.49365 
2.49365 2.35871 2.33668 2.33668 2.52317 2.59214 2.58041 2.53732 2.37471 
4.13691 3.71252 3.21233 4.77721 5.19577 5.56582 5.26327 4.97858 3.92834 