# vtk DataFile Version 3.0
vtk output
ASCII
DATASET POLYDATA
POINTS 292 float
-0.454395 -0.611579 0.50691 0.48408 0.04179 0.682207 0.24638 1.37223 0.830266 
0.456657 -0.167704 -0.878237 -0.0347569 1.3373 -0.271173 1.99059 -0.454475 -1.03578 
0.480638 1.76809 -0.284874 1.28075 1.88567 -0.589585 5.32953 0.497965 -1.0853 
3.0224 1.07528 -1.61311 4.3583 0.475034 -2.38897 5.71428 1.26416 -1.84655 
4.77407 0.588211 -2.45434 4.22666 1.41545 -2.36761 4.51726 0.915305 -2.72193 
4.5916 1.45981 -2.52839 5.05444 1.28482 -2.54211 5.10024 1.24584 -2.48011 
5.14908 1.22025 -2.42109 5.19918 1.22666 -2.36673 5.23996 1.25206 -2.32253 
5.29215 1.26503 -2.28145 5.34715 1.25648 -2.23172 5.40834 1.25821 -2.16999 
5.47305 1.26868 -2.10492 5.53904 1.28304 -2.04627 5.60371 1.29341 -1.98124 
5.66364 1.29101 -1.91319 4.54349 1.48715 -2.51598 4.49453 1.51113 -2.48906 
4.42964 1.49239 -2.45476 4.35998 1.4608 -2.41746 4.29494 1.44168 -2.38329 
4.59674 0.896288 -2.72052 4.65317 0.863044 -2.71316 4.69254 0.801162 -2.67797 
4.73187 0.715982 -2.58523 4.4672 0.966249 -2.60729 4.42151 1.00775 -2.52688 
4.37645 1.04302 -2.48786 4.33903 1.09795 -2.46495 4.30575 1.164 -2.44569 
4.2732 1.23161 -2.42582 4.24249 1.29864 -2.40596 4.22283 1.36148 -2.38644 
4.43122 0.829148 -2.64987 4.38336 0.749334 -2.58364 4.35474 0.670208 -2.51918 
4.33942 0.579966 -2.45327 4.18232 1.44766 -2.29024 4.13007 1.46019 -2.22826 
4.07447 1.46473 -2.17721 4.01818 1.46747 -2.12684 3.95911 1.46127 -2.05621 
3.89387 1.43744 -1.96864 3.81938 1.38983 -1.89011 3.74359 1.34129 -1.84349 
3.66995 1.30069 -1.82539 3.59764 1.26408 -1.81365 3.52797 1.23308 -1.78401 
3.46621 1.22176 -1.73899 3.40513 1.21283 -1.70095 3.33759 1.18909 -1.69221 
3.26748 1.15973 -1.69612 3.19801 1.13496 -1.69054 3.12268 1.11486 -1.65773 
4.8359 0.587444 -2.31215 4.87817 0.599742 -2.20938 4.9326 0.621139 -2.15471 
4.98821 0.649388 -2.12116 5.02844 0.679001 -2.07558 5.06943 0.692436 -1.98828 
5.10142 0.693384 -1.85896 5.1465 0.678788 -1.7022 5.20096 0.660436 -1.54579 
5.25579 0.638037 -1.39073 5.30195 0.592465 -1.23659 4.7378 0.498354 -2.42314 
4.67609 0.43507 -2.38015 4.60626 0.394739 -2.33537 4.54194 0.377483 -2.30181 
4.47829 0.370247 -2.30277 4.41704 0.399719 -2.33417 2.98098 1.14797 -1.55831 
2.95468 1.21003 -1.51613 2.94534 1.26348 -1.48044 2.92154 1.31911 -1.43758 
2.88655 1.37186 -1.37586 2.84848 1.42048 -1.30013 2.8096 1.46676 -1.21741 
2.77073 1.51303 -1.13469 2.73251 1.5616 -1.05899 2.69506 1.61334 -0.997864 
2.65624 1.66337 -0.961042 2.61231 1.70086 -0.936869 2.56942 1.74042 -0.904032 
2.52205 1.76668 -0.8526 2.4763 1.7965 -0.791914 2.42823 1.82097 -0.741164 
2.38056 1.84826 -0.712997 2.3233 1.8521 -0.70952 2.26846 1.86277 -0.711335 
2.21641 1.88062 -0.71042 2.16494 1.89996 -0.708932 2.11352 1.9194 -0.707408 
2.06209 1.93885 -0.705884 2.01063 1.95819 -0.704396 1.95854 1.97594 -0.703517 
1.90234 1.98253 -0.698997 1.84023 1.97333 -0.692607 1.78194 1.97335 -0.67482 
1.72442 1.97654 -0.671594 1.65963 1.96164 -0.68314 1.59483 1.94674 -0.694686 
1.53523 1.94278 -0.670527 1.47482 1.93555 -0.631832 1.40923 1.91502 -0.59821 
1.3469 1.90465 -0.584374 3.00143 1.02455 -1.70068 3.00292 0.975148 -1.7646 
2.98497 0.932212 -1.80203 2.94487 0.893653 -1.82445 2.92537 0.842963 -1.83586 
2.92617 0.779302 -1.83395 2.90309 0.716726 -1.81047 2.85592 0.660604 -1.7793 
2.82189 0.602167 -1.7555 2.7992 0.54739 -1.7529 2.77959 0.496739 -1.7643 
2.75999 0.446087 -1.7757 2.73719 0.391349 -1.7731 2.70056 0.331247 -1.74225 
2.63904 0.275256 -1.69675 2.57672 0.21692 -1.64427 2.53828 0.1575 -1.61338 
2.50215 0.0998556 -1.5895 2.45255 0.0499525 -1.57218 2.40477 -0.00593588 -1.541 
2.34133 -0.0611991 -1.49545 2.27641 -0.121203 -1.43593 2.22233 -0.191549 -1.36053 
2.15277 -0.26264 -1.2712 2.07229 -0.347256 -1.15874 1.94086 -0.378442 -1.22967 
1.89545 -0.317029 -1.39404 1.84591 -0.280464 -1.52278 1.79688 -0.248558 -1.598 
1.7435 -0.231745 -1.62902 1.68069 -0.243329 -1.61565 1.62102 -0.24867 -1.57624 
1.56473 -0.245331 -1.53353 1.51052 -0.234835 -1.51175 1.45428 -0.228345 -1.50727 
1.39293 -0.23438 -1.51544 1.33336 -0.235875 -1.52189 1.27201 -0.24191 -1.53006 
1.21647 -0.233033 -1.53256 1.16435 -0.215382 -1.53172 1.11219 -0.197828 -1.53091 
1.05602 -0.190557 -1.53402 0.990604 -0.207648 -1.53851 0.924382 -0.228005 -1.52848 
0.867463 -0.226273 -1.48639 0.814993 -0.214313 -1.42462 0.752756 -0.228039 -1.36474 
0.695043 -0.230746 -1.29279 0.644356 -0.216015 -1.20369 0.587359 -0.215139 -1.10422 
0.524542 -0.207901 -0.997927 0.459722 1.75502 -0.39365 0.430994 1.73429 -0.474354 
0.41607 1.69512 -0.520686 0.368278 1.65788 -0.538175 0.299543 1.6198 -0.526585 
0.22743 1.57983 -0.476673 0.159225 1.54306 -0.393815 0.0952791 1.4894 -0.316304 
0.0466699 1.43048 -0.270529 -0.00219196 1.38305 -0.260155 1.88039 -0.570966 -0.814 
1.7882 -0.66155 -0.618263 1.71537 -0.708804 -0.463444 1.65092 -0.733308 -0.339333 
1.58972 -0.74736 -0.240144 1.52857 -0.761313 -0.140928 1.46814 -0.772787 -0.048646 
1.40834 -0.782658 0.0442347 1.35338 -0.778894 0.126549 1.30489 -0.757923 0.207513 
1.2547 -0.740709 0.279169 1.20286 -0.727733 0.349201 1.14007 -0.742873 0.408541 
1.07967 -0.751883 0.470215 1.0268 -0.740959 0.531588 0.983803 -0.704059 0.594958 
0.941539 -0.664685 0.651382 0.889987 -0.649767 0.706385 0.834392 -0.645234 0.757447 
0.778834 -0.640006 0.800873 0.724627 -0.630106 0.830311 0.67042 -0.620205 0.859748 
0.614824 -0.615074 0.903138 0.558532 -0.612333 0.953517 0.502898 -0.607298 0.99687 
0.448689 -0.596803 1.01864 0.391828 -0.591919 1.02252 0.327032 -0.606816 1.01097 
0.261613 -0.623312 0.998815 0.201368 -0.626519 0.991718 0.13995 -0.632739 0.983475 
0.083713 -0.625653 0.980295 0.0268494 -0.620175 0.976504 -0.0386442 -0.636863 0.964276 
-0.107447 -0.66145 0.941153 -0.174898 -0.681364 0.90404 -0.236152 -0.682962 0.842354 
-0.289515 -0.662488 0.765402 -0.343256 -0.641789 0.672779 -0.395886 -0.618832 0.588883 
0.368549 -0.21189 -0.83398 0.293369 -0.247931 -0.759432 0.216186 -0.301573 -0.670126 
0.137032 -0.362043 -0.58336 0.0625708 -0.408965 -0.51246 -0.00601379 -0.440196 -0.443476 
-0.0805051 -0.487797 -0.364956 -0.157813 -0.545635 -0.250888 -0.229232 -0.590748 -0.100441 
-0.296645 -0.626172 0.0615823 -0.357932 -0.644662 0.214284 -0.40853 -0.6345 0.362113 
0.456454 -0.146045 -0.692628 0.461591 -0.13093 -0.54542 0.471516 -0.111444 -0.438169 
0.485405 -0.0868086 -0.352361 0.50851 -0.0666144 -0.264521 0.545998 -0.0571528 -0.163196 
0.574866 -0.0523763 -0.0407445 0.597734 -0.0506266 0.0957954 0.587804 -0.0399718 0.242611 
0.571062 -0.0260937 0.389839 0.534543 0.000114002 0.53669 0.240625 1.31899 0.811493 
0.24914 1.26035 0.792298 0.25454 1.2029 0.773194 0.275808 1.13944 0.753621 
0.304819 1.07306 0.733818 0.326189 1.00957 0.714241 0.333395 0.951428 0.695085 
0.353054 0.888581 0.675559 0.372714 0.825734 0.656033 0.379929 0.767593 0.636876 
0.400595 0.701716 0.624281 0.42752 0.628178 0.625411 0.444721 0.550373 0.647699 
0.447154 0.475498 0.677395 0.463659 0.395307 0.706665 0.4885 0.314613 0.728728 
0.505304 0.236 0.753333 0.506593 0.167256 0.764025 0.507627 0.102141 0.741869 
0.372726 -0.0364631 0.846177 0.291744 -0.0800811 0.988327 0.228617 -0.0951467 1.08435 
0.171091 -0.0963807 1.14634 0.116155 -0.0895545 1.19038 0.0639769 -0.0762445 1.24477 
0.0176046 -0.0480246 1.30485 -0.0298737 -0.0220441 1.35617 -0.0741287 0.0140171 1.38768 
-0.126216 0.0311615 1.39622 -0.186273 0.028437 1.3893 -0.241743 0.0380932 1.37921 
-0.296484 0.0508242 1.35453 -0.357148 0.0501421 1.30108 -0.417636 0.0502125 1.24003 
-0.472497 0.0588121 1.19033 -0.523517 0.0426405 1.15613 -0.554021 0.00335322 1.1318 
-0.574003 -0.0417467 1.10653 -0.590931 -0.0828167 1.06721 -0.607372 -0.116127 1.00702 
-0.632468 -0.143513 0.940105 -0.672314 -0.167974 0.880601 -0.698274 -0.20563 0.841556 
-0.705137 -0.2558 0.815857 -0.685674 -0.318573 0.796337 -0.654962 -0.385598 0.776484 
-0.621713 -0.450823 0.749633 -0.586348 -0.509718 0.709435 -0.545484 -0.552685 0.651645 
-0.49801 -0.577476 0.584994 
LINES 16 324
13 16 17 18 19 20 21 22 23 24 25 26 27 11 
7 15 28 29 30 31 32 13 
6 14 33 34 35 36 12 
10 14 37 38 39 40 41 42 43 44 13 
19 13 49 50 51 52 53 54 55 56 57 58 59 60 61 62 63 64 65 9 
13 12 66 67 68 69 70 71 72 73 74 75 76 8 
37 9 83 84 85 86 87 88 89 90 91 92 93 94 95 96 97 98 99 100 101 102 103 104 105 106 107 108 109 110 111 112 113 114 115 116 117 7 
27 9 118 119 120 121 122 123 124 125 126 127 128 129 130 131 132 133 134 135 136 137 138 139 140 141 142 5 
28 5 143 144 145 146 147 148 149 150 151 152 153 154 155 156 157 158 159 160 161 162 163 164 165 166 167 168 3 
12 6 169 170 171 172 173 174 175 176 177 178 4 
42 5 179 180 181 182 183 184 185 186 187 188 189 190 191 192 193 194 195 196 197 198 199 200 201 202 203 204 205 206 207 208 209 210 211 212 213 214 215 216 217 218 0 
14 3 219 220 221 222 223 224 225 226 227 228 229 230 0 
13 3 231 232 233 234 235 236 237 238 239 240 241 1 
21 2 242 243 244 245 246 247 248 249 250 251 252 253 254 255 256 257 258 259 260 1 
33 1 261 262 263 264 265 266 267 268 269 270 271 272 273 274 275 276 277 278 279 280 281 282 283 284 285 286 287 288 289 290 291 0 
13 14 45 46 47 48 10 82 81 80 79 78 77 12 

POINT_DATA 292
SCALARS DY_raw double
LOOKUP_TABLE default
162.89 126.757 183.482 122.856 217.226 153.871 114.041 380.866 374.528 
209.58 202.962 265.1 213.351 217.481 250.571 316.409 299.451 343.626 
319.344 282.512 266.937 248.927 237.377 239.638 231.093 240.667 233.788 
241.98 302.912 225.39 246.192 209.754 195.635 255.427 263.045 257.046 
228.995 265.155 288.001 297.812 326.176 293.783 312.702 237.905 245.517 
275.248 273.712 213.453 202.717 205.874 225.161 233.411 259.642 276.395 
283.52 306.203 301.687 318.274 244.372 293.318 329.221 247.985 262.447 
213.582 193.665 192.801 220.181 217.93 231.574 213.495 184.972 203.233 
197.24 219.632 264.645 255.946 263.845 244.599 257.309 241.02 219.778 
225.713 211.079 220.556 219.029 206.961 224.656 236.764 193.709 211.681 
189.387 194.647 173.463 163.854 164.609 164.609 185.248 204.709 196.016 
197.841 197.841 190.052 172.607 195.091 180.463 188.954 188.954 179.323 
171.929 183.653 170.342 170.342 169.928 185.707 198.004 226.398 238.805 
297.348 204.211 193.266 200.196 207.551 212.732 211.834 210.942 200.751 
206.012 199.033 186.413 186.413 185.724 189.123 193.709 195.822 181.828 
184.108 159.896 144.815 146.293 134.863 132.307 132.087 146.895 160.314 
196.849 176.441 162.791 170.592 180.598 189.88 203.202 211.256 190.804 
160.709 165.281 150.147 161.054 182.297 187.514 179.446 179.446 180.213 
180.213 194.141 179.884 180.37 158.298 135.289 133.714 127.615 121.294 
123.78 134.564 133.877 139.604 143.02 139.596 140.25 164.123 178.49 
209.606 199.95 199.229 193.258 199.588 204.001 179.337 171.741 167.535 
145.391 155.995 178.758 172.636 178.651 153.072 152.061 152.061 151.896 
146.278 150.992 150.288 164.357 176.969 182.382 182.382 158.445 164.287 
164.287 168.76 177.057 174.658 192.478 204.374 203.318 176.222 167.916 
160.777 147.086 152.647 135.389 158.068 200.665 201.541 160.936 163.484 
149.06 141.978 164.96 172.999 171.595 160.569 124.407 139.046 135.085 
145.129 159.085 163.225 156.132 167.014 148.057 145.725 138.012 163.76 
170.129 166.135 144.81 153.12 146.512 125.374 131 149.872 134.933 
139 139 146.463 146.441 126.299 137.794 131.819 121.816 121.656 
146.709 171.64 189.602 182.48 179.515 160.338 176.731 163.982 155.876 
155.876 151.899 154.014 161.416 158.693 149.682 144.252 160.225 151.206 
151.206 179.123 187.279 169.697 176.275 210.502 210.502 236.259 234.798 
210.515 188.141 202.898 185.246 
FIELD FieldData 7
DY_minmax 1 292 double
0.183074 0.0476564 0.260251 0.0330381 0.386714 0.149275 0 1 0.976245 
0.358058 0.333256 0.566136 0.372194 0.387671 0.511686 0.758429 0.694874 0.860434 
0.769431 0.631392 0.573022 0.505523 0.462235 0.47071 0.438684 0.474567 0.448784 
0.479486 0.707845 0.41731 0.495275 0.358711 0.305796 0.529883 0.558432 0.535951 
0.430823 0.566343 0.651964 0.688734 0.795034 0.673633 0.744538 0.464216 0.492744 
0.604169 0.598412 0.372576 0.332339 0.344171 0.416454 0.447371 0.54568 0.608465 
0.635171 0.720179 0.703254 0.765421 0.48845 0.671889 0.806447 0.501994 0.556194 
0.37306 0.298413 0.295177 0.397791 0.389354 0.440489 0.372734 0.265832 0.334273 
0.311811 0.395731 0.56443 0.531829 0.561434 0.489301 0.536936 0.475888 0.396281 
0.418522 0.363676 0.399196 0.393473 0.348246 0.414561 0.45994 0.298578 0.365934 
0.282382 0.302093 0.222702 0.18669 0.189518 0.189518 0.266867 0.339803 0.307225 
0.314063 0.314063 0.284873 0.219493 0.303758 0.248936 0.280757 0.280757 0.244662 
0.216951 0.26089 0.211006 0.211006 0.209454 0.26859 0.314674 0.421088 0.467587 
0.686993 0.337938 0.296917 0.322892 0.350456 0.369871 0.366505 0.363164 0.324969 
0.344689 0.31853 0.271236 0.271236 0.268653 0.281392 0.298578 0.306498 0.254051 
0.262595 0.171855 0.115336 0.120875 0.0780358 0.0684584 0.0676318 0.123131 0.173423 
0.310345 0.233862 0.182704 0.21194 0.249443 0.284227 0.334155 0.364339 0.287693 
0.174901 0.192038 0.135319 0.176196 0.25581 0.275363 0.245125 0.245125 0.247998 
0.247998 0.300196 0.246766 0.248586 0.165867 0.0796332 0.0737315 0.0508723 0.027184 
0.0365024 0.076915 0.0743405 0.0958039 0.108606 0.0957736 0.098227 0.187698 0.241542 
0.358155 0.321967 0.319266 0.296888 0.320613 0.337149 0.244716 0.216246 0.200484 
0.117493 0.157236 0.242544 0.219601 0.242145 0.146281 0.14249 0.14249 0.141873 
0.120819 0.138487 0.135848 0.188574 0.235841 0.256126 0.256126 0.166416 0.18831 
0.18831 0.205076 0.236172 0.227181 0.293966 0.338548 0.334591 0.23304 0.201911 
0.175158 0.123845 0.144686 0.0800069 0.165003 0.324648 0.327931 0.175754 0.185301 
0.131242 0.104701 0.190834 0.220962 0.215702 0.174379 0.0388499 0.0937146 0.0788701 
0.116514 0.168816 0.18433 0.15775 0.198533 0.127485 0.118747 0.0898402 0.186336 
0.210206 0.195239 0.115316 0.146461 0.121695 0.042473 0.0635603 0.134288 0.0782986 
0.0935412 0.0935412 0.12151 0.12143 0.0459399 0.0890204 0.0666292 0.0291394 0.0285396 
0.122433 0.215867 0.283185 0.256494 0.245382 0.173512 0.234951 0.187169 0.156789 
0.156789 0.141886 0.149812 0.177551 0.167345 0.133575 0.113226 0.17309 0.139285 
0.139285 0.243913 0.274479 0.208587 0.23324 0.361514 0.361514 0.458046 0.45257 
0.361565 0.27771 0.333018 0.266861 
WidthEq 1 292 double
4.54186 5.57534 2.07557 5.18616 2.53856 4.69433 1.39267 1.26123 1.60306 
2.32404 2.4349 2.00129 3.14814 2.49185 2.32892 1.73697 2.15856 1.9234 
2.12955 2.3924 2.60923 2.66147 2.5963 2.58211 2.60156 2.59155 2.53902 
2.28235 1.58967 1.85413 1.98833 2.14576 2.56985 2.24417 2.25251 2.42373 
2.71338 2.06087 1.76632 1.52472 1.38309 1.53975 1.53527 2.23867 2.26469 
2.04405 2.00467 2.41088 2.48815 2.55812 2.41974 2.35924 1.94484 1.80098 
1.76806 1.46524 1.37703 1.32766 1.31599 1.11971 1 1.24125 1.22783 
1.62106 1.97078 2.30201 3.37359 3.41348 3.27183 3.56158 3.97743 3.73055 
3.55847 3.13999 2.61902 2.81243 2.8057 3.04029 2.72789 2.50047 2.31425 
2.32951 2.40361 2.37917 2.38722 2.44201 2.27068 2.21157 2.62694 2.51922 
2.75024 2.86802 3.10989 3.37032 3.39411 3.39411 3.21964 3.10935 3.07756 
2.83183 2.83183 2.81581 2.71647 2.72996 2.72765 2.65251 2.65251 2.66085 
2.65843 2.5783 2.7173 2.7173 2.68137 2.68035 2.61041 2.52273 2.22458 
1.98519 2.33058 2.40292 2.37228 2.28103 2.17782 2.15566 2.16245 2.23427 
2.14871 2.24049 2.31213 2.31213 2.34542 2.35894 2.29463 2.42956 2.65658 
2.63727 3.25694 3.44088 3.34158 3.84036 4.28277 4.78445 5.05491 4.47521 
3.36213 3.09379 2.68781 2.52534 2.42915 2.45588 2.28261 2.39374 2.54801 
2.80235 2.89029 3.05135 2.86985 2.78359 2.79856 2.8131 2.8131 3.10017 
3.10017 3.12217 3.51999 3.57749 4.15356 4.63587 5.03889 2.60966 2.69396 
3.33777 3.8344 4.00541 4.18951 4.22034 4.23754 3.95323 3.46076 4.05311 
3.75325 3.78021 3.80578 3.92471 3.8347 3.80097 3.55409 3.60341 3.54607 
3.48152 3.54556 3.48254 3.48184 3.48949 3.55474 3.54583 3.54583 3.57837 
3.44796 3.42548 3.61779 3.54613 3.5821 3.84672 3.84672 4.08617 3.9422 
3.9422 3.76985 3.66018 3.56531 3.41515 3.26603 3.18187 3.38875 3.5347 
3.71888 4.43878 4.51245 5.0508 4.23528 3.31902 3.13669 3.23308 3.31679 
3.69041 4.34555 4.26807 4.1087 4.23928 4.49233 5.17183 4.69521 4.47696 
4.04584 3.95173 3.95401 4.30007 4.10229 4.75061 5.27555 5.4714 2.4122 
2.81493 3.37364 3.48809 3.59627 3.7309 3.86223 3.81122 3.50693 3.71008 
3.48152 3.48152 3.28385 3.09435 3.25262 3.32331 4.36334 5.33782 5.63632 
4.63919 3.89445 3.37292 3.19104 2.97553 3.00142 2.83832 2.85166 3.15598 
3.15598 3.31194 3.6085 3.54371 3.65392 3.75765 3.65395 3.4489 3.58162 
3.58162 3.09827 2.77683 2.90124 2.78724 2.53709 2.53709 2.38159 2.51672 
2.81681 3.43084 3.41931 3.7244 
rRFP 1 292 double
3923.05 4308.26 3003.79 4163.2 3176.36 3979.88 2749.25 2700.26 2827.67 
3096.4 3137.72 2976.1 3403.57 3158.95 3098.22 2877.58 3034.72 2947.07 
3023.91 3121.88 3202.7 3222.17 3197.88 3192.59 3199.84 3196.11 3176.53 
3080.86 2822.68 2921.25 2971.27 3029.95 3188.02 3066.63 3069.74 3133.56 
3241.52 2998.31 2888.52 2798.47 2745.68 2804.07 2802.4 3064.58 3074.28 
2992.04 2977.36 3128.77 3157.57 3183.65 3132.07 3109.52 2955.06 2901.44 
2889.17 2776.3 2743.42 2725.02 2720.67 2647.51 2602.89 2692.81 2687.81 
2834.38 2964.73 3088.19 3487.6 3502.47 3449.67 3557.67 3712.67 3620.65 
3556.51 3400.53 3206.35 3278.44 3275.93 3363.37 3246.93 3162.16 3092.75 
3098.44 3126.06 3116.95 3119.95 3140.37 3076.51 3054.48 3209.3 3169.15 
3255.26 3299.16 3389.31 3486.38 3495.25 3495.25 3430.22 3389.11 3377.26 
3285.67 3285.67 3279.7 3242.67 3247.7 3246.84 3218.83 3218.83 3221.94 
3221.04 3191.17 3242.98 3242.98 3229.59 3229.21 3203.14 3170.46 3059.33 
2970.1 3098.84 3125.8 3114.38 3080.37 3041.9 3033.64 3036.17 3062.94 
3031.05 3065.26 3091.96 3091.96 3104.37 3109.41 3085.44 3135.73 3220.35 
3213.15 3444.12 3512.68 3475.67 3661.58 3826.48 4013.47 4114.28 3898.21 
3483.33 3383.31 3231.99 3171.43 3135.58 3145.54 3080.96 3122.38 3179.88 
3274.68 3307.46 3367.49 3299.84 3267.69 3273.27 3278.69 3278.69 3385.69 
3385.69 3393.89 3542.17 3563.6 3778.32 3958.09 4108.31 3202.86 3234.28 
3474.25 3659.36 3723.1 3791.72 3803.21 3809.62 3703.65 3520.09 3740.88 
3629.11 3639.16 3648.69 3693.02 3659.47 3646.9 3554.88 3573.26 3551.89 
3527.83 3551.7 3528.21 3527.95 3530.8 3555.12 3551.8 3551.8 3563.93 
3515.32 3506.94 3578.62 3551.91 3565.32 3663.95 3663.95 3753.2 3699.54 
3699.54 3635.3 3594.42 3559.06 3503.09 3447.51 3416.14 3493.25 3547.65 
3616.3 3884.63 3912.09 4112.75 3808.78 3467.26 3399.3 3435.23 3466.43 
3605.69 3849.88 3821 3761.6 3810.27 3904.59 4157.86 3980.21 3898.86 
3738.17 3703.09 3703.94 3832.93 3759.21 4000.86 4196.52 4269.52 3129.26 
3279.37 3487.62 3530.28 3570.6 3620.78 3669.73 3650.72 3537.3 3613.02 
3527.83 3527.83 3454.15 3383.52 3442.51 3468.86 3856.51 4219.73 4330.99 
3959.33 3681.74 3487.35 3419.56 3339.23 3348.88 3288.09 3293.06 3406.49 
3406.49 3464.62 3575.16 3551.01 3592.09 3630.75 3592.1 3515.67 3565.14 
3565.14 3384.98 3265.17 3311.54 3269.05 3175.81 3175.81 3117.85 3168.22 
3280.07 3508.94 3504.64 3618.36 
rGFP 1 292 double
3049.48 3016.37 2690.49 2946.81 2861.1 3031.98 2468.48 2790.02 2910.05 
2796.73 2803.85 2840.2 2981.32 2851.59 2893.22 2859.25 2956.04 2970.59 
2989.72 2985.54 3006.16 2972.17 2925.96 2928.43 2910.86 2933.36 2903.25 
2861.94 2791.19 2727.56 2799.17 2759.74 2812.41 2882.88 2902.17 2932.67 
2931.01 2856.11 2818.36 2763.74 2760.79 2762.01 2789.74 2842.25 2865.68 
2872.28 2858.36 2824.27 2814.05 2836.31 2854.49 2860.33 2814.62 2807.44 
2810.94 2758.32 2725.09 2732.22 2631.25 2638.09 2638.88 2617.47 2631.9 
2655.89 2691.33 2753.49 3052.46 3053.56 3067.33 3070.04 3045.37 3067.83 
3011.53 2999.3 3002.77 3029.49 3049.93 3053.31 3011.57 2912.32 2818.28 
2835.46 2817.01 2834.4 2832.53 2815.06 2819.78 2833.28 2818.52 2842.93 
2830.52 2867.91 2849.11 2861.9 2868.36 2868.36 2906.09 2946.17 2912.91 
2869.91 2869.91 2844.81 2778.54 2842.25 2801.9 2810.86 2810.86 2786.81 
2766.72 2783.17 2772.53 2772.53 2765.3 2807.42 2826.53 2880.8 2840.9 
2899.95 2785.59 2774.06 2784.58 2783.09 2772.95 2766.3 2765.81 2758.19 
2752.32 2755.59 2740.67 2740.67 2745.26 2755.79 2754.15 2785.42 2792.7 
2795.2 2830.43 2807.95 2798.51 2827.58 2876.3 2941.62 3052.2 3027.1 
2971.49 2855.53 2747.21 2740.46 2748.36 2775.98 2773.49 2815.35 2795.83 
2760.02 2787.37 2767.81 2771.86 2817.1 2834.43 2814.46 2814.46 2868.35 
2868.35 2915.8 2942.85 2954.93 2967.16 2936.84 2983.43 2642.69 2636.42 
2722.81 2825.63 2845.89 2894.53 2913.25 2901.2 2864.1 2877.65 3033.1 
3096.36 3065.51 3067.88 3068.14 3075.02 3085.06 2947.04 2928.51 2903.75 
2815.84 2862.75 2932.19 2910.75 2933.06 2853.79 2848.84 2848.84 2853.2 
2814.02 2826.88 2853.37 2892.49 2943.58 3011.23 3011.23 2957.09 2957.31 
2957.31 2945.86 2957.72 2932.37 2967 2977.15 2956.59 2906.83 2903.19 
2907.57 2962.54 2998.47 2993.48 2979.12 2975.67 2941.83 2829.98 2851.9 
2859.75 2926.63 3013.72 3020.46 3037.1 3030.99 2953.07 2962.51 2914.43 
2896.83 2938.32 2955.05 2981.04 2994.8 3013.02 3078.44 3064.78 2704.68 
2788.56 2870.14 2814.77 2860.32 2856.28 2793.88 2808.93 2835.25 2810.27 
2793.59 2793.59 2790.62 2762.8 2720.46 2767.59 2884.83 2959.89 2995.35 
2990.27 2978.1 2949.17 2891.96 2843.81 2790.9 2811.28 2777.28 2801.6 
2801.6 2812.74 2865.42 2881.67 2889.51 2872.11 2836.75 2862.26 2851.22 
2851.22 2864.63 2829.7 2801.99 2800.98 2843.72 2843.72 2872.33 2900.58 
2902.64 2955.14 3003.43 2999.59 
bkstRFP 1 292 double
1692.89 2078.1 773.631 1933.04 946.201 1749.72 519.091 470.101 597.511 
866.241 907.561 745.941 1173.41 928.791 868.061 647.421 804.561 716.911 
793.751 891.721 972.541 992.011 967.721 962.431 969.681 965.951 946.371 
850.701 592.521 691.091 741.111 799.791 957.861 836.471 839.581 903.401 
1011.36 768.151 658.361 568.311 515.521 573.911 572.241 834.421 844.121 
761.881 747.201 898.611 927.411 953.491 901.911 879.361 724.901 671.281 
659.011 546.141 513.261 494.861 490.511 417.351 372.731 462.651 457.651 
604.221 734.571 858.031 1257.44 1272.31 1219.51 1327.51 1482.51 1390.49 
1326.35 1170.37 976.191 1048.28 1045.77 1133.21 1016.77 932.001 862.591 
868.281 895.901 886.791 889.791 910.211 846.351 824.321 979.141 938.991 
1025.1 1069 1159.15 1256.22 1265.09 1265.09 1200.06 1158.95 1147.1 
1055.51 1055.51 1049.54 1012.51 1017.54 1016.68 988.671 988.671 991.781 
990.881 961.011 1012.82 1012.82 999.431 999.051 972.981 940.301 829.171 
739.941 868.681 895.641 884.221 850.211 811.741 803.481 806.011 832.781 
800.891 835.101 861.801 861.801 874.211 879.251 855.281 905.571 990.191 
982.991 1213.96 1282.52 1245.51 1431.42 1596.32 1783.31 1884.12 1668.05 
1253.17 1153.15 1001.83 941.271 905.421 915.381 850.801 892.221 949.721 
1044.52 1077.3 1137.33 1069.68 1037.53 1043.11 1048.53 1048.53 1155.53 
1155.53 1163.73 1312.01 1333.44 1548.16 1727.93 1878.15 972.701 1004.12 
1244.09 1429.2 1492.94 1561.56 1573.05 1579.46 1473.49 1289.93 1510.72 
1398.95 1409 1418.53 1462.86 1429.31 1416.74 1324.72 1343.1 1321.73 
1297.67 1321.54 1298.05 1297.79 1300.64 1324.96 1321.64 1321.64 1333.77 
1285.16 1276.78 1348.46 1321.75 1335.16 1433.79 1433.79 1523.04 1469.38 
1469.38 1405.14 1364.26 1328.9 1272.93 1217.35 1185.98 1263.09 1317.49 
1386.14 1654.47 1681.93 1882.59 1578.62 1237.1 1169.14 1205.07 1236.27 
1375.53 1619.72 1590.84 1531.44 1580.11 1674.43 1927.7 1750.05 1668.7 
1508.01 1472.93 1473.78 1602.77 1529.05 1770.7 1966.36 2039.36 899.101 
1049.21 1257.46 1300.12 1340.44 1390.62 1439.57 1420.56 1307.14 1382.86 
1297.67 1297.67 1223.99 1153.36 1212.35 1238.7 1626.35 1989.57 2100.83 
1729.17 1451.58 1257.19 1189.4 1109.07 1118.72 1057.93 1062.9 1176.33 
1176.33 1234.46 1345 1320.85 1361.93 1400.59 1361.94 1285.51 1334.98 
1334.98 1154.82 1035.01 1081.38 1038.89 945.651 945.651 887.691 938.061 
1049.91 1278.78 1274.48 1388.2 
bkstGFP 1 292 double
739.821 706.711 380.831 637.151 551.441 722.321 158.821 480.361 600.391 
487.071 494.191 530.541 671.661 541.931 583.561 549.591 646.381 660.931 
680.061 675.881 696.501 662.511 616.301 618.771 601.201 623.701 593.591 
552.281 481.531 417.901 489.511 450.081 502.751 573.221 592.511 623.011 
621.351 546.451 508.701 454.081 451.131 452.351 480.081 532.591 556.021 
562.621 548.701 514.611 504.391 526.651 544.831 550.671 504.961 497.781 
501.281 448.661 415.431 422.561 321.591 328.431 329.221 307.811 322.241 
346.231 381.671 443.831 742.801 743.901 757.671 760.381 735.711 758.171 
701.871 689.641 693.111 719.831 740.271 743.651 701.911 602.661 508.621 
525.801 507.351 524.741 522.871 505.401 510.121 523.621 508.861 533.271 
520.861 558.251 539.451 552.241 558.701 558.701 596.431 636.511 603.251 
560.251 560.251 535.151 468.881 532.591 492.241 501.201 501.201 477.151 
457.061 473.511 462.871 462.871 455.641 497.761 516.871 571.141 531.241 
590.291 475.931 464.401 474.921 473.431 463.291 456.641 456.151 448.531 
442.661 445.931 431.011 431.011 435.601 446.131 444.491 475.761 483.041 
485.541 520.771 498.291 488.851 517.921 566.641 631.961 742.541 717.441 
661.831 545.871 437.551 430.801 438.701 466.321 463.831 505.691 486.171 
450.361 477.711 458.151 462.201 507.441 524.771 504.801 504.801 558.691 
558.691 606.141 633.191 645.271 657.501 627.181 673.771 333.031 326.761 
413.151 515.971 536.231 584.871 603.591 591.541 554.441 567.991 723.441 
786.701 755.851 758.221 758.481 765.361 775.401 637.381 618.851 594.091 
506.181 553.091 622.531 601.091 623.401 544.131 539.181 539.181 543.541 
504.361 517.221 543.711 582.831 633.921 701.571 701.571 647.431 647.651 
647.651 636.201 648.061 622.711 657.341 667.491 646.931 597.171 593.531 
597.911 652.881 688.811 683.821 669.461 666.011 632.171 520.321 542.241 
550.091 616.971 704.061 710.801 727.441 721.331 643.411 652.851 604.771 
587.171 628.661 645.391 671.381 685.141 703.361 768.781 755.121 395.021 
478.901 560.481 505.111 550.661 546.621 484.221 499.271 525.591 500.611 
483.931 483.931 480.961 453.141 410.801 457.931 575.171 650.231 685.691 
680.611 668.441 639.511 582.301 534.151 481.241 501.621 467.621 491.941 
491.941 503.081 555.761 572.011 579.851 562.451 527.091 552.601 541.561 
541.561 554.971 520.041 492.331 491.321 534.061 534.061 562.671 590.921 
592.981 645.481 693.771 689.931 
tubeWidth 1 292 double
0.279429 0.245937 0.125941 0.196655 0.285421 0.289823 0.0800371 0.21439 0.14435 
0.192345 0.304253 0.218526 0.226857 0.281338 0.112172 0.107949 0.119619 0.141068 
0.19451 0.219122 0.239717 0.237508 0.246302 0.261366 0.230412 0.21329 0.252082 
0.254494 0.11976 0.101884 0.14543 0.208759 0.229082 0.100553 0.0985092 0.117335 
0.108554 0.227515 0.148624 0.0994797 0.104536 0.108966 0.10932 0.181586 0.24395 
0.19262 0.117511 0.184129 0.185753 0.183731 0.184096 0.220514 0.232602 0.255318 
0.159699 0.231418 0.14979 0.128407 0.15744 0.160823 0.144119 0.110586 0.0604358 
0.110768 0.160895 0.0777974 0.20593 0.20109 0.208996 0.222704 0.255733 0.279501 
0.232779 0.214931 0.20907 0.252362 0.25016 0.188928 0.19139 0.223197 0.161889 
0.193911 0.238292 0.249353 0.229071 0.219993 0.221345 0.249745 0.251389 0.274707 
0.323865 0.31529 0.291274 0.304282 0.280166 0.250069 0.285691 0.289795 0.274801 
0.294406 0.287384 0.311534 0.286493 0.269254 0.272033 0.240639 0.218921 0.221342 
0.194869 0.2034 0.235197 0.194114 0.232742 0.26362 0.247771 0.242335 0.227267 
0.239606 0.255235 0.258211 0.251725 0.242504 0.239049 0.260588 0.273151 0.217994 
0.196632 0.200579 0.210205 0.221609 0.226522 0.270071 0.232027 0.185682 0.240908 
0.252982 0.250286 0.223388 0.262625 0.217464 0.22858 0.228994 0.325197 0.212972 
0.216462 0.179913 0.242565 0.233515 0.244301 0.241631 0.213685 0.19733 0.170901 
0.197979 0.239206 0.262189 0.246068 0.215764 0.173692 0.163176 0.220168 0.260463 
0.282416 0.281557 0.255931 0.282983 0.256561 0.257984 0.268658 0.19322 0.194039 
0.25148 0.277426 0.283686 0.268052 0.228199 0.267077 0.314456 0.344159 0.24729 
0.254496 0.271437 0.310128 0.250559 0.292607 0.274641 0.299912 0.29346 0.27386 
0.295562 0.29339 0.297383 0.262064 0.271159 0.284087 0.250738 0.264073 0.257576 
0.244147 0.219695 0.251951 0.257406 0.258739 0.278394 0.25136 0.249483 0.23742 
0.227971 0.23214 0.227787 0.224686 0.245185 0.244949 0.220445 0.221032 0.248704 
0.212036 0.204775 0.251988 0.145056 0.215537 0.221003 0.1564 0.212364 0.170977 
0.26404 0.296691 0.238959 0.223895 0.271474 0.275243 0.224995 0.228636 0.228279 
0.226302 0.214012 0.243005 0.228676 0.21445 0.23861 0.190496 0.24273 0.219786 
0.268471 0.268512 0.246813 0.223848 0.219709 0.264022 0.275146 0.263104 0.250399 
0.281449 0.254434 0.248217 0.200357 0.176096 0.2165 0.222436 0.238607 0.31138 
0.171422 0.102206 0.145601 0.186845 0.192799 0.221646 0.218902 0.22931 0.245659 
0.249298 0.292885 0.316521 0.343629 0.351959 0.323329 0.227791 0.180092 0.248197 
0.298237 0.276805 0.250917 0.2543 0.242516 0.245819 0.234483 0.204097 0.157199 
0.157459 0.202686 0.239739 0.27772 
