# vtk DataFile Version 3.0
vtk output
ASCII
DATASET POLYDATA
POINTS 488 float
0.646582 0.830105 0.973132 3.28864 0.65678 0.228396 5.87535 -0.237416 0.401002 
5.67941 -0.269083 0.241812 0.208326 1.10405 -0.437997 3.333 0.44263 -0.284929 
3.19426 -0.445855 -0.10613 4.28128 -0.614192 -0.0991208 -0.676431 -0.350244 -0.00469128 
6.79877 -1.12082 -0.497068 4.03937 -0.694526 -0.764893 -0.570815 -1.26338 -0.3358 
1.88903 -1.48453 -0.439564 4.77309 -0.723945 -1.32481 5.74635 -1.03004 -1.3694 
4.62816 -1.49152 -0.734259 6.08345 -1.19764 -1.28083 4.33961 -1.04796 -1.42257 
4.90505 -0.884246 -1.47004 5.21486 -1.87314 -0.763579 4.611 -0.68812 -1.64507 
4.96182 -0.774766 -1.89264 5.92147 -0.737688 -1.94187 5.41053 -1.14678 -1.57964 
5.88585 -1.30915 -1.51011 5.61308 -1.62197 -1.24604 -0.369973 -1.01283 -1.29778 
-0.292397 -1.20461 -1.24629 5.43955 -0.859141 -2.04897 4.95134 -1.24216 -1.70875 
-0.201597 -1.22913 -1.23478 -0.130291 -1.25104 -1.21689 -0.0773372 -1.27536 -1.1921 
-0.0150107 -1.30362 -1.18396 0.0476931 -1.32892 -1.17188 0.0995075 -1.35446 -1.14915 
0.165832 -1.36581 -1.12004 0.240161 -1.37808 -1.10041 0.315419 -1.39414 -1.08734 
0.389385 -1.41905 -1.08608 0.460385 -1.45348 -1.09595 0.519208 -1.50531 -1.11931 
0.555565 -1.57028 -1.13967 0.592321 -1.6251 -1.1491 0.649156 -1.64179 -1.14283 
0.712001 -1.62129 -1.11861 0.785177 -1.60225 -1.07585 0.861144 -1.59545 -1.03354 
0.927318 -1.60676 -1.00445 0.977548 -1.63294 -0.981057 1.03155 -1.66165 -0.965474 
1.08083 -1.68643 -0.943022 1.14119 -1.68922 -0.919681 1.20478 -1.66426 -0.889601 
1.27805 -1.64518 -0.846878 1.35628 -1.6332 -0.799395 1.43387 -1.62564 -0.757822 
1.50718 -1.60644 -0.7152 1.57213 -1.57498 -0.680831 1.63954 -1.5473 -0.643915 
1.70218 -1.52095 -0.614774 1.76516 -1.50593 -0.567897 1.82056 -1.49912 -0.504751 
4.95768 -1.11406 -1.63815 4.93062 -0.99945 -1.55379 4.90365 -1.26133 -1.68917 
4.85507 -1.27919 -1.67048 4.80151 -1.28977 -1.6567 4.73955 -1.28801 -1.65123 
4.67923 -1.28865 -1.64414 4.61204 -1.27386 -1.63857 4.54653 -1.24675 -1.61686 
4.4897 -1.20705 -1.5614 4.4222 -1.13451 -1.49454 5.02564 -1.25663 -1.69676 
5.09546 -1.25381 -1.67865 5.15486 -1.21958 -1.65506 5.21484 -1.18084 -1.62559 
5.2856 -1.16327 -1.59076 5.35442 -1.15898 -1.57365 5.44507 -1.00223 -2.10036 
5.43833 -1.12236 -2.13973 5.43854 -1.2033 -2.14417 5.43034 -1.24483 -2.08431 
5.42051 -1.24119 -1.95591 5.41428 -1.20281 -1.77961 5.34724 -0.833938 -2.05773 
5.26791 -0.808823 -2.05856 5.20104 -0.784862 -2.04131 5.14915 -0.76762 -1.99591 
5.09747 -0.752699 -1.94878 5.03261 -0.745557 -1.91916 5.50436 -0.822955 -2.08316 
5.56454 -0.807136 -2.10159 5.63226 -0.815138 -2.10302 5.70079 -0.82103 -2.09682 
5.7647 -0.804167 -2.07928 5.83936 -0.77621 -2.0248 4.98585 -0.779989 -1.75821 
4.9862 -0.784807 -1.63389 4.97252 -0.801513 -1.53318 4.94674 -0.84017 -1.47975 
-0.33812 -1.17569 -1.10193 -0.370287 -1.16814 -0.992589 -0.408443 -1.17485 -0.933852 
-0.446781 -1.19531 -0.892653 -0.472223 -1.231 -0.835288 -0.489907 -1.26194 -0.754454 
-0.505401 -1.28535 -0.660916 -0.520496 -1.29861 -0.556445 -0.540117 -1.29448 -0.445914 
-0.286302 -1.10954 -1.27789 -0.311982 -1.04828 -1.29307 -0.346826 -0.936187 -1.32054 
-0.321738 -0.846278 -1.32559 -0.29471 -0.743096 -1.3129 -0.266335 -0.631158 -1.28836 
-0.238357 -0.52937 -1.27474 -0.207348 -0.448144 -1.27392 -0.170568 -0.396865 -1.28848 
-0.137572 -0.350776 -1.31731 -0.101727 -0.314236 -1.34859 -0.0677813 -0.269539 -1.37648 
-0.0250793 -0.226944 -1.38518 0.019612 -0.171153 -1.37612 0.0583946 -0.101319 -1.36762 
0.104041 -0.0469294 -1.35761 0.152664 -0.0130165 -1.36046 0.200891 0.0107404 -1.37423 
0.24847 0.0300727 -1.39392 0.295154 0.0507191 -1.41449 0.33692 0.0785762 -1.43992 
0.371223 0.117376 -1.47272 0.413043 0.145153 -1.4981 0.460677 0.164406 -1.51773 
0.514124 0.175135 -1.53161 0.575087 0.174842 -1.53807 0.628589 0.185492 -1.5519 
0.677172 0.203351 -1.57059 0.724914 0.222446 -1.59012 0.773498 0.240306 -1.60881 
0.826999 0.250955 -1.62264 0.888011 0.25059 -1.62905 0.942522 0.25976 -1.64188 
0.997928 0.267616 -1.65383 1.06481 0.258647 -1.65444 1.13163 0.249757 -1.6551 
1.18614 0.258926 -1.66793 1.23638 0.279738 -1.67972 1.29193 0.303495 -1.67573 
1.35772 0.328341 -1.64581 1.42167 0.361271 -1.61243 1.48847 0.384645 -1.58152 
1.55079 0.398477 -1.57083 1.61986 0.397042 -1.55874 1.68874 0.40126 -1.54157 
1.74867 0.440073 -1.51217 1.81024 0.497969 -1.46008 1.87995 0.565414 -1.37888 
1.93762 0.661253 -1.29903 1.97801 0.782443 -1.23627 2.01685 0.900515 -1.18031 
2.06742 0.996037 -1.11802 2.1254 1.08605 -1.04315 2.1908 1.17056 -0.955668 
2.26868 1.23678 -0.855854 2.34616 1.29282 -0.766968 2.41365 1.34205 -0.709032 
2.48115 1.36976 -0.672155 2.54287 1.37911 -0.667324 2.61036 1.3585 -0.677867 
2.68014 1.31287 -0.707077 2.74795 1.25645 -0.74657 2.80642 1.19199 -0.788314 
2.85009 1.12155 -0.823962 2.8972 1.05666 -0.85485 2.93081 0.994635 -0.867824 
2.95688 0.937883 -0.865344 2.98043 0.88428 -0.855654 2.9946 0.822718 -0.84827 
2.99563 0.755848 -0.835474 3.00915 0.689862 -0.833999 3.03196 0.631797 -0.83018 
3.05635 0.574369 -0.827011 3.08213 0.525828 -0.812062 3.10921 0.486129 -0.785304 
3.13822 0.459696 -0.740827 3.16917 0.44653 -0.67863 3.20077 0.437794 -0.610517 
3.23238 0.429052 -0.542411 3.26398 0.42031 -0.474306 3.29752 0.424834 -0.388481 
-0.418011 -0.977783 -1.22588 -0.472863 -0.927364 -1.15543 -0.523824 -0.87192 -1.07061 
-0.576736 -0.808235 -0.982448 -0.620192 -0.742311 -0.869142 -0.660708 -0.66458 -0.737122 
-0.699226 -0.568117 -0.582188 -0.713947 -0.492683 -0.395544 -0.706999 -0.424502 -0.19655 
5.64146 -1.5745 -1.28469 5.68132 -1.54384 -1.312 5.72203 -1.51444 -1.33848 
5.75533 -1.47416 -1.37228 5.79117 -1.43762 -1.40356 5.82352 -1.39596 -1.4383 
5.85842 -1.35803 -1.47052 5.86508 -1.20456 -1.44991 5.82522 -1.11159 -1.40369 
5.97961 -1.25049 -1.39401 5.49488 -1.09351 -1.47703 5.5732 -1.05082 -1.403 
5.64869 -1.02521 -1.37471 5.97011 -0.719907 -1.96051 6.02361 -0.709258 -1.97434 
6.08463 -0.709623 -1.98075 6.13973 -0.69595 -1.98773 6.19612 -0.673434 -1.98289 
6.26171 -0.642915 -1.9479 6.32328 -0.585019 -1.89582 6.3875 -0.509511 -1.82005 
6.45986 -0.44058 -1.73095 6.52975 -0.373753 -1.64931 6.60295 -0.333796 -1.57577 
6.66243 -0.317007 -1.50195 6.6936 -0.321659 -1.42757 6.73944 -0.328807 -1.37151 
6.77775 -0.347319 -1.32469 6.80677 -0.373752 -1.28021 6.82713 -0.403681 -1.23217 
6.84006 -0.444935 -1.19341 6.86927 -0.487931 -1.17371 6.87952 -0.546914 -1.15853 
6.89415 -0.604126 -1.14516 6.9043 -0.67147 -1.1423 6.88987 -0.76529 -1.15407 
6.86166 -0.879551 -1.1862 6.82592 -0.985884 -1.22343 6.77928 -1.05493 -1.25022 
6.72906 -1.09188 -1.25422 6.67396 -1.10556 -1.24724 6.60618 -1.09527 -1.24752 
6.53343 -1.07769 -1.25271 6.46464 -1.06592 -1.25399 6.40332 -1.0651 -1.24789 
6.33549 -1.05473 -1.24822 6.26813 -1.04876 -1.25152 6.2111 -1.07077 -1.25356 
6.15286 -1.12166 -1.26482 5.89509 -0.836445 -1.94865 5.86936 -0.930778 -1.94951 
5.84551 -1.01176 -1.93271 5.824 -1.06932 -1.88726 5.80165 -1.0917 -1.80923 
5.77549 -1.07729 -1.70259 5.75898 -1.05299 -1.55178 4.88268 -0.724105 -1.84449 
4.82682 -0.690439 -1.77998 4.77579 -0.669197 -1.72681 4.71654 -0.655059 -1.69995 
4.66085 -0.673272 -1.68487 4.56999 -0.664524 -1.58857 4.52478 -0.617489 -1.51202 
4.46312 -0.566343 -1.45996 4.39304 -0.523065 -1.4336 4.32193 -0.486401 -1.4161 
4.25697 -0.448026 -1.38199 4.20082 -0.411818 -1.32864 4.13886 -0.36173 -1.27575 
4.07875 -0.314349 -1.22104 4.03604 -0.292482 -1.14914 4.00755 -0.291469 -1.06318 
3.97843 -0.289526 -0.977841 3.95648 -0.308838 -0.895957 3.93765 -0.348668 -0.826918 
3.91815 -0.411251 -0.78722 3.90774 -0.478582 -0.763533 3.91959 -0.545244 -0.761368 
3.94407 -0.602634 -0.758238 3.98047 -0.65521 -0.760016 5.14025 -1.85266 -0.770746 
5.06722 -1.83154 -0.778563 5.00353 -1.80257 -0.783982 4.95517 -1.76078 -0.782117 
4.90063 -1.71819 -0.752301 4.84712 -1.68498 -0.706276 4.79268 -1.64235 -0.676499 
4.74607 -1.59984 -0.675359 4.69449 -1.56599 -0.685765 4.657 -1.5305 -0.708229 
6.11168 -1.27468 -1.2572 6.14972 -1.31846 -1.22859 6.20501 -1.32859 -1.18372 
6.25714 -1.33048 -1.12608 6.31554 -1.32839 -1.06902 6.36733 -1.33313 -1.01541 
6.42647 -1.32658 -0.952479 6.48252 -1.31295 -0.875923 6.55524 -1.28016 -0.787691 
6.63768 -1.23986 -0.696831 6.72309 -1.19026 -0.594712 4.83939 -0.801886 -1.39448 
4.25853 -0.990874 -1.33335 4.19418 -0.931086 -1.24335 4.14893 -0.8737 -1.13737 
4.11141 -0.815314 -1.01675 4.07536 -0.754877 -0.890846 1.95691 -1.49497 -0.43918 
2.01889 -1.49138 -0.439362 2.08961 -1.48987 -0.420372 2.16689 -1.4765 -0.373829 
2.24119 -1.44263 -0.314423 2.30441 -1.38179 -0.255442 2.36545 -1.32847 -0.209148 
2.43194 -1.29927 -0.173269 2.49389 -1.27953 -0.157673 2.55839 -1.26353 -0.139562 
2.61583 -1.22643 -0.117901 2.66889 -1.17752 -0.0952908 2.72015 -1.126 -0.0744596 
2.7658 -1.07161 -0.0644511 2.80463 -1.00185 -0.0559093 2.85092 -0.943035 -0.0399837 
2.90149 -0.895856 -0.0251153 2.9516 -0.858753 -0.0212246 3.00081 -0.820337 -0.0182195 
3.04551 -0.764547 -0.00915507 3.07842 -0.686109 -0.006453 3.10974 -0.610707 -0.0106071 
3.14561 -0.5581 -0.0260581 3.17269 -0.503335 -0.0607341 1.87846 -1.46683 -0.293746 
1.86233 -1.44634 -0.158705 1.83649 -1.42236 -0.0437762 1.81224 -1.40071 0.0727114 
1.77899 -1.37123 0.175042 1.74231 -1.33136 0.279245 1.70896 -1.30173 0.381473 
1.68211 -1.28163 0.490115 1.64094 -1.25665 0.568821 1.58482 -1.23123 0.611663 
1.53137 -1.24196 0.625543 1.47955 -1.28192 0.614706 1.42728 -1.33198 0.592874 
1.37417 -1.3808 0.570218 1.31673 -1.4179 0.548558 1.25024 -1.4471 0.512679 
1.18534 -1.47863 0.478358 1.11267 -1.4934 0.441645 1.03638 -1.49212 0.411882 
0.96009 -1.49083 0.382118 0.887424 -1.5056 0.345405 0.822469 -1.53706 0.311036 
0.755616 -1.56035 0.280069 0.693249 -1.57411 0.269336 0.623817 -1.56677 0.262151 
0.550059 -1.54772 0.255963 0.475406 -1.52736 0.248889 0.400699 -1.50691 0.241761 
0.325345 -1.49089 0.228724 0.248698 -1.48371 0.203878 0.17011 -1.4898 0.161311 
0.0908747 -1.50031 0.112829 0.012287 -1.5064 0.0702625 -0.064265 -1.49918 0.0453764 
-0.137948 -1.48248 0.0316509 -0.202236 -1.45783 0.0202294 -0.251819 -1.42723 0.00274751 
-0.306431 -1.40282 -0.0188373 -0.356282 -1.38481 -0.0547274 -0.414032 -1.38248 -0.105881 
-0.466376 -1.38212 -0.165446 -0.52236 -1.37907 -0.217328 -0.560025 -1.35614 -0.258239 
-0.577422 -1.31669 -0.295161 -0.622523 -1.16289 -0.247453 -0.663902 -1.06656 -0.175714 
-0.719309 -0.992542 -0.122888 -0.773305 -0.930435 -0.0891623 -0.796403 -0.864165 -0.0805217 
-0.785173 -0.779857 -0.0798525 -0.7613 -0.686276 -0.0782174 -0.734367 -0.583133 -0.0654928 
-0.706046 -0.47111 -0.0409972 4.0435 -0.685246 -0.642252 4.07989 -0.650439 -0.51438 
4.14102 -0.597309 -0.384362 4.19026 -0.561471 -0.26796 4.23404 -0.552809 -0.186354 
4.27533 -0.570116 -0.140761 6.8409 -0.996997 -0.42719 6.87079 -0.858523 -0.366928 
6.8882 -0.729567 -0.307479 6.87175 -0.624887 -0.244719 6.82464 -0.554531 -0.180767 
6.77354 -0.511508 -0.114486 6.72272 -0.482942 -0.0559968 6.68702 -0.482094 0.0122985 
6.64818 -0.482025 0.0722272 6.60592 -0.471563 0.134042 6.56191 -0.458532 0.194138 
6.51224 -0.442569 0.243354 6.45286 -0.423121 0.27245 6.39507 -0.405996 0.303113 
6.33022 -0.36778 0.33733 6.26194 -0.319158 0.373436 6.19704 -0.280863 0.407599 
6.13751 -0.266735 0.431404 6.06759 -0.251065 0.43662 5.98191 -0.239216 0.427838 
-0.598609 -0.283948 0.0950689 -0.533805 -0.203943 0.176686 -0.476058 -0.124322 0.240804 
-0.419012 -0.0490517 0.298951 -0.359043 0.0058268 0.344195 -0.292959 0.0409942 0.384942 
-0.236473 0.0794895 0.405663 -0.18828 0.135517 0.423459 -0.142875 0.201008 0.443767 
-0.0819629 0.249131 0.484673 -0.022944 0.305396 0.528969 0.0327547 0.37191 0.575261 
0.0898001 0.44718 0.633408 0.15171 0.515324 0.69637 0.221131 0.572449 0.766748 
0.282702 0.630351 0.818845 0.343626 0.683823 0.865023 0.41046 0.723263 0.911782 
0.469189 0.769214 0.94526 0.522658 0.812134 0.962999 0.579108 0.83457 0.967884 
3.3898 0.377493 -0.325984 3.43457 0.315823 -0.349735 3.4838 0.276757 -0.344449 
3.51363 0.267491 -0.275756 3.51452 0.283391 -0.148425 3.49436 0.32938 -0.00416009 
3.44436 0.403515 0.100629 3.38154 0.478965 0.16867 3.32487 0.55662 0.209632 
3.32111 0.545358 -0.0292298 0.248137 1.07366 -0.410312 0.303017 1.06185 -0.370319 
0.356654 1.07033 -0.298952 0.419027 1.099 -0.206482 0.477611 1.13039 -0.106359 
0.549358 1.16462 -0.0190832 0.624934 1.2096 0.0597275 0.695271 1.27058 0.136414 
0.773165 1.32065 0.220437 0.854684 1.35467 0.297511 0.935806 1.37853 0.363659 
1.01569 1.39346 0.418043 1.09487 1.40405 0.466465 1.17251 1.41153 0.508092 
1.24587 1.43065 0.550767 1.31173 1.46078 0.586027 1.38349 1.47688 0.62185 
1.45396 1.48412 0.645862 1.51788 1.50099 0.663395 1.59055 1.51576 0.700108 
1.66788 1.52906 0.746713 1.74049 1.54391 0.783373 1.80286 1.55767 0.794106 
1.86648 1.55886 0.795544 1.92691 1.55935 0.788558 1.99564 1.54767 0.789779 
2.06844 1.53001 0.795029 2.13718 1.51832 0.796251 2.1976 1.51882 0.789264 
2.26057 1.51558 0.784794 2.32036 1.51165 0.771898 2.3872 1.48662 0.755454 
2.45708 1.44104 0.726205 2.5272 1.38971 0.691923 2.59803 1.34273 0.663613 
2.6708 1.30902 0.653021 2.74486 1.28415 0.65424 2.81882 1.25924 0.655498 
2.88992 1.22485 0.645595 2.95042 1.1737 0.621539 2.99706 1.11277 0.597013 
3.05523 1.05652 0.56774 3.11325 0.998776 0.536503 3.15736 0.914017 0.480565 
3.21508 0.799236 0.374401 5.77112 -0.241323 0.331748 
LINES 30 552
35 27 30 31 32 33 34 35 36 37 38 39 40 41 42 43 44 45 46 47 48 49 50 51 52 53 54 55 56 57 58 59 60 61 62 12 
4 29 63 64 18 
8 29 74 75 76 77 78 79 23 
8 28 80 81 82 83 84 85 23 
8 28 86 87 88 89 90 91 21 
8 28 92 93 94 95 96 97 22 
6 21 98 99 100 101 18 
11 27 102 103 104 105 106 107 108 109 110 11 
4 27 111 112 26 
81 26 113 114 115 116 117 118 119 120 121 122 123 124 125 126 127 128 129 130 131 132 133 134 135 136 137 138 139 140 141 142 143 144 145 146 147 148 149 150 151 152 153 154 155 156 157 158 159 160 161 162 163 164 165 166 167 168 169 170 171 172 173 174 175 176 177 178 179 180 181 182 183 184 185 186 187 188 189 190 191 5 
11 26 192 193 194 195 196 197 198 199 200 8 
9 25 201 202 203 204 205 206 207 24 
4 24 208 209 14 
3 24 210 16 
5 23 211 212 213 14 
38 22 214 215 216 217 218 219 220 221 222 223 224 225 226 227 228 229 230 231 232 233 234 235 236 237 238 239 240 241 242 243 244 245 246 247 248 249 16 
9 22 250 251 252 253 254 255 256 14 
12 19 281 282 283 284 285 286 287 288 289 290 15 
3 18 302 13 
26 12 308 309 310 311 312 313 314 315 316 317 318 319 320 321 322 323 324 325 326 327 328 329 330 331 6 
46 12 332 333 334 335 336 337 338 339 340 341 342 343 344 345 346 347 348 349 350 351 352 353 354 355 356 357 358 359 360 361 362 363 364 365 366 367 368 369 370 371 372 373 374 375 11 
11 11 376 377 378 379 380 381 382 383 384 8 
8 10 385 386 387 388 389 390 7 
23 8 411 412 413 414 415 416 417 418 419 420 421 422 423 424 425 426 427 428 429 430 431 0 
11 5 432 433 434 435 436 437 438 439 440 1 
3 5 441 1 
47 4 442 443 444 445 446 447 448 449 450 451 452 453 454 455 456 457 458 459 460 461 462 463 464 465 466 467 468 469 470 471 472 473 474 475 476 477 478 479 480 481 482 483 484 485 486 1 
17 29 65 66 67 68 69 70 71 72 73 17 303 304 305 306 307 10 
27 21 257 258 259 260 261 20 262 263 264 265 266 267 268 269 270 271 272 273 274 275 276 277 278 279 280 10 
36 3 487 2 410 409 408 407 406 405 404 403 402 401 400 399 398 397 396 395 394 393 392 391 9 301 300 299 298 297 296 295 294 293 292 291 16 

POINT_DATA 488
SCALARS DY_raw double
LOOKUP_TABLE default
187.578 240.028 261.896 253.789 448.29 252.968 330.517 184.714 190.165 
262.344 219.516 183.73 131.48 360.963 315.541 406.556 284.337 238.264 
326.129 206.313 338.019 301.283 291.098 285.678 195.445 154.916 184.981 
180.753 361.023 285.769 209.284 226.994 243.745 228.458 214.208 248.106 
233.438 258.535 258.535 251.015 216.795 214.121 169.065 180.743 198.065 
209.63 207.183 217.538 272.946 227.943 227.943 204.704 164.977 162.263 
166.482 173.024 186.347 181.362 171.425 180.731 155.7 137.862 132.061 
317.504 342.419 285.769 281.243 258.831 258.831 248.104 223.151 242.165 
204.554 226.262 293.197 293.289 304.636 329.628 313.008 320.754 274.09 
270.89 295.572 296.748 304.274 291.671 352.693 351.454 364.297 331.977 
365.158 336.095 367.689 370.831 315.378 275.204 235.823 251.162 317.29 
328.003 325.176 338.877 195.079 208.128 212.102 209.718 197.762 166.831 
182.817 176.526 172.062 202.673 188.231 166.075 176.737 192.126 185.966 
185.728 177.992 184.001 171.603 147.058 147.058 142.644 156.446 169.53 
188.505 186.331 232.187 204.454 204.454 178.817 179.738 179.738 186.251 
227.639 227.639 252.79 252.79 238.025 314.565 314.565 338.362 273.869 
273.869 260.75 221.966 221.966 215.955 221.114 248.356 235.763 266.086 
232.024 253.253 227.163 232.163 190.357 194.735 162.546 180.584 190.322 
191.861 208.135 239.219 214.463 227.883 199.033 228.363 198.676 245.08 
218.965 239.417 243.31 259.334 212.926 191.713 179.219 192.808 175 
176.69 157.719 157.719 135.01 139.524 139.524 145.93 159.948 168.244 
172.019 187.793 225.053 193.075 224.694 182.365 182.872 196.895 222.867 
246.34 237.835 202.337 170.799 184.707 192.836 189.883 187.818 187.818 
183.755 245.982 306.341 265.713 368.873 331.593 314.394 251.831 249.621 
213.313 178.876 183.759 182.444 198.384 191.223 233.865 231.836 228.843 
212.572 218.268 205.646 230.624 209.295 242.493 220.451 220.716 208.583 
192.857 197.184 178.869 188.305 200.01 212.466 212.466 231.238 260.818 
260.818 258.37 248.06 248.06 272.084 262.457 272.268 229.129 224.939 
218.46 287.557 328.062 345.853 325.189 342.899 351.723 343.194 340.146 
330.743 358.755 376.682 360.181 326.244 326.244 272.806 271.974 301.653 
264.107 322.555 321.126 287.243 346.927 383.938 342.309 303.845 251.386 
251.386 223.708 229.804 245.489 219.592 204.864 212.588 256.939 267.99 
263.958 285.28 406.556 260.506 245.099 232.039 227.222 219.198 267.141 
244.352 174.301 189.23 204.032 203.42 319.148 263.642 278.917 271.766 
248.427 193.952 176.798 154.12 155.177 216.978 203.365 262.928 231.43 
259.362 238.802 222.081 247.089 261.066 282.219 281.814 254.871 276.941 
263.204 220.477 248.675 206.87 240.846 275.246 290.428 296.278 159.412 
190.07 179.947 221.278 237.401 219.201 281.823 269.58 207.253 214.014 
191.127 180.062 188.617 188.617 178.428 162.083 172.132 183.589 185.035 
203.476 225.442 232.421 195.033 183.935 196.368 195.018 180.782 218.595 
213.713 210.323 231.441 198.553 209.84 201.664 169.565 216.588 198.466 
198.466 187.476 168.696 127.402 122.208 122.208 142.781 211.729 177.439 
163.606 141.291 144.679 170.015 167.233 194.444 185.994 249.233 227.103 
248.542 233.807 194.432 216.387 320.416 315.494 257.556 247.601 257.42 
308.918 311.365 298.959 298.959 251.532 238.255 254.678 239.265 254.01 
293.725 289.61 245.268 256.053 268.812 274.474 196.939 194.172 160.148 
165.269 199.495 200.045 180.455 182.061 188.889 197.441 199.576 228.607 
187.822 203.511 209.704 194.062 219.484 209.645 213.604 156.556 169.152 
235.825 203.478 191.563 200.241 215.07 211.907 229.152 202.603 181.442 
216.071 321.185 282.094 301.703 260.586 305.02 263.976 236.051 207.459 
210.297 175.325 213.577 226.621 222.366 229.212 217.594 248.956 255.547 
258.385 251.494 259.243 273.346 295.15 276.849 282.382 263.039 228.068 
248.132 284.891 253.439 288.183 305.111 282.357 265.293 238.089 218.898 
242.104 225.303 271.363 247.507 261.669 244.64 184.671 207.931 243.883 
259.612 256.461 
FIELD FieldData 7
DY_minmax 1 488 double
0.200472 0.361319 0.428383 0.403523 1 0.401003 0.638823 0.19169 0.208404 
0.429758 0.298416 0.188671 0.0284342 0.732194 0.592898 0.872015 0.497204 0.355912 
0.625369 0.257927 0.661831 0.549171 0.517937 0.501315 0.224596 0.100305 0.192508 
0.179541 0.732378 0.501596 0.267037 0.321347 0.372719 0.32584 0.282137 0.386094 
0.341111 0.418076 0.418076 0.395015 0.29007 0.281872 0.143697 0.179511 0.232632 
0.268098 0.260594 0.292349 0.462272 0.324259 0.324259 0.252992 0.131161 0.122838 
0.135776 0.155838 0.196695 0.181408 0.150934 0.179473 0.102711 0.0480056 0.0302153 
0.598917 0.675324 0.501596 0.487716 0.418983 0.418983 0.386087 0.309563 0.367873 
0.252532 0.319104 0.524374 0.524658 0.559453 0.636098 0.585129 0.608884 0.465779 
0.455966 0.531659 0.535265 0.558344 0.519695 0.70683 0.703033 0.742417 0.6433 
0.745058 0.655929 0.75282 0.762456 0.592399 0.469194 0.348425 0.395466 0.598259 
0.631114 0.622446 0.664462 0.223476 0.263492 0.275679 0.268368 0.231703 0.136847 
0.185872 0.166579 0.152889 0.246762 0.202475 0.134527 0.167224 0.214418 0.195527 
0.194799 0.171072 0.189502 0.151482 0.0762093 0.0762093 0.0626711 0.105 0.145124 
0.203313 0.196648 0.337276 0.252226 0.252226 0.173605 0.176428 0.176428 0.196403 
0.323326 0.323326 0.400457 0.400457 0.355178 0.589904 0.589904 0.662883 0.4651 
0.4651 0.424869 0.305929 0.305929 0.287496 0.303317 0.386861 0.348239 0.441232 
0.336776 0.401877 0.321866 0.3372 0.208994 0.22242 0.123706 0.179022 0.208888 
0.213605 0.263514 0.358839 0.28292 0.324075 0.235601 0.325547 0.234504 0.376815 
0.296726 0.359448 0.371385 0.420526 0.278208 0.213151 0.174838 0.21651 0.161898 
0.167081 0.108901 0.108901 0.0392602 0.0531045 0.0531045 0.0727482 0.115738 0.141179 
0.152758 0.201131 0.315396 0.217329 0.314295 0.184486 0.186041 0.229044 0.308693 
0.380678 0.354595 0.245732 0.149014 0.191668 0.216596 0.207541 0.201208 0.201208 
0.188746 0.37958 0.564682 0.440089 0.756451 0.642123 0.589379 0.397515 0.390739 
0.279393 0.173786 0.18876 0.184727 0.23361 0.211649 0.34242 0.336199 0.327018 
0.277122 0.29459 0.25588 0.33248 0.267071 0.36888 0.301283 0.302096 0.264888 
0.216661 0.229931 0.173764 0.202701 0.238596 0.276797 0.276797 0.334365 0.425076 
0.425076 0.417571 0.385951 0.385951 0.459627 0.430105 0.460191 0.327897 0.315048 
0.295179 0.507078 0.631295 0.685855 0.622486 0.676797 0.703856 0.677699 0.668355 
0.639516 0.725422 0.780399 0.729794 0.62572 0.62572 0.461841 0.459289 0.550306 
0.435165 0.614405 0.610024 0.506116 0.689149 0.80265 0.674988 0.557027 0.396152 
0.396152 0.311271 0.329966 0.378067 0.298648 0.253483 0.277171 0.413181 0.447071 
0.434706 0.500097 0.872015 0.424122 0.376872 0.336821 0.322048 0.297442 0.444469 
0.374582 0.159753 0.205537 0.25093 0.249053 0.603959 0.433739 0.48058 0.458652 
0.387079 0.220018 0.167412 0.0978638 0.101108 0.290633 0.248886 0.431549 0.334952 
0.420613 0.35756 0.306281 0.382976 0.425839 0.490709 0.489466 0.40684 0.474522 
0.432393 0.301362 0.387839 0.259633 0.36383 0.469325 0.515883 0.533822 0.114095 
0.208114 0.17707 0.303819 0.353265 0.297449 0.489494 0.451947 0.26081 0.281542 
0.211354 0.17742 0.203659 0.203659 0.17241 0.122286 0.153104 0.188239 0.192673 
0.249226 0.316588 0.337993 0.223333 0.189299 0.227427 0.223289 0.17963 0.29559 
0.280621 0.270224 0.334988 0.234128 0.268744 0.243668 0.145231 0.289437 0.233861 
0.233861 0.200157 0.142566 0.0159299 0 0 0.0630925 0.274535 0.169378 
0.126957 0.058523 0.0689116 0.14661 0.13808 0.221528 0.195614 0.389548 0.321683 
0.387431 0.342244 0.221491 0.288821 0.607848 0.592754 0.415074 0.384543 0.414656 
0.572585 0.580092 0.542044 0.542044 0.396601 0.355882 0.406248 0.35898 0.404198 
0.525993 0.513375 0.37739 0.410463 0.449592 0.466957 0.229177 0.220694 0.116351 
0.132056 0.237017 0.238704 0.178628 0.183553 0.204493 0.230719 0.237265 0.326295 
0.201219 0.249332 0.268326 0.220354 0.298318 0.268146 0.280285 0.105336 0.143964 
0.34843 0.249234 0.212691 0.239304 0.284781 0.275083 0.327967 0.246548 0.181653 
0.287851 0.610205 0.490325 0.550459 0.424365 0.560633 0.434762 0.349123 0.261442 
0.270144 0.162895 0.280203 0.320204 0.307157 0.32815 0.292523 0.388699 0.408914 
0.417616 0.396483 0.420249 0.463498 0.530364 0.47424 0.491209 0.431887 0.324642 
0.386172 0.498902 0.402449 0.508997 0.56091 0.49113 0.438802 0.355375 0.296521 
0.367687 0.316163 0.457417 0.384257 0.427688 0.375463 0.191558 0.262889 0.373143 
0.421378 0.411716 
WidthEq 1 488 double
1.80405 2.58908 1.91767 1.50928 1 2.39283 1.86596 3.71368 2.95149 
3.24494 3.41051 2.55233 3.43444 1.9789 3.19793 1.73147 3.28954 3.22281 
2.41278 1.7725 2.54134 2.33797 2.66027 3.15177 3.15895 2.43713 2.58415 
2.74679 2.07505 3.66414 2.73246 2.68417 2.49667 2.54572 2.44422 2.25835 
2.38256 2.18075 2.18075 2.17409 2.46348 2.56831 2.84589 2.73947 2.51584 
2.38468 2.4056 2.27501 2.02978 2.31773 2.31773 2.38686 2.47701 2.5341 
2.54064 2.50416 2.45537 2.49799 2.68304 2.64548 2.98844 3.28481 3.39163 
3.15772 2.84161 3.66414 3.69986 3.43723 3.43723 2.84381 2.69338 2.7471 
3.04501 3.29569 3.47678 3.44418 3.44106 3.21796 3.2803 3.25181 2.32201 
2.22304 2.01967 2.14529 2.36514 3.07802 1.90407 1.71584 1.62016 1.91498 
1.96808 2.16076 2.04912 2.01714 2.21664 2.36076 2.66399 2.74663 2.28145 
2.20702 2.30623 2.34097 2.53369 2.32991 2.24416 2.32798 2.39287 2.49869 
2.45157 2.38367 2.51821 2.63859 2.5805 2.23032 2.12259 2.2708 2.2573 
2.25862 2.50967 2.587 2.61475 2.61712 2.61712 2.53758 2.39175 2.20722 
2.05905 2.00315 2.03478 2.13343 2.13343 2.09342 2.04025 2.04025 1.95134 
1.79108 1.79108 1.73575 1.73575 1.70146 1.71491 1.71491 1.72289 1.96572 
1.96572 2.13914 2.35298 2.35298 2.41092 2.37592 2.30222 2.26206 2.14581 
2.25239 2.37008 2.66228 2.89965 3.52117 3.5881 4.36202 4.40737 4.23902 
4.04992 3.74641 3.08032 2.7345 2.82039 2.9477 2.77199 2.91526 2.48563 
2.46697 2.22331 2.11841 2.00305 2.22326 2.32989 2.499 2.71249 2.85212 
2.85206 2.89262 2.89262 2.82364 2.67695 2.67695 2.21744 2.17102 2.02783 
2.09947 2.08133 2.13785 2.45122 2.27176 2.17113 2.32359 2.41413 2.28733 
2.14675 2.34982 2.91687 2.74054 2.79951 3.0122 3.1483 3.66897 3.66897 
3.7709 3.42956 3.24178 3.25667 2.81189 2.97721 3.11374 2.81273 2.76047 
2.71535 2.79607 2.84013 3.00585 3.0388 3.06993 2.93114 3.05936 3.05852 
2.88227 2.63474 2.67713 2.53855 2.61851 2.49595 2.83229 3.02162 3.06132 
3.57798 3.76414 3.87031 3.64005 3.29659 3.14219 3.14219 2.9717 2.84505 
2.84505 2.89093 2.8629 2.8629 2.85272 3.06911 3.23894 2.64231 2.56642 
2.32688 2.03055 2.11195 2.41819 2.76362 2.27067 2.28711 2.31374 2.38197 
2.47364 2.55099 2.51637 2.5776 2.75202 2.75202 3.14513 3.06103 2.9042 
2.75494 2.41317 2.20839 1.94922 1.78447 1.75547 1.88809 2.54291 3.08199 
3.08199 3.58754 1.97425 2.32528 2.66868 2.81679 2.79846 2.59813 2.49879 
2.4782 2.2928 1.73147 3.37896 3.35219 3.32345 3.17337 3.02835 2.87818 
2.78851 2.85243 3.17878 3.53783 3.88355 2.24112 2.94122 2.58059 2.48758 
2.72575 3.40755 2.78182 2.85428 2.59071 2.1309 2.25506 1.92102 2.04589 
2.02069 2.13885 2.21757 2.21491 2.3296 2.29747 2.23914 2.2695 2.22123 
2.23853 2.41422 2.32339 2.39503 2.4022 2.22226 2.1008 2.08254 3.31154 
3.11259 3.02067 2.67176 2.65348 2.68147 2.30432 2.32265 2.83421 2.75132 
2.97687 2.96165 2.77185 2.77185 2.61008 2.29537 2.21864 2.06858 2.09106 
2.00977 1.92507 1.9382 2.1542 2.19632 2.05889 2.10078 2.05673 1.85338 
1.90625 1.97211 1.86242 1.98501 1.7448 1.67353 1.73933 1.54321 1.55054 
1.55054 1.70278 1.76726 2.01378 2.48347 2.48347 2.59698 2.3506 2.43357 
2.48151 2.52238 2.70772 2.61666 2.76847 2.87954 3.03429 3.13133 2.65461 
2.53591 2.88703 3.58341 3.45764 2.53133 2.20961 2.37156 2.5689 2.64708 
2.21858 2.15294 2.18137 2.18137 2.42927 2.5014 2.4637 2.34811 2.26775 
1.98591 1.93305 1.88096 1.8877 1.88347 1.8977 2.78336 2.78567 2.75052 
2.68478 2.63816 2.59317 2.3116 2.16746 2.19112 2.04309 1.85749 1.88135 
1.89951 1.8232 1.97283 2.11804 2.14198 2.24622 2.18587 2.29151 2.13098 
2.42341 2.23046 2.23791 2.22248 2.51551 2.831 2.82756 3.00741 3.04021 
2.50654 1.93453 2.36566 2.20078 2.58591 2.21592 1.97078 1.71298 1.79042 
2.01605 2.2744 2.19466 2.18316 2.13342 1.76156 1.80699 1.63133 1.55235 
1.56576 1.46218 1.47444 1.46539 1.50327 1.57653 1.60562 1.64782 1.68248 
1.65876 1.57516 1.64114 1.60409 1.61781 1.73865 1.80627 1.82049 1.74794 
1.7768 1.75142 1.74825 1.78322 1.76448 1.80985 2.1535 2.21222 2.2455 
2.35113 1.75414 
rRFP 1 488 double
3171.81 3575.16 3230.19 3020.36 2758.69 3474.33 3203.62 4152.98 3761.37 
3912.14 3997.21 3556.28 4009.51 3261.65 3887.99 3134.52 3935.06 3900.77 
3484.58 3155.6 3550.63 3446.14 3611.74 3864.27 3867.96 3497.09 3572.63 
3656.19 3311.05 4127.53 3648.83 3624.02 3527.68 3552.88 3500.73 3405.23 
3469.05 3365.36 3365.36 3361.94 3510.63 3564.49 3707.11 3652.43 3537.53 
3470.14 3480.89 3413.79 3287.79 3435.74 3435.74 3471.26 3517.58 3546.91 
3550.27 3531.53 3506.46 3528.36 3623.44 3604.14 3780.35 3932.63 3987.51 
3867.33 3704.91 4127.53 4145.88 4010.94 4010.94 3706.04 3628.75 3656.35 
3809.42 3938.22 4031.26 4014.51 4012.91 3898.28 3930.31 3915.67 3437.94 
3387.09 3282.6 3347.14 3460.1 3826.38 3223.2 3126.49 3077.33 3228.81 
3256.09 3355.09 3297.73 3281.3 3383.8 3457.85 3613.65 3656.11 3417.1 
3378.86 3429.83 3447.68 3546.7 3442 3397.94 3441.01 3474.35 3528.72 
3504.51 3469.62 3538.75 3600.6 3570.75 3390.83 3335.48 3411.63 3404.69 
3405.37 3534.36 3574.09 3588.35 3589.57 3589.57 3548.7 3473.77 3378.96 
3302.83 3274.11 3290.36 3341.05 3341.05 3320.49 3293.17 3293.17 3247.49 
3165.15 3165.15 3136.72 3136.72 3119.1 3126.01 3126.01 3130.11 3254.88 
3254.88 3343.98 3453.85 3453.85 3483.62 3465.64 3427.77 3407.14 3347.41 
3402.17 3462.64 3612.77 3734.73 4054.07 4088.46 4486.1 4509.4 4422.9 
4325.74 4169.8 3827.56 3649.88 3694.01 3759.42 3669.14 3742.75 3522.01 
3512.42 3387.23 3333.33 3274.06 3387.2 3441.99 3528.88 3638.57 3710.31 
3710.28 3731.12 3731.12 3695.68 3620.31 3620.31 3384.21 3360.36 3286.79 
3323.6 3314.28 3343.32 3504.33 3412.12 3360.42 3438.75 3485.27 3420.12 
3347.89 3452.23 3743.58 3652.98 3683.28 3792.56 3862.49 4130.01 4130.01 
4182.38 4007 3910.52 3918.17 3689.64 3774.58 3844.73 3690.07 3663.22 
3640.04 3681.51 3704.15 3789.3 3806.23 3822.22 3750.91 3816.79 3816.36 
3725.8 3598.62 3620.4 3549.2 3590.28 3527.31 3700.12 3797.4 3817.8 
4083.26 4178.91 4233.46 4115.15 3938.68 3859.35 3859.35 3771.75 3706.68 
3706.68 3730.25 3715.85 3715.85 3710.62 3821.8 3909.06 3602.51 3563.52 
3440.44 3288.19 3330.01 3487.36 3664.84 3411.56 3420.01 3433.69 3468.75 
3515.85 3555.59 3537.8 3569.26 3658.88 3658.88 3860.86 3817.65 3737.07 
3660.38 3484.78 3379.56 3246.4 3161.75 3146.85 3214.99 3551.44 3828.42 