# vtk DataFile Version 3.0
vtk output
ASCII
DATASET POLYDATA
POINTS 471 float
1.12 0.862263 1.44792 2.00536 0.879522 1.49637 -0.172241 0.400651 1.20932 
0.17056 0.496978 1.23407 -0.188802 -0.00909153 0.925449 2.77524 1.3235 0.506008 
-0.36067 0.0318051 0.705016 3.05472 1.22922 0.302563 0.116752 -0.270379 0.579661 
-0.418388 -0.705275 0.523842 -0.621915 -1.22302 0.306719 -0.20793 -0.890852 -0.258906 
-0.60423 -1.35533 -0.218991 -0.778072 -0.252709 -0.806548 -0.643049 -0.467304 -0.700044 
-0.0514443 -1.57381 -0.377742 -0.196688 -1.07744 -0.980464 0.400038 -2.15239 -0.305231 
3.78604 -0.615448 -0.791065 1.81308 -2.77032 0.0666132 -0.608197 -1.41602 -0.998968 
2.83658 -0.775983 -1.615 3.00397 -0.786918 -1.42319 1.95218 -1.35359 -1.23156 
2.69469 -1.18055 -1.35763 3.28242 -0.924239 -1.34282 3.03055 -1.22373 -1.2956 
0.937029 -2.4963 -0.921557 -0.270455 -1.5483 -1.50433 2.45496 -1.2676 -1.459 
4.26611 -0.914751 -1.47215 4.56579 -1.29886 -1.31045 0.718075 -1.04735 -1.89021 
2.87378 -1.5908 -1.50509 4.47774 -0.918196 -1.70994 2.02846 -1.46488 -1.83653 
0.684978 -1.53074 -2.11216 5.01834 -1.09249 -2.03642 5.12487 -1.03776 -2.25646 
5.11559 -1.07918 -2.18719 5.07006 -1.09394 -2.11198 5.06264 -1.01413 -2.28549 
5.00629 -1.02567 -2.26138 4.97667 -1.05938 -2.19487 4.97526 -1.08805 -2.11459 
4.99358 -1.17639 -2.07312 4.95438 -1.22061 -2.07175 4.91087 -1.23885 -2.01726 
4.87127 -1.24898 -1.91729 4.8238 -1.24422 -1.81645 4.77232 -1.23308 -1.71879 
4.72614 -1.23753 -1.63814 4.68825 -1.25994 -1.56508 4.64431 -1.27511 -1.50387 
4.59997 -1.2825 -1.42176 0.693307 -1.46548 -2.13325 0.688772 -1.39725 -2.13204 
0.694934 -1.30346 -2.09289 0.706784 -1.1835 -2.00822 0.63717 -1.55649 -2.10345 
0.589361 -1.58225 -2.09474 0.541125 -1.60494 -2.0793 0.492086 -1.62157 -2.05037 
0.442229 -1.62735 -1.99381 0.395993 -1.63171 -1.9132 0.35629 -1.64168 -1.81332 
0.309106 -1.64454 -1.73346 0.253396 -1.64101 -1.68152 0.191013 -1.63644 -1.66312 
0.135917 -1.64822 -1.65308 0.0799273 -1.65859 -1.64376 0.0115831 -1.64454 -1.63005 
-0.0589389 -1.61987 -1.59687 -0.123404 -1.60242 -1.55183 -0.194932 -1.57615 -1.51944 
0.75879 -1.5463 -2.10036 0.827746 -1.55416 -2.09239 0.889267 -1.55019 -2.09029 
0.958228 -1.55805 -2.08231 1.03209 -1.57371 -2.07047 1.1068 -1.5907 -2.05797 
1.18066 -1.60635 -2.04612 1.24957 -1.61413 -2.03819 1.31014 -1.60865 -2.03684 
1.37319 -1.60712 -2.03352 1.43282 -1.60014 -2.03292 1.49581 -1.59852 -2.02965 
1.55544 -1.59154 -2.02904 1.61844 -1.58993 -2.02577 1.67806 -1.58294 -2.02516 
1.74106 -1.58133 -2.02189 1.80063 -1.57426 -2.02132 1.8623 -1.56816 -2.01203 
1.91531 -1.5411 -1.98838 1.96702 -1.50004 -1.93043 2.07632 -1.43921 -1.8452 
2.12465 -1.41189 -1.84643 2.17708 -1.38631 -1.8303 2.23626 -1.36183 -1.78062 
2.29333 -1.32324 -1.70489 2.36436 -1.29002 -1.59319 2.00134 -1.43337 -1.63243 
1.9793 -1.3851 -1.43565 4.4053 -0.873746 -1.6288 4.34818 -0.863201 -1.56385 
4.30458 -0.883707 -1.51649 2.84021 -1.66322 -1.47419 2.79746 -1.70556 -1.45759 
2.7504 -1.73376 -1.44772 2.70262 -1.75964 -1.43895 2.65487 -1.78549 -1.43019 
2.60801 -1.81275 -1.42073 2.56605 -1.84781 -1.40741 2.53153 -1.89469 -1.38821 
2.48958 -1.92976 -1.37488 2.4431 -1.96002 -1.37219 2.39568 -1.99355 -1.38437 
2.34458 -2.02842 -1.42064 2.28648 -2.05454 -1.46952 2.23538 -2.08942 -1.50579 
2.18796 -2.12295 -1.51797 2.14148 -2.15321 -1.51528 2.09952 -2.18827 -1.50195 
2.065 -2.23515 -1.48275 2.02311 -2.27031 -1.46938 1.97715 -2.299 -1.45921 
1.93429 -2.33263 -1.4466 1.89392 -2.37021 -1.43202 1.83867 -2.38415 -1.42917 
1.78596 -2.40211 -1.42433 1.73726 -2.42644 -1.41633 1.68897 -2.44905 -1.40093 
1.63988 -2.4656 -1.37204 1.5895 -2.47294 -1.32296 1.53864 -2.47712 -1.26719 
1.48732 -2.48295 -1.21887 1.43237 -2.49019 -1.19459 1.37079 -2.49168 -1.18967 
1.31617 -2.50662 -1.18633 1.26151 -2.52149 -1.18303 1.19898 -2.52145 -1.17886 
1.13799 -2.51843 -1.15694 1.07196 -2.50021 -1.10964 1.00777 -2.49075 -1.02833 
2.95601 -1.53892 -1.41208 2.99564 -1.45396 -1.35317 3.01517 -1.34829 -1.31858 
2.82754 -1.55541 -1.58477 2.79847 -1.48945 -1.58992 2.76923 -1.36161 -1.50214 
0.7446 -0.975813 -1.88038 0.784693 -0.933016 -1.88105 0.830602 -0.904238 -1.89126 
0.873884 -0.873677 -1.91061 0.913826 -0.833027 -1.91845 0.969073 -0.819091 -1.9213 
1.02221 -0.804199 -1.93287 1.0722 -0.78907 -1.96106 1.12097 -0.769621 -1.98313 
1.17016 -0.74844 -1.99783 1.22382 -0.731984 -2.00192 1.28492 -0.727358 -2.00015 
1.33864 -0.710987 -2.0042 1.38834 -0.688242 -2.01141 1.44206 -0.671879 -2.01546 
1.50316 -0.667245 -2.01369 1.55682 -0.650789 -2.01778 1.60558 -0.626537 -2.02575 
1.65349 -0.600951 -2.03437 1.70231 -0.576784 -2.04229 1.75692 -0.561842 -2.04564 
1.82393 -0.566596 -2.0392 1.89183 -0.572777 -2.03206 1.95235 -0.567215 -2.03075 
2.01545 -0.565773 -2.02739 2.07597 -0.56021 -2.02608 2.14393 -0.566477 -2.0189 
2.21194 -0.572823 -2.01168 2.27335 -0.568696 -2.00965 2.34131 -0.574956 -2.00247 
2.40837 -0.579795 -1.996 2.46379 -0.566547 -1.99852 2.51568 -0.55202 -1.99368 
2.56157 -0.560378 -1.96249 2.58408 -0.58379 -1.90144 2.62465 -0.596177 -1.83611 
2.66823 -0.610368 -1.77793 2.71904 -0.630016 -1.73964 2.75673 -0.663365 -1.70734 
2.79145 -0.710671 -1.66887 0.664702 -1.0332 -1.79403 0.613042 -1.03133 -1.72478 
0.563521 -1.04481 -1.68916 0.515284 -1.0675 -1.67371 0.467476 -1.09325 -1.665 
0.419613 -1.11893 -1.65634 0.370857 -1.14318 -1.64837 0.316768 -1.15656 -1.63755 
0.254379 -1.15198 -1.61914 0.19815 -1.15002 -1.57469 0.14597 -1.14971 -1.5129 
0.0942545 -1.14776 -1.44368 0.0425936 -1.14589 -1.37441 -0.00926417 -1.14298 -1.30292 
-0.0628488 -1.13374 -1.21812 -0.123348 -1.11202 -1.10955 4.20358 -0.902772 -1.43266 
4.13818 -0.881459 -1.3813 4.06555 -0.843868 -1.32151 3.992 -0.797658 -1.24126 
3.92383 -0.748041 -1.12142 3.85183 -0.680394 -0.96929 0.840118 -2.4378 -0.851116 
0.759372 -2.38867 -0.772641 0.69245 -2.35505 -0.688934 0.623444 -2.31453 -0.600354 
0.556881 -2.27703 -0.507513 0.481126 -2.22015 -0.407807 2.4119 -1.2724 -1.28013 
2.36093 -1.26104 -1.14991 2.30373 -1.24924 -1.07738 2.24096 -1.24173 -1.05218 
2.18681 -1.25502 -1.0414 2.13748 -1.28075 -1.04096 2.08448 -1.30781 -1.06461 
2.02037 -1.32917 -1.13233 2.56039 -1.22125 -1.41286 2.67469 -1.106 -1.45351 
2.68212 -1.043 -1.52373 2.70256 -0.980684 -1.56788 2.73077 -0.919568 -1.5921 
2.77619 -0.860085 -1.60167 2.92487 -0.750423 -1.63409 2.99007 -0.751024 -1.61173 
3.01443 -0.766169 -1.53638 -0.259977 -1.39207 -1.34115 -0.239446 -1.23418 -1.16721 
-0.311539 -1.55368 -1.39846 -0.371482 -1.5348 -1.3239 -0.43608 -1.5109 -1.25192 
-0.515276 -1.46563 -1.14712 0.921749 -2.52756 -0.756028 0.917911 -2.54065 -0.611661 
0.90304 -2.55914 -0.484544 0.891587 -2.58765 -0.385274 0.90533 -2.61461 -0.315009 
0.941411 -2.64274 -0.275415 1.00357 -2.66342 -0.253867 1.07661 -2.68154 -0.240954 
1.15132 -2.69875 -0.228346 1.22571 -2.71284 -0.209026 1.29924 -2.72079 -0.176255 
1.37143 -2.71945 -0.123345 1.4423 -2.71362 -0.0644006 1.50864 -2.70297 -0.016107 
1.56792 -2.68829 0.00542929 1.6305 -2.68383 0.0155337 1.6893 -2.6793 0.0172115 
1.74607 -2.69362 0.0273533 1.78426 -2.72849 0.0456956 2.93798 -1.16447 -1.19881 
2.86607 -1.14705 -1.16007 2.78938 -1.15713 -1.22171 3.08592 -1.15154 -1.28968 
3.12486 -1.08743 -1.29198 3.16704 -1.04703 -1.29686 3.2128 -1.01708 -1.30489 
3.25375 -0.980422 -1.31901 3.24627 -0.909345 -1.40901 3.19558 -0.89239 -1.45259 
3.14564 -0.858525 -1.46306 3.07957 -0.823451 -1.45064 3.35042 -0.930584 -1.3356 
3.41189 -0.926535 -1.33354 3.4808 -0.934309 -1.32561 3.55323 -0.945301 -1.30782 
3.61943 -0.939204 -1.27377 3.66981 -0.893644 -1.2098 3.71134 -0.817292 -1.10335 
3.74936 -0.721017 -0.957275 1.89975 -1.34095 -1.13463 1.853 -1.34688 -1.06151 
1.81092 -1.37218 -1.02002 1.75519 -1.38297 -1.01048 1.70115 -1.39643 -0.99962 
1.64664 -1.40675 -0.982074 1.5891 -1.40988 -0.959839 1.54245 -1.43508 -0.943151 
1.48668 -1.45058 -0.947785 1.43477 -1.4746 -0.956437 1.38558 -1.49578 -0.941744 
1.33463 -1.5046 -0.90019 1.27798 -1.49956 -0.848994 1.21425 -1.4857 -0.810447 
1.15836 -1.49143 -0.786922 1.10327 -1.50322 -0.776888 1.04116 -1.50626 -0.779455 
0.981592 -1.51333 -0.780019 0.918593 -1.51494 -0.783291 0.859025 -1.52201 -0.783856 
0.796973 -1.52513 -0.78638 0.742829 -1.53843 -0.775598 0.693218 -1.55654 -0.754184 
0.644017 -1.57292 -0.725376 0.594833 -1.5941 -0.710683 0.541546 -1.61354 -0.713361 
0.480777 -1.62587 -0.736067 0.42212 -1.63916 -0.75004 0.360496 -1.64535 -0.759295 
0.306352 -1.65865 -0.748513 0.256258 -1.67361 -0.72041 0.204317 -1.67628 -0.66541 
0.143418 -1.65872 -0.587585 0.0586948 -1.61561 -0.490313 2.92537 -0.786205 -1.50518 
-0.628003 -1.43617 -0.838797 -0.62461 -1.42364 -0.662148 -0.613084 -1.39023 -0.453738 
-0.658825 -1.34766 -1.00619 -0.682239 -1.29316 -1.03255 -0.673355 -1.24158 -1.08542 
-0.654501 -1.18598 -1.1395 -0.644154 -1.12294 -1.1676 -0.64903 -1.0516 -1.15968 
-0.642536 -0.960924 -1.12724 -0.630651 -0.854152 -1.06918 -0.628009 -0.735852 -0.976181 
-0.640677 -0.609301 -0.847149 3.7873 -0.523527 -0.612723 3.80388 -0.413032 -0.441881 
3.81301 -0.290707 -0.27691 3.80924 -0.191176 -0.102361 3.8071 -0.101205 0.0766542 
3.80692 -0.0119651 0.256128 3.76905 0.0588761 0.441599 3.70677 0.125609 0.619233 
3.62967 0.204134 0.774236 3.55316 0.271789 0.901615 3.48484 0.316856 1.0072 
3.41123 0.358395 1.07327 3.33531 0.394031 1.10927 3.26512 0.411013 1.12152 
3.20323 0.410035 1.12619 3.13484 0.419365 1.12574 3.0665 0.433413 1.13944 
3.00837 0.438393 1.1824 2.95065 0.445114 1.23276 2.88593 0.460566 1.27052 
2.82418 0.464134 1.28943 2.7558 0.473472 1.28898 2.68779 0.479817 1.28176 
2.62642 0.47582 1.27968 2.55913 0.484583 1.2714 2.4952 0.508891 1.2644 
2.4427 0.547857 1.26774 2.37568 0.589017 1.29363 2.29921 0.631691 1.33454 
2.22285 0.674417 1.37543 2.15708 0.719556 1.40774 2.11359 0.773397 1.42934 
2.06977 0.830357 1.45765 0.371165 -2.11048 -0.326191 0.332112 -2.07405 -0.345297 
0.27112 -2.04944 -0.360405 0.208022 -2.02267 -0.368477 0.155734 -1.98347 -0.365223 
0.0921739 -1.94045 -0.339969 0.0385464 -1.88877 -0.309863 0.0200285 -1.81817 -0.286162 
-0.000471378 -1.75517 -0.275444 -0.0261478 -1.70003 -0.277759 -0.0456823 -1.64553 -0.312027 
0.378806 -2.218 -0.268489 0.356664 -2.27738 -0.218338 0.332236 -2.32596 -0.148797 
0.300206 -2.35768 -0.0711159 0.249493 -2.35732 -0.00110428 0.184541 -2.33432 0.057676 
0.120222 -2.31234 0.116947 0.047559 -2.27688 0.169552 -0.0284813 -2.2327 0.217957 
-0.0962077 -2.18543 0.257328 -0.148285 -2.13622 0.28049 -0.201877 -2.09772 0.283981 
-0.239767 -2.05737 0.271316 -0.268449 -2.01535 0.250321 -0.296073 -1.96947 0.235785 
-0.32604 -1.91824 0.234972 -0.365974 -1.86249 0.255922 -0.419514 -1.81076 0.286012 
-0.459448 -1.75501 0.306962 -0.489414 -1.70379 0.306148 -0.516943 -1.65785 0.291595 
-0.543947 -1.61493 0.270294 -0.570952 -1.57201 0.248994 -0.598256 -1.52584 0.234347 
-0.624419 -1.46713 0.23852 -0.637994 -1.3728 0.268007 -0.198463 -0.990985 -0.729145 
-0.209827 -0.936008 -0.485809 -0.109928 -1.42432 -0.270251 -0.140666 -1.3092 -0.186078 
-0.13922 -1.21528 -0.147289 -0.131908 -1.14383 -0.154948 -0.134056 -1.09412 -0.194081 
-0.124933 -1.04824 -0.255216 -0.127027 -1.0018 -0.301003 -0.166894 -0.955915 -0.300013 
-0.158316 -1.60888 -0.474565 -0.236223 -1.63395 -0.541481 -0.292627 -1.65699 -0.559031 
-0.349263 -1.66414 -0.543054 -0.420288 -1.63514 -0.500996 -0.497091 -1.57906 -0.430883 
-0.564012 -1.4887 -0.32957 -0.641575 -1.30269 0.0427845 -0.682469 -0.414571 -0.685831 
-0.723585 -0.372656 -0.691266 -0.736992 -0.325713 -0.721696 -0.754029 -0.287324 -0.76476 
-0.659634 -0.444598 -0.491257 -0.644145 -0.404498 -0.288365 -0.595744 -0.344764 -0.0923378 
-0.540331 -0.26963 0.0998282 -0.490518 -0.177044 0.291834 -0.430904 -0.0812754 0.496598 
-0.581495 -1.26702 0.0384808 -0.278638 -0.815702 -0.0774904 -0.325606 -0.778281 0.12265 
-0.366775 -0.750077 0.327365 -0.582201 -1.02864 0.506006 -0.560424 -0.873749 0.648762 
-0.54241 -0.765801 0.706683 -0.515084 -0.704896 0.688791 -0.470706 -0.692803 0.62085 
-0.401377 -0.570833 0.667479 -0.373888 -0.464995 0.784041 -0.340176 -0.390551 0.84193 
-0.292179 -0.357922 0.854571 -0.25343 -0.319604 0.833024 -0.218927 -0.264493 0.832909 
-0.198347 -0.161797 0.867284 0.0299171 -0.181541 0.721182 -0.0673999 -0.0966751 0.837754 
2.97573 1.26258 0.331244 2.88592 1.29862 0.397167 -0.266896 0.0170866 0.806858 
-0.340262 0.199287 0.882723 -0.305995 0.314511 1.03078 -0.252553 0.378553 1.13273 
-0.179615 0.199427 1.0636 0.233941 0.538238 1.23355 0.281672 0.589484 1.25602 
0.328976 0.626293 1.27078 0.381504 0.651214 1.28518 0.442272 0.663543 1.30789 
0.499272 0.689027 1.34881 0.559329 0.712047 1.39923 0.617281 0.736018 1.44091 
0.683897 0.739053 1.46823 0.750475 0.73737 1.48139 0.805143 0.752226 1.47809 
0.854901 0.774886 1.47092 0.908616 0.791257 1.46687 0.96972 0.795883 1.46864 
1.02338 0.812339 1.46455 1.07214 0.836591 1.45658 0.0784698 0.509707 1.23667 
-0.00141935 0.532937 1.25837 -0.0590186 0.520331 1.26726 -0.11187 0.475245 1.2498 

LINES 48 579
12 37 45 46 47 48 49 50 51 52 53 54 31 
6 36 55 56 57 58 32 
18 36 59 60 61 62 63 64 65 66 67 68 69 70 71 72 73 74 28 
22 36 75 76 77 78 79 80 81 82 83 84 85 86 87 88 89 90 91 92 93 94 35 
8 35 95 96 97 98 99 100 29 
4 35 101 102 23 
40 33 106 107 108 109 110 111 112 113 114 115 116 117 118 119 120 121 122 123 124 125 126 127 128 129 130 131 132 133 134 135 136 137 138 139 140 141 142 143 27 
5 33 144 145 146 26 
5 33 147 148 149 24 
42 32 150 151 152 153 154 155 156 157 158 159 160 161 162 163 164 165 166 167 168 169 170 171 172 173 174 175 176 177 178 179 180 181 182 183 184 185 186 187 188 189 21 
18 32 190 191 192 193 194 195 196 197 198 199 200 201 202 203 204 205 16 
8 27 212 213 214 215 216 217 17 
10 29 218 219 220 221 222 223 224 225 23 
3 29 226 24 
7 24 227 228 229 230 231 21 
5 21 232 233 234 22 
4 28 235 236 16 
6 28 237 238 239 240 20 
21 27 241 242 243 244 245 246 247 248 249 250 251 252 253 254 255 256 257 258 259 19 
5 26 260 261 262 24 
7 26 263 264 265 266 267 25 
6 25 268 269 270 271 22 
10 25 272 273 274 275 276 277 278 279 18 
36 23 280 281 282 283 284 285 286 287 288 289 290 291 292 293 294 295 296 297 298 299 300 301 302 303 304 305 306 307 308 309 310 311 312 313 15 
3 22 314 21 
5 20 315 316 317 12 
12 20 318 319 320 321 322 323 324 325 326 327 14 
35 18 328 329 330 331 332 333 334 335 336 337 338 339 340 341 342 343 344 345 346 347 348 349 350 351 352 353 354 355 356 357 358 359 360 1 
13 17 361 362 363 364 365 366 367 368 369 370 371 15 
28 17 372 373 374 375 376 377 378 379 380 381 382 383 384 385 386 387 388 389 390 391 392 393 394 395 396 397 10 
4 16 398 399 11 
10 15 400 401 402 403 404 405 406 407 11 
9 15 408 409 410 411 412 413 414 12 
3 12 415 10 
6 14 416 417 418 419 13 
8 14 420 421 422 423 424 425 6 
3 12 426 10 
5 11 427 428 429 9 
7 10 430 431 432 433 434 9 
9 9 435 436 437 438 439 440 441 4 
4 8 442 443 4 
4 7 444 445 5 
3 6 446 4 
5 6 447 448 449 2 
3 4 450 2 
9 37 40 39 38 41 42 43 44 37 
12 34 103 104 105 30 206 207 208 209 210 211 18 
23 0 466 465 464 463 462 461 460 459 458 457 456 455 454 453 452 451 3 467 468 469 470 2 

POINT_DATA 471
SCALARS DY_raw double
LOOKUP_TABLE default
304.346 458.53 338.137 287.57 309.247 291.825 402.281 510.963 346.264 
327.633 403.095 342.443 396.57 652.838 382.766 432.747 334.935 421.39 
336.073 306.672 276.762 317.793 511.376 367.224 324.213 472.264 332.671 
323.23 279.912 332.7 550.232 263.211 345.5 320.762 564.911 313.107 
344.075 332.7 513.607 475.494 442.345 584.027 529.155 414.7 340.242 
276.387 276.387 249.461 228.938 252.364 279.528 249.452 253.134 262.121 
239.677 356.088 372.156 388.594 345.621 344.075 332.569 315.729 326.608 
327.334 350.896 407.346 422.488 454.232 424.271 389.415 389.415 364.471 
304.066 295.146 303.63 346.517 371.393 353.633 383.794 377.777 377.777 
397.663 358.382 291.951 355.934 294.345 314.645 303.154 303.154 282.463 
302.672 267.283 274.673 258.832 281.04 313.107 322.63 323.434 345.17 
325.902 326.903 372.998 343.494 583.919 586.506 534.627 314.837 321.802 
324.654 316.478 303.25 312.233 328.654 328.654 408.087 426.306 426.306 
422.501 392.206 366.668 342.148 342.148 323.13 329.756 329.756 314.807 
298.925 298.925 273.958 273.958 270.826 280.71 280.71 310.71 334.389 
363.583 309.528 308.64 341.531 299.579 288.43 303.809 307.696 331.62 
301.738 349.449 350.901 328.036 351.932 342.319 358.752 372.196 397.847 
355.235 382.223 388.067 356.896 380.873 375.412 375.412 378.526 394.703 
394.703 348.613 363.581 363.581 371.898 371.898 331.71 347.159 347.159 
333.484 404.104 350.48 462.803 451.475 451.475 458.826 404.452 404.452 
356.905 356.905 330.946 316.464 309.624 328.997 322.797 314.792 304.395 
323.354 362.961 400.306 444.542 451.57 451.57 413.314 392.913 392.913 
376.288 397.884 398.154 399.586 419.938 381.21 368.672 346.535 462.461 
530.428 473.816 385.527 411.837 375.551 378.709 440.555 477.063 437.82 
473.941 393.899 312.91 348.292 383.43 367.904 345.186 352.459 352.459 
333.941 312.421 362.962 375.967 347.371 312.149 312.061 372.392 406.148 
428.573 321.317 321.98 262.958 262.686 271.883 268.946 331.78 324.906 
364.193 368.988 315.842 315.842 300.746 297.876 297.876 231.117 267.137 
267.137 297.124 278.63 297.389 314.003 309.219 323.788 306.672 375.945 
404.091 366.184 301.388 298.087 289.583 312.401 366.208 371.894 375.927 
471.7 395.856 418.003 466.099 397.206 397.685 338.121 347.142 344.047 
334.151 323.393 303.592 303.592 310.119 329.566 329.566 314.228 312.16 
312.16 320.961 334.388 357.604 357.995 388.659 374.471 354.871 354.871 
335.336 320.192 344.13 344.285 344.053 374.944 401.22 401.22 410.694 
430.048 428.323 434.054 406.111 447.672 465.641 453.123 441.698 379.989 
285.448 349.733 377.431 274.629 278.045 315.419 330.071 339.07 352.933 
316.506 342.877 334.542 330.053 399.228 358.196 327.876 303.521 303.079 
301.47 282.283 288.335 291.937 325.792 299.124 304.959 317.335 320.438 
326.504 326.504 313.676 332.199 366.098 356.661 385.428 346.231 315.548 
325.772 325.336 341.776 305.165 352.348 358.883 429.774 450.613 477.121 
463.605 445.189 505.94 435.01 453.151 383.782 404.764 341.216 363.174 
346.225 379.491 386.06 421.39 346.755 284.12 275.15 302.287 328.81 
332.514 361.915 338.421 323.61 330.332 376.329 376.329 398.874 342.491 
342.491 358.04 393.621 436.746 435.809 435.809 439.536 405.849 385.265 
371.312 366.234 341.856 335.437 503.437 494.726 502.83 407.578 398.772 
387.729 370.023 370.023 362.664 339.374 327.95 344.36 379.883 395.85 
376.321 426.233 379.716 448.948 448.948 563.941 386.139 353.273 324.126 
342.286 351.844 396.683 446.328 341.651 401.216 367.015 382.019 387.835 
381.197 337.793 330.864 376.317 417.557 444.712 425.397 353.504 305.765 
303.846 331.239 309.623 363.559 346.099 336.179 392.796 367.061 356.972 
358.042 283.361 267.62 262.886 266.199 275.789 254.506 282.109 293.425 
305.727 328.903 328.903 320.998 321.157 321.157 311.735 304.346 305.557 
318.458 309.18 329.178 
FIELD FieldData 7
DY_minmax 1 471 double
0.177891 0.541618 0.257607 0.138317 0.189453 0.148353 0.408924 0.66531 0.276778 
0.232826 0.410845 0.267763 0.395453 1 0.362889 0.480794 0.250054 0.454004 
0.252738 0.183379 0.112821 0.209613 0.666286 0.326224 0.224759 0.574018 0.244712 
0.22244 0.120252 0.244779 0.757947 0.0808531 0.274975 0.216618 0.792576 0.198559 
0.271614 0.24478 0.671547 0.581637 0.503436 0.837671 0.708225 0.438221 0.262572 
0.111935 0.111935 0.0484159 0 0.0552647 0.119344 0.0483933 0.05708 0.0782801 
0.0253354 0.299952 0.337859 0.376635 0.275262 0.271614 0.244471 0.204744 0.230408 
0.232121 0.287704 0.420873 0.456594 0.53148 0.4608 0.378574 0.378574 0.31973 
0.177231 0.156188 0.176203 0.277375 0.336059 0.294162 0.365313 0.351119 0.351119 
0.39803 0.305365 0.148651 0.299591 0.154299 0.202189 0.17508 0.17508 0.126268 
0.173943 0.0904579 0.107891 0.0705224 0.122913 0.198559 0.221023 0.222921 0.274197 
0.228743 0.231105 0.339845 0.270243 0.837416 0.84352 0.721134 0.202641 0.219071 
0.225798 0.206511 0.175306 0.196497 0.235235 0.235235 0.422621 0.465601 0.465601 
0.456624 0.385158 0.324911 0.267068 0.267068 0.222204 0.237835 0.237835 0.20257 
0.165103 0.165103 0.106206 0.106206 0.0988156 0.122133 0.122133 0.192904 0.248765 
0.317634 0.190117 0.188022 0.265614 0.166647 0.140345 0.176624 0.185794 0.242233 
0.17174 0.284291 0.287718 0.233777 0.29015 0.267471 0.306239 0.337953 0.398464 
0.297941 0.361607 0.375393 0.301858 0.358422 0.345539 0.345539 0.352887 0.391048 
0.391048 0.282319 0.31763 0.31763 0.33725 0.33725 0.242444 0.27889 0.27889 
0.246631 0.413226 0.286723 0.551699 0.524975 0.524975 0.542316 0.414046 0.414046 
0.30188 0.30188 0.240642 0.206479 0.190343 0.236044 0.221417 0.202535 0.178008 
0.222733 0.316166 0.404265 0.50862 0.5252 0.5252 0.434953 0.386825 0.386825 
0.347605 0.398551 0.399188 0.402568 0.450578 0.359217 0.329641 0.277418 0.550893 
0.711228 0.577678 0.369401 0.431467 0.345867 0.353318 0.499214 0.585339 0.492764 
0.577973 0.389151 0.198094 0.281563 0.364454 0.327827 0.274236 0.291393 0.291393 
0.247707 0.196942 0.316169 0.346849 0.279389 0.1963 0.196091 0.338415 0.418048 
0.470948 0.217926 0.219492 0.0802551 0.0796128 0.10131 0.0943816 0.242611 0.226393 
0.319074 0.330385 0.205011 0.205011 0.1694 0.16263 0.16263 0.00514226 0.0901142 
0.0901142 0.160856 0.117226 0.161479 0.200674 0.189386 0.223757 0.183379 0.346798 
0.413195 0.323769 0.170914 0.163126 0.143064 0.196894 0.323827 0.337241 0.346754 
0.572686 0.393768 0.446014 0.559475 0.396954 0.398083 0.257568 0.278851 0.271548 
0.248203 0.222825 0.176114 0.176114 0.191511 0.237387 0.237387 0.201203 0.196326 
0.196326 0.217088 0.248762 0.30353 0.304453 0.37679 0.343319 0.297081 0.297081 
0.250998 0.215274 0.271743 0.272109 0.271562 0.344437 0.406422 0.406422 0.428772 
0.474428 0.470359 0.48388 0.41796 0.516003 0.558394 0.528863 0.501911 0.356336 
0.133312 0.284963 0.350302 0.107788 0.115846 0.204014 0.238577 0.259807 0.29251 
0.206577 0.268788 0.249127 0.238536 0.401722 0.304927 0.233401 0.175945 0.174903 
0.171106 0.125844 0.140121 0.148619 0.228485 0.165572 0.179337 0.208533 0.215854 
0.230163 0.230163 0.199902 0.243599 0.323568 0.301305 0.369167 0.276701 0.204319 
0.228437 0.227407 0.26619 0.179824 0.291131 0.306548 0.473782 0.522943 0.585476 
0.553591 0.510146 0.65346 0.486134 0.528928 0.365284 0.414782 0.264869 0.31667 
0.276686 0.355162 0.37066 0.454004 0.277936 0.130179 0.109017 0.173034 0.235605 
0.244342 0.313698 0.258277 0.223336 0.239194 0.347702 0.347702 0.400889 0.267877 
0.267877 0.304557 0.388495 0.490228 0.48802 0.48802 0.496812 0.417341 0.368783 
0.335868 0.323888 0.266379 0.251238 0.647556 0.627007 0.646124 0.42142 0.400648 
0.374596 0.332828 0.332828 0.315466 0.260525 0.233575 0.272286 0.356088 0.393754 
0.347684 0.465429 0.355694 0.519015 0.519015 0.790287 0.370845 0.293313 0.224554 
0.267393 0.289941 0.395718 0.512834 0.265896 0.406411 0.325732 0.361125 0.374845 
0.359187 0.256795 0.240448 0.347676 0.444963 0.509021 0.463457 0.293857 0.18124 
0.176711 0.241333 0.19034 0.317579 0.27639 0.252987 0.386548 0.325839 0.302038 
0.304563 0.128387 0.0912528 0.0800865 0.0879001 0.110524 0.0603167 0.125435 0.152129 
0.181149 0.235822 0.235822 0.217173 0.217549 0.217549 0.195322 0.177891 0.180749 
0.211182 0.189294 0.236472 
WidthEq 1 471 double
2.79244 1.28608 3.71558 4.06026 4.03858 2.96146 3.7658 1.88567 1.61131 
4.55323 3.59821 4.67505 3.89981 1 4.10247 3.47505 4.55619 2.87735 
3.4751 2.85643 4.76177 3.22763 1.94874 2.75218 3.6884 2.11555 2.54193 
3.99851 3.35597 3.61767 1.32329 2.69991 2.53985 3.03564 1.20642 3.24077 
3.23234 2.54547 1.40428 1.47777 1.72435 1.22681 1.39333 1.88476 2.45281 
3.02977 3.02977 3.26194 3.22786 2.99542 2.71808 3.0205 3.09089 2.98305 
3.06157 3.25299 2.70158 2.47958 2.42091 3.23234 2.99405 2.83914 2.77084 
2.70026 2.75856 2.83702 2.90479 2.82412 2.91558 3.04179 3.04179 3.11067 
3.18016 3.25164 3.38678 3.26731 2.94741 2.92079 2.57768 2.50266 2.50266 
2.30846 2.37659 2.56549 2.31028 2.5576 2.50729 2.76265 2.76265 2.8506 
2.83934 2.93531 3.07194 3.21126 3.22683 3.24077 3.19344 3.06359 2.96781 
3.22968 3.44903 2.9769 2.78048 1.22895 1.30418 1.3353 3.15778 3.25184 
3.31654 3.32652 3.19165 3.07773 2.9912 2.9912 2.68761 2.61844 2.61844 
2.61878 2.64016 2.65079 2.82231 2.82231 2.93281 2.96279 2.96279 2.91645 
2.92491 2.92491 3.0352 3.0352 3.10454 3.11709 3.11709 3.11351 3.33371 
3.2282 3.41328 3.3179 3.21302 3.49446 3.67787 3.85953 4.02634 3.97991 
2.8351 2.70783 2.52327 2.95196 2.86393 3.18667 2.49509 2.4951 2.48686 
2.5674 2.51345 2.55162 2.66086 2.66049 2.90638 2.90638 2.92713 2.90575 
2.90575 3.07441 3.05219 3.05219 3.06917 3.06917 3.11486 2.90229 2.90229 
2.72738 2.3211 2.31531 1.92179 1.86911 1.86911 1.96362 2.33634 2.33634 
2.85919 2.85919 3.16275 3.30925 3.41597 3.27115 3.31465 3.40316 3.42176 
3.25206 2.50773 2.37903 2.38114 2.42411 2.42411 2.61807 2.74424 2.74424 
2.98253 2.9203 3.11733 3.20656 3.15949 3.48149 3.80378 4.14537 1.41482 
1.34627 1.51168 2.19663 2.33262 2.86025 3.60527 3.12315 2.7607 2.99072 
2.77098 3.09201 3.56633 3.23133 2.80976 2.7761 2.55172 2.67855 2.67855 
2.80567 3.89063 3.34192 3.00871 2.97022 3.1055 3.19931 2.67143 2.33422 
2.22592 3.8307 4.28622 3.40647 3.38286 3.72097 4.14101 3.74419 3.53083 
3.1589 3.09823 3.00932 3.00932 2.79823 2.77393 2.77393 2.83232 3.03705 
3.03705 3.27165 3.52851 3.66062 3.58069 3.56815 3.13368 2.85643 2.47267 
2.56791 3.01711 2.65932 2.57129 2.60937 2.68689 2.45469 2.54362 2.52048 
2.14927 2.32266 2.23244 2.05142 2.17274 2.24318 2.61081 2.62468 2.90181 
3.34244 2.76063 2.65296 2.65296 2.73152 2.8407 2.8407 3.04696 3.12589 
3.12589 3.16197 3.1676 3.13349 3.04978 2.89991 2.88631 2.91339 2.91339 
2.90574 2.83001 2.70159 2.49002 2.38547 2.31439 2.1299 2.1299 2.10947 
2.06325 2.09475 2.10982 2.22643 2.19209 2.51543 2.79304 3.09193 2.64171 
4.83344 4.21272 4.06506 4.68774 4.46226 4.072 3.56387 3.47615 3.56971 
3.68109 3.54438 3.78753 4.46576 3.40121 3.40676 3.70566 3.88108 3.90125 
3.85842 4.15199 4.19681 4.22481 3.89198 4.06196 3.82294 3.68427 3.43476 
3.26066 3.26066 2.91596 2.89419 2.62071 2.47803 2.37442 2.28846 2.26 
2.19103 2.11031 2.01204 2.06494 1.97194 1.92541 1.81162 1.79799 1.7375 
1.58749 2.72693 2.37591 2.66796 2.61321 3.11591 3.00219 3.56319 3.41918 
3.73317 3.59136 3.7457 2.87735 2.9928 2.82936 2.78669 2.77616 2.62713 
2.71873 2.64031 2.74569 2.7297 2.70975 2.69429 2.69429 2.68405 2.89701 
2.89701 2.96816 2.75013 2.59606 2.80794 2.80794 2.95149 3.36753 3.60416 
3.81746 3.90881 4.87641 4.78187 3.12215 2.98935 2.80886 3.3212 3.3094 
3.32804 3.84156 3.84156 4.00114 3.73634 3.69208 3.46082 3.48559 3.58885 
3.83908 3.62167 4.27424 2.93245 2.93245 1.5652 4.45344 4.7566 4.75441 
4.49037 4.56179 3.95396 3.62088 4.90447 4.14595 4.37049 3.57655 3.57603 
3.8421 4.29419 4.3883 3.9452 3.61722 3.29154 3.39353 3.68406 4.1312 
4.11708 3.0378 3.7886 2.91517 2.96906 4.15112 3.54965 3.63768 3.67409 
3.53522 4.2864 4.54611 4.59803 4.42613 4.10433 4.34598 3.74918 3.58271 
3.4989 3.28547 3.28547 3.19248 3.02332 3.02332 2.97765 2.79244 3.92957 
3.72608 3.72262 3.68374 
rRFP 1 471 double
5352.77 3674.31 6381.38 6765.43 6741.28 5541.1 6437.33 4342.4 4036.69 
7314.73 6250.59 7450.47 6586.65 3355.54 6812.47 6113.37 7318.02 5447.38 
6113.42 5424.07 7547.09 5837.68 4412.67 5307.91 6351.09 4598.54 5073.64 
6696.63 5980.68 6272.28 3715.77 5249.67 5071.32 5623.75 3585.54 5852.32 
5842.93 5077.58 3806.01 3887.89 4162.65 3608.26 3793.81 4341.38 4974.33 
5617.21 5617.21 5875.91 5837.93 5578.94 5269.91 5606.88 5685.31 5565.15 
5652.64 5865.93 5251.52 5004.16 4938.79 5842.93 5577.41 5404.8 5328.7 
5250.06 5315.02 5402.44 5477.95 5388.07 5489.98 5630.6 5630.6 5707.35 
5784.78 5864.43 6015.01 5881.89 5525.44 5495.78 5113.47 5029.88 5029.88 
4813.49 4889.41 5099.89 4815.52 5091.1 5035.04 5319.57 5319.57 5417.57 
5405.02 5511.96 5664.2 5819.44 5836.78 5852.32 5799.58 5654.89 5548.17 
5839.96 6084.37 5558.3 5339.44 3610.65 3694.47 3729.15 5759.85 5864.65 
5936.75 5947.86 5797.59 5670.65 5574.23 5574.23 5235.96 5158.89 5158.89 
5159.27 5183.09 5194.93 5386.05 5386.05 5509.17 5542.58 5542.58 5490.94 
5500.37 5500.37 5623.26 5623.26 5700.52 5714.51 5714.51 5710.52 5955.88 
5838.31 6044.54 5938.26 5821.4 6134.99 6339.36 6541.77 6727.64 6675.9 
5400.3 5258.49 5052.84 5530.51 5432.42 5792.04 5021.44 5021.46 5012.27 
5102.01 5041.9 5084.43 5206.15 5205.74 5479.72 5479.72 5502.85 5479.02 
5479.02 5666.95 5642.19 5642.19 5661.11 5661.11 5712.02 5475.17 5475.17 
5280.27 4827.58 4821.12 4382.64 4323.95 4323.95 4429.25 4844.56 4844.56 
5427.14 5427.14 5765.38 5928.62 6047.54 5886.17 5934.64 6033.26 6053.99 
5864.9 5035.53 4892.12 4894.48 4942.36 4942.36 5158.48 5299.06 5299.06 
5564.57 5495.23 5714.78 5814.2 5761.75 6120.54 6479.65 6860.27 3817.75 
3741.37 3925.68 4688.88 4840.41 5428.32 6258.46 5721.26 5317.4 5573.7 
5328.85 5686.56 6215.07 5841.8 5372.07 5334.56 5084.54 5225.86 5225.86 
5367.51 6576.43 5965.02 5593.75 5550.86 5701.59 5806.12 5217.93 4842.19 
4721.52 6509.65 7017.21 6036.95 6010.64 6387.38 6855.41 6413.25 6175.52 
5761.09 5693.49 5594.42 5594.42 5359.22 5332.14 5332.14 5397.2 5625.32 
5625.32 5886.73 6172.93 6320.14 6231.07 6217.1 5732.99 5424.07 4996.46 
5102.58 5603.11 5204.44 5106.35 5148.78 5235.16 4976.43 5075.52 5049.74 
4636.11 4829.31 4728.79 4527.09 4662.27 4740.75 5150.38 5165.84 5474.63 
5965.6 5317.32 5197.35 5197.35 5284.89 5406.54 5406.54 5636.36 5724.31 
5724.31 5764.51 5770.79 5732.78 5639.51 5472.52 5457.36 5487.54 5487.54 
5479.01 5394.63 5251.54 5015.8 4899.3 4820.1 4614.53 4614.53 4591.77 
4540.27 4575.36 4592.16 4722.09 4683.83 5044.11 5353.43 5686.47 5184.81 
7626.95 6935.31 6770.78 7464.6 7213.36 6778.52 6212.33 6114.59 6218.84 
6342.95 6190.62 6461.54 7217.26 6031.09 6037.27 6370.32 6565.78 6588.26 
6540.54 6867.65 6917.59 6948.78 6577.93 6767.33 6501 6346.49 6068.47 
5874.48 5874.48 5490.4 5466.14 5161.42 5002.44 4886.99 4791.21 4759.49 
4682.65 4592.7 4483.21 4542.15 4438.52 4386.68 4259.89 4244.7 4177.3 
4010.15 5279.77 4888.65 5214.06 5153.06 5713.19 5586.48 6211.58 6051.11 
6400.98 6242.96 6414.94 5447.38 5576.02 5393.9 5346.36 5334.63 5168.57 