# vtk DataFile Version 3.0
vtk output
ASCII
DATASET POLYDATA
POINTS 465 float
0.471858 -0.193096 1.0775 0.29038 0.367835 0.466455 1.4954 -1.58062 0.0932543 
1.17887 -1.63056 0.0803604 0.774462 -2.06883 -0.103111 1.14848 -1.79729 -0.170039 
-0.158909 -1.75872 -0.365916 4.49593 -0.363795 -0.623534 2.98426 -0.297203 -0.605207 
4.64844 0.0267799 -0.796992 5.08866 -0.598635 -0.892135 4.00612 -0.639994 -0.902333 
4.97499 0.182965 -0.894104 5.01679 -0.386715 -1.04333 0.772386 1.11156 -0.71735 
5.19506 0.274665 -1.49045 5.23084 -0.151247 -1.18853 4.11803 -0.410017 -1.25566 
-0.249404 -0.721969 -1.88612 5.45583 -0.365679 -1.65832 3.98485 -0.200217 -1.61412 
1.82971 -0.114957 -1.59053 5.4539 0.758754 -1.86001 5.90187 0.138474 -1.77349 
3.92323 -0.0113284 -1.77136 3.69861 -0.0606887 -1.85307 2.88833 -0.0328441 -1.77639 
2.03352 0.143542 -1.72969 -0.148029 0.432356 -1.65277 -0.300816 -0.525253 -1.97241 
2.11478 0.391954 -1.87142 2.17629 0.253738 -1.90766 5.60736 0.586879 -2.02916 
5.42522 -0.431071 -2.29567 5.31308 -0.559702 -2.32929 1.55546 -0.698112 -2.51649 
5.36264 0.330856 -2.30282 4.80055 0.547262 -2.24581 0.0923693 0.470105 -2.26326 
0.0313362 0.321802 -2.30207 1.64074 -0.665882 -2.5081 1.71228 -0.648488 -2.47295 
1.77359 -0.654962 -2.42874 1.83555 -0.659559 -2.38404 1.89183 -0.674192 -2.35727 
1.94812 -0.688816 -2.33051 2.01001 -0.693585 -2.28585 2.07 -0.704871 -2.23523 
2.13257 -0.709872 -2.18298 2.19259 -0.719179 -2.13952 2.25517 -0.72418 -2.08726 
2.31519 -0.735368 -2.03662 2.3778 -0.738392 -1.99151 2.43852 -0.73846 -1.97624 
2.50551 -0.717635 -1.97849 2.57623 -0.683978 -1.99268 2.64753 -0.652399 -1.99211 
2.71708 -0.623785 -1.977 2.77556 -0.59466 -1.94644 2.80889 -0.555849 -1.91332 
2.83114 -0.512774 -1.87908 2.8516 -0.469008 -1.84466 2.87195 -0.421451 -1.82456 
2.89219 -0.3701 -1.81878 2.91073 -0.314345 -1.82716 2.91988 -0.256778 -1.8274 
2.91304 -0.193588 -1.8185 2.90856 -0.124974 -1.80053 0.0516805 0.371236 -2.28913 
0.0720249 0.420671 -2.2762 4.72916 0.493101 -2.16041 4.65776 0.446451 -2.10367 
4.58633 0.409182 -2.08276 4.51489 0.377543 -2.08335 4.44345 0.347782 -2.0911 
4.37201 0.31802 -2.09885 4.30057 0.286382 -2.09944 4.22914 0.250991 -2.0857 
4.15772 0.209969 -2.05046 4.08641 0.165155 -2.0009 4.0169 0.115894 -1.93718 
3.95839 0.0586534 -1.86025 5.41922 0.405719 -2.44405 5.45418 0.475779 -2.53292 
5.48749 0.525847 -2.5428 5.53312 0.552422 -2.48226 5.5646 0.569441 -2.36297 
5.58682 0.580649 -2.2069 5.30132 0.302897 -1.90427 5.37845 0.299381 -2.44125 
5.37102 0.273101 -2.56298 5.35442 0.242851 -2.65513 5.34703 0.201557 -2.71954 
5.363 0.143767 -2.75766 5.38068 0.0815685 -2.78161 5.38438 0.0210003 -2.78982 
5.393 -0.0470872 -2.77703 5.39674 -0.124547 -2.72075 5.4145 -0.220528 -2.61572 
5.43068 -0.327153 -2.46754 5.53812 0.855663 -2.0552 5.54331 0.938108 -2.17451 
5.50363 0.97396 -2.18653 5.45746 0.968351 -2.10528 5.43229 0.907585 -1.98028 
1.46751 -0.697163 -2.51619 1.39777 -0.68972 -2.52186 1.32948 -0.701109 -2.54777 
1.25938 -0.723537 -2.56891 1.19238 -0.740608 -2.581 1.13099 -0.74594 -2.58236 
1.06468 -0.765121 -2.57969 0.99848 -0.788094 -2.5627 0.938909 -0.805376 -2.52125 
0.88302 -0.841728 -2.47713 0.838229 -0.888867 -2.44351 0.78304 -0.915965 -2.42761 
0.727857 -0.913151 -2.41918 0.671693 -0.906073 -2.41729 0.610503 -0.91092 -2.41852 
0.554277 -0.903704 -2.4166 0.498052 -0.896488 -2.41468 0.436862 -0.901335 -2.41591 
0.380677 -0.89402 -2.41396 0.325169 -0.886947 -2.40442 0.268442 -0.886611 -2.38133 
0.223005 -0.862615 -2.33673 0.176299 -0.8417 -2.29294 0.129585 -0.817035 -2.26347 
0.0841353 -0.787407 -2.24038 0.0274815 -0.785007 -2.2244 -0.0267517 -0.780653 -2.19005 
-0.0773722 -0.764766 -2.1297 -0.140719 -0.738972 -2.02337 5.36967 -0.53172 -2.29137 
5.40289 -0.487244 -2.27974 5.45655 -0.434621 -2.09753 5.48926 -0.433077 -1.92103 
5.48264 -0.407014 -1.77636 5.55004 0.659867 -1.95028 5.65851 0.525818 -1.87673 
5.70893 0.472405 -1.76057 5.75491 0.421418 -1.69738 5.79094 0.358717 -1.68893 
5.8241 0.291642 -1.71035 5.86336 0.221573 -1.74595 5.39912 0.62755 -1.75498 
5.34576 0.535997 -1.64415 5.31045 0.458417 -1.55266 5.26921 0.37657 -1.5021 
-0.252874 -0.608149 -1.93289 2.23673 0.239769 -1.84243 2.28293 0.193109 -1.79342 
2.3304 0.153288 -1.75794 2.38088 0.126447 -1.74203 2.43265 0.106532 -1.73962 
2.48816 0.0975728 -1.742 2.54932 0.10233 -1.74079 2.6055 0.0950151 -1.74273 
2.66101 0.0860645 -1.74511 2.7178 0.0800369 -1.74672 2.76431 0.0456581 -1.75576 
2.81859 0.00954834 -1.76524 2.14554 0.322846 -1.88954 2.10491 0.197703 -1.81509 
2.09689 0.44662 -1.8188 2.09068 0.500519 -1.78937 2.06658 0.556518 -1.78235 
2.02756 0.606144 -1.7923 1.99173 0.664533 -1.78465 1.9551 0.717473 -1.7631 
1.90914 0.743974 -1.73316 1.8588 0.761726 -1.71317 1.80775 0.779621 -1.70079 
1.75669 0.799393 -1.69558 1.7063 0.822678 -1.69711 1.65961 0.854942 -1.69629 
1.61852 0.898947 -1.68474 1.57186 0.919958 -1.64092 1.52155 0.924573 -1.57077 
1.4713 0.923659 -1.4791 1.42537 0.935143 -1.39183 1.38874 0.971094 -1.30582 
1.3521 1.00892 -1.22697 1.3062 1.02614 -1.16118 1.2566 1.03812 -1.11207 
1.20996 1.06297 -1.08257 1.16892 1.1052 -1.06382 1.12299 1.13555 -1.04819 
1.0777 1.16369 -1.01782 1.04034 1.20541 -0.960932 0.998482 1.23318 -0.894929 
0.936483 1.21179 -0.834129 0.860585 1.1663 -0.777079 2.04733 0.360654 -1.87958 
2.00186 0.311518 -1.85413 2.00671 0.233634 -1.79797 3.78662 -0.0252919 -1.8413 
3.85569 -0.0190237 -1.81673 5.89557 0.0540301 -1.78985 5.87451 -0.0117593 -1.78985 
5.85357 -0.0676602 -1.78533 5.8313 -0.123502 -1.77123 5.79801 -0.179203 -1.73986 
5.73957 -0.227098 -1.69876 5.67005 -0.268848 -1.66371 5.59872 -0.304279 -1.64998 
5.52728 -0.335918 -1.65057 5.33252 0.76973 -1.68708 5.24822 0.746106 -1.55079 
5.18863 0.730187 -1.45078 5.13224 0.717905 -1.37433 5.07037 0.694432 -1.31152 
5.0098 0.676009 -1.25505 4.94431 0.649378 -1.21605 4.88313 0.638893 -1.19579 
4.83621 0.66495 -1.17362 4.78433 0.675183 -1.14028 4.72328 0.653408 -1.07704 
4.6646 0.624781 -0.984951 4.61073 0.576401 -0.898043 4.58006 0.516075 -0.844917 
4.57075 0.455008 -0.830276 4.58654 0.387908 -0.83254 4.60254 0.318858 -0.827665 
4.59701 0.253052 -0.801511 4.59194 0.186403 -0.775568 4.61242 0.110827 -0.772405 
-0.304556 -0.616159 -1.91963 -0.284847 -0.438313 -1.98537 -0.276473 -0.365272 -2.00453 
-0.281422 -0.297808 -2.01494 -0.272167 -0.242781 -2.00564 -0.253607 -0.196408 -1.97819 
-0.233361 -0.148812 -1.95808 -0.213025 -0.0956248 -1.95947 -0.192702 -0.0368057 -1.98237 
-0.17248 0.0220531 -2.00525 -0.153937 0.0759303 -2.00646 -0.144761 0.125916 -1.97807 
-0.151344 0.174465 -1.9194 -0.153115 0.217412 -1.84689 -0.159855 0.262304 -1.77387 
-0.153419 0.306427 -1.71638 -0.149466 0.36116 -1.67907 -0.0943426 0.491328 -1.62969 
-0.0523657 0.536617 -1.59489 -0.0156029 0.571895 -1.54738 0.0412911 0.59984 -1.50946 
0.0997188 0.632625 -1.49326 0.145188 0.674126 -1.49773 0.201139 0.701192 -1.50599 
0.260768 0.709179 -1.51159 0.327602 0.72643 -1.49946 0.396449 0.749554 -1.47046 
0.454907 0.772951 -1.41843 0.488251 0.804255 -1.35665 0.51052 0.839822 -1.29375 
0.531089 0.879794 -1.245 0.553252 0.917276 -1.18925 0.584803 0.94927 -1.12729 
0.632142 0.969562 -1.04543 0.674673 0.992399 -0.965452 0.721873 1.01478 -0.885601 
0.752557 1.05298 -0.806696 1.97513 0.118133 -1.7746 1.93253 0.0791402 -1.79244 
1.89434 0.0272016 -1.76774 1.87524 -0.045216 -1.69481 2.97589 0.00211275 -1.76728 
3.04892 0.0236602 -1.76168 3.1112 0.0293598 -1.76023 3.17752 0.0484639 -1.76292 
3.24307 0.0695637 -1.7804 3.29923 0.0735087 -1.82534 3.35034 0.067074 -1.88067 
3.39704 0.0461592 -1.92445 3.43817 0.0022536 -1.93597 3.48567 -0.0351438 -1.91007 
3.54201 -0.0563497 -1.87226 3.61343 -0.0564744 -1.84937 3.7427 -0.179189 -1.69015 
3.79208 -0.247191 -1.57782 3.84799 -0.267007 -1.5422 3.91424 -0.24306 -1.56404 
3.95404 -0.104835 -1.69632 4.0216 -0.288716 -1.4995 4.06765 -0.35463 -1.37895 
5.41072 -0.35789 -1.54906 5.37485 -0.32386 -1.44823 5.34266 -0.27709 -1.35939 
5.30749 -0.233818 -1.28677 5.26671 -0.200391 -1.23206 -0.379082 -0.829904 -1.64121 
-0.459887 -0.927844 -1.41412 -0.502255 -1.01166 -1.20889 -0.536375 -1.06492 -1.01096 
-0.560413 -1.10442 -0.82221 -0.595111 -1.12165 -0.642924 -0.629046 -1.10523 -0.477797 
-0.658478 -1.07438 -0.324214 -0.676232 -1.04227 -0.185626 -0.668901 -1.01408 -0.0710383 
-0.652207 -0.980114 0.0067562 -0.643125 -0.933844 0.0494988 -0.649729 -0.875911 0.0723362 
-0.651436 -0.819862 0.0946771 -0.656229 -0.766374 0.131658 -0.635957 -0.726288 0.180435 
-0.592248 -0.69335 0.219666 -0.560922 -0.648144 0.231487 -0.538801 -0.591892 0.215578 
-0.518376 -0.533112 0.192671 -0.498044 -0.478048 0.184112 -0.4777 -0.428613 0.197048 
-0.457347 -0.382931 0.22431 -0.43699 -0.339126 0.258741 -0.416641 -0.291569 0.278844 
-0.396301 -0.240257 0.284612 -0.375867 -0.185232 0.276042 -0.353734 -0.13461 0.281627 
-0.322311 -0.091317 0.300608 -0.276794 -0.0571982 0.332487 -0.245269 -0.0139444 0.351457 
-0.221241 0.0359475 0.35685 -0.187837 0.0859793 0.346965 -0.129372 0.124486 0.341707 
-0.05993 0.156894 0.342494 0.00951598 0.187425 0.35045 0.0680824 0.222144 0.359509 
0.103354 0.265247 0.373331 0.139453 0.306824 0.394412 0.204033 0.338413 0.425617 
5.20003 0.116236 -1.36349 5.2198 -0.00113603 -1.26407 5.23637 -0.0865738 -1.20989 
4.17667 -0.407205 -1.12478 4.22293 -0.397747 -0.99982 4.28335 -0.389999 -0.890618 
4.35306 -0.383944 -0.789535 4.42445 -0.37479 -0.70294 4.0849 -0.495783 -1.10964 
4.03929 -0.569243 -0.99102 5.17236 -0.202946 -1.13312 5.12696 -0.259153 -1.08656 
5.07178 -0.316048 -1.05549 5.06868 0.251282 -1.1749 5.05151 0.211446 -1.19298 
0.715657 1.14529 -0.545122 0.657717 1.13854 -0.409029 0.591342 1.0992 -0.317191 
0.522579 1.05131 -0.250575 0.464091 0.999794 -0.195113 0.429008 0.941032 -0.149224 
0.395713 0.883457 -0.110685 0.350146 0.830608 -0.0709014 0.318871 0.766631 -0.0110711 
0.298589 0.69022 0.0786894 0.289432 0.600685 0.195625 0.295303 0.49216 0.327994 
4.91725 -0.433722 -0.986669 4.84143 -0.463176 -0.94074 4.78807 -0.451091 -0.914574 
4.74614 -0.403302 -0.925003 4.69939 -0.36362 -0.952871 4.649 -0.33846 -0.961561 
4.59797 -0.331825 -0.906195 4.54694 -0.34218 -0.78636 5.05489 -0.498469 -0.965429 
4.74881 0.0751892 -0.850727 4.83052 0.117051 -0.88576 4.90347 0.151941 -0.897081 
4.6045 -0.0393927 -0.819405 4.56538 -0.0930934 -0.825786 4.51887 -0.140119 -0.812553 
4.48931 -0.199831 -0.772023 4.48009 -0.274176 -0.70725 2.92962 -0.350313 -0.550166 
2.90751 -0.414068 -0.505593 2.91044 -0.483715 -0.477897 2.9012 -0.544924 -0.463293 
2.88446 -0.603246 -0.447929 2.87532 -0.670121 -0.41184 2.88018 -0.748011 -0.355665 
2.87086 -0.826067 -0.276565 2.85057 -0.899901 -0.196343 2.81931 -0.969507 -0.115018 
2.77385 -1.02802 -0.0537387 2.74246 -1.08633 -0.0153929 2.72034 -1.14258 0.000516592 
2.69991 -1.19949 0.0162545 2.67949 -1.26014 0.0463193 2.65728 -1.32199 0.0837439 
2.62399 -1.37769 0.115114 2.56563 -1.41811 0.12753 2.49788 -1.45117 0.126571 
2.43772 -1.48715 0.124842 2.39324 -1.53292 0.135851 2.34397 -1.58247 0.168841 
2.29951 -1.63574 0.208522 2.23937 -1.68111 0.242616 2.17152 -1.71788 0.255994 
2.11147 -1.7539 0.254255 2.06887 -1.79664 0.250745 2.03247 -1.84552 0.260934 
2.02423 -1.91087 0.289763 2.00022 -1.97202 0.327371 1.94347 -2.01868 0.36112 
1.87403 -2.05485 0.374659 1.80269 -2.08465 0.366896 1.73124 -2.10878 0.337648 
1.65981 -2.12718 0.286931 1.58905 -2.14207 0.229464 1.52199 -2.14986 0.181524 
1.46055 -2.14965 0.158645 1.39355 -2.16484 0.139386 1.32356 -2.1854 0.111071 
1.25726 -2.19135 0.0636137 1.20021 -2.17293 0.0148632 1.14321 -2.15629 -0.0266836 
1.07763 -2.16613 -0.0521921 1.01207 -2.17972 -0.0633738 0.955111 -2.17346 -0.0642548 
0.898585 -2.1609 -0.0711453 0.83563 -2.14021 -0.0886589 -0.107776 -1.79341 -0.313772 
-0.0566075 -1.82612 -0.26877 -0.00481417 -1.85354 -0.237694 0.0499969 -1.87174 -0.211863 
0.106708 -1.88155 -0.199156 0.152207 -1.91672 -0.200734 0.199611 -1.94537 -0.208266 
0.250074 -1.96659 -0.213853 0.30185 -1.98462 -0.218605 0.357325 -1.99555 -0.21384 
0.417732 -1.99826 -0.191617 0.468893 -2.02722 -0.160942 0.511427 -2.07525 -0.142918 
0.562658 -2.09597 -0.143276 0.624689 -2.08834 -0.151518 0.69128 -2.08432 -0.142843 
1.16873 -1.7497 -0.149924 1.18719 -1.70704 -0.108133 1.1947 -1.66954 -0.0294068 
0.792384 -2.0089 -0.0159516 0.811914 -1.97203 0.0855812 0.83219 -1.94803 0.201606 
0.852575 -1.92167 0.302941 0.873047 -1.88353 0.358856 0.895278 -1.83107 0.357273 
0.928522 -1.77359 0.318709 0.986244 -1.72368 0.262829 1.05134 -1.68701 0.203476 
1.11259 -1.66475 0.140362 1.25028 -1.60089 0.0880875 1.32096 -1.57297 0.0953607 
1.38724 -1.55575 0.0998305 1.44351 -1.56288 0.0979311 0.355798 0.272189 0.61493 
0.403775 0.177364 0.766182 0.450711 0.103422 0.912692 0.494154 0.0388462 1.02338 
0.517107 -0.0315775 1.08149 0.510504 -0.091679 1.09638 0.4921 -0.143622 1.09045 

LINES 46 566
4 39 68 69 38 
14 37 70 71 72 73 74 75 76 77 78 79 80 81 24 
8 36 82 83 84 85 86 87 32 
3 36 88 15 
13 36 89 90 91 92 93 94 95 96 97 98 99 33 
7 22 100 101 102 103 104 22 
4 34 134 135 33 
5 33 136 137 138 19 
3 32 139 22 
6 22 146 147 148 149 15 
3 18 150 29 
14 31 151 152 153 154 155 156 157 158 159 160 161 162 26 
3 31 163 30 
3 31 164 27 
31 30 165 166 167 168 169 170 171 172 173 174 175 176 177 178 179 180 181 182 183 184 185 186 187 188 189 190 191 192 193 14 
5 30 194 195 196 27 
4 25 197 198 24 
22 22 208 209 210 211 212 213 214 215 216 217 218 219 220 221 222 223 224 225 226 227 9 
3 29 228 18 
6 27 265 266 267 268 21 
14 26 269 270 271 272 273 274 275 276 277 278 279 280 25 
6 25 281 282 283 284 20 
3 24 285 20 
4 20 286 287 17 
7 19 288 289 290 291 292 16 
42 18 293 294 295 296 297 298 299 300 301 302 303 304 305 306 307 308 309 310 311 312 313 314 315 316 317 318 319 320 321 322 323 324 325 326 327 328 329 330 331 332 1 
5 15 333 334 335 16 
7 17 336 337 338 339 340 7 
4 17 341 342 11 
5 16 343 344 345 13 
3 15 346 12 
3 15 347 12 
14 14 348 349 350 351 352 353 354 355 356 357 358 359 1 
10 13 360 361 362 363 364 365 366 367 7 
3 13 368 10 
5 9 369 370 371 12 
7 9 372 373 374 375 376 7 
50 8 377 378 379 380 381 382 383 384 385 386 387 388 389 390 391 392 393 394 395 396 397 398 399 400 401 402 403 404 405 406 407 408 409 410 411 412 413 414 415 416 417 418 419 420 421 422 423 424 4 
18 6 425 426 427 428 429 430 431 432 433 434 435 436 437 438 439 440 4 
5 5 441 442 443 3 
12 4 444 445 446 447 448 449 450 451 452 453 3 
6 3 454 455 456 457 2 
9 1 458 459 460 461 462 463 464 0 
60 26 67 66 65 64 63 62 61 60 59 58 57 56 55 54 53 52 51 50 49 48 47 46 45 44 43 42 41 40 35 105 106 107 108 109 110 111 112 113 114 115 116 117 118 119 120 121 122 123 124 125 126 127 128 129 130 131 132 133 18 
18 32 140 141 142 143 144 145 23 199 200 201 202 203 204 205 206 207 19 
39 29 229 230 231 232 233 234 235 236 237 238 239 240 241 242 243 244 28 245 246 247 248 249 250 251 252 253 254 255 256 257 258 259 260 261 262 263 264 14 

POINT_DATA 465
SCALARS DY_raw double
LOOKUP_TABLE default
98.4455 122.941 155.673 143.45 97.6053 98.2499 99.7713 195.723 154.452 
187.764 187.931 175.866 239.635 153.477 96.1247 129.48 149.79 172.955 
158.872 121.055 153.217 243.509 163.248 209.126 222.41 146.744 128.072 
113.247 138.71 195.597 105.064 92.6935 168.298 137.088 115.11 124.163 
134.532 149.858 382.9 265.532 123.894 141.224 165.249 172.121 169.719 
184.665 174.228 194.514 156.156 166.104 178.23 184.23 199.912 174.898 
142.529 139.366 125.61 112.317 110.049 117.786 115.652 120.861 119.092 
119.092 128.244 134.973 142.68 129.7 283.799 283.799 161.167 213.713 
242.87 208.419 210.328 199.355 188.573 180.633 174.126 178.221 207.746 
178.911 123.101 121.196 147.914 151.624 165.651 166.744 119.49 117.154 
110.412 127.376 141.238 162.345 167.411 165.702 170.727 149.369 169.502 
159.602 163.491 180.996 187.317 180.156 157.587 127.814 136.518 150.632 
149.788 197.829 193.527 162.089 176.152 161.202 146.486 131.957 125.837 
119.288 109.296 109.296 115.738 112.225 112.225 117.746 115.214 115.214 
129.022 145.182 158.736 171.777 155.155 131.381 126.966 147.391 127.628 
137.088 166.341 140.944 121.568 163.376 180.213 197.627 217.921 216.615 
205.254 204.869 154.896 164.099 167.795 142.03 185.04 120.347 129.4 
143.194 126.936 126.936 131.677 132.406 132.406 145.896 131.991 127.183 
115.529 88.0366 97.7763 98.6526 127.288 125.427 118.638 106.662 115.018 
102.312 104.838 121.199 137.194 143.619 143.619 155.334 158.895 178.035 
125.763 123.191 95.9177 100.451 109.106 123.424 113.219 119.761 132.79 
114.182 114.943 127.411 108.556 98.8661 85.1962 83.8794 103.009 148.984 
167.528 191.08 181.563 180.662 183.606 168.46 153.02 147.647 148.499 
125.214 148.085 149.157 125.254 133.025 136.907 125.334 140.119 115.322 
133.217 133.217 151.39 184.962 196.817 200.452 217.971 183.172 191.515 
193.016 199.742 195.387 179.069 208.447 211.383 214.929 211.021 209.871 
181.74 173.819 171.919 147.863 147.863 163.382 180.954 171.884 182.38 
157.128 149.84 131.459 132.665 129.082 143.87 148.79 145.705 137.824 
117.558 129.913 137.852 163.891 170.601 176.481 170.499 170.887 168.561 
128.992 124.81 106.709 97.4867 111.688 103.567 128.05 156.673 142.532 
167.405 198.973 206.914 237.674 217.433 191.258 167.536 158.62 159.641 
154.964 139.676 182.092 189.709 172.829 162.204 192.562 157.107 173.683 
145.264 152.489 143.697 160.614 208.282 153.776 118.382 88.6121 94.2761 
102.226 91.1914 100.737 140.034 123.296 127.765 118.627 118.627 148.088 
139.085 139.085 164.33 164.33 151.836 150.436 144.156 130.774 121.162 
121.162 131.812 154.282 143.146 134.377 122.631 122.631 123.992 139.85 
149.368 138.649 141.686 140.862 123.666 112.778 99.1668 103.674 104.594 
157.837 160.156 174.711 161.137 140.486 132.203 131.015 170.917 167.968 
168.452 152.66 138.353 148.466 180.338 155.161 98.3142 110.656 129.092 
128.267 119.411 116.668 99.3071 104.616 96.8205 99.0194 108.973 119.579 
159.442 167.288 164.757 167.996 157.648 138.172 163.649 188.072 181.836 
178.643 178.705 201.961 187.124 171.984 180.283 188.904 168.098 118.028 
116.467 127.396 115.959 133.512 137.078 129.613 141.913 150.403 152.74 
158.756 143.184 147.865 147.865 146.856 161.669 173.928 166.666 166.666 
155.159 148.61 164.255 133.119 111.336 119.99 110.237 116.966 116.966 
135.726 151.097 159.029 155.09 161.4 166.592 160.603 146.241 133.707 
128.716 134.874 125.458 141.992 129.204 117.514 105.483 107.107 103.095 
99.9318 101.382 105.555 118.882 132.473 126.358 131.547 145.279 135.174 
126.871 126.871 111.529 95.988 107.538 97.9409 89.2322 84.1581 83.0597 
85.3289 90.2348 103.522 112.443 126.199 134.958 102.962 117.742 117.742 
116.196 134.415 150.151 144.732 151.92 149.329 147.549 141.38 107.101 
108.136 91.5171 92.1388 91.8309 94.4288 98.4455 
FIELD FieldData 7
DY_minmax 1 465 double
0.0513133 0.133007 0.242174 0.201409 0.0485112 0.0506611 0.0557349 0.375743 0.238101 
0.349201 0.349757 0.309518 0.522194 0.234849 0.0435732 0.154817 0.222551 0.299812 
0.252843 0.126717 0.233983 0.535116 0.267436 0.420445 0.464747 0.212393 0.150121 
0.100679 0.1856 0.375324 0.073388 0.0321299 0.284279 0.180189 0.106893 0.137083 
0.171665 0.222781 1 0.608564 0.136186 0.193986 0.274111 0.297029 0.28902 
0.338864 0.304057 0.371713 0.243783 0.276961 0.317404 0.337413 0.389716 0.30629 
0.198337 0.187789 0.14191 0.097575 0.0900129 0.115814 0.108698 0.126071 0.120171 
0.120171 0.150696 0.173136 0.198839 0.15555 0.669488 0.669488 0.260496 0.435742 
0.532985 0.418087 0.424455 0.387856 0.351898 0.325418 0.303716 0.317375 0.415844 
0.319674 0.133541 0.127189 0.216297 0.22867 0.275451 0.279095 0.121501 0.113707 
0.0912213 0.1478 0.194032 0.264424 0.281322 0.27562 0.292382 0.221147 0.288293 
0.255276 0.268247 0.326627 0.347709 0.323827 0.248558 0.149262 0.178288 0.22536 
0.222545 0.382768 0.36842 0.263573 0.310473 0.260614 0.211534 0.163079 0.142666 
0.120825 0.0875011 0.0875011 0.108987 0.0972683 0.0972683 0.115682 0.107238 0.107238 
0.15329 0.207186 0.252387 0.29588 0.240445 0.161157 0.146432 0.214552 0.14864 
0.180189 0.277752 0.193052 0.12843 0.267865 0.324016 0.382093 0.449778 0.44542 
0.40753 0.406247 0.239583 0.270275 0.282603 0.196674 0.340114 0.124356 0.154551 
0.200555 0.146333 0.146333 0.162143 0.164575 0.164575 0.209565 0.163191 0.147157 
0.10829 0.0165984 0.0490813 0.052004 0.147506 0.141301 0.118659 0.0787159 0.106586 
0.0642072 0.0726329 0.127198 0.180545 0.201971 0.201971 0.241041 0.252919 0.316752 
0.14242 0.133843 0.0428829 0.0580009 0.0868685 0.13462 0.100584 0.122402 0.165855 
0.103798 0.106335 0.147918 0.0850339 0.052716 0.0071255 0.00273391 0.0665333 0.219866 
0.281712 0.360258 0.328518 0.325515 0.335331 0.284819 0.233325 0.215407 0.218246 
0.140588 0.216867 0.220441 0.140723 0.16664 0.179585 0.14099 0.190298 0.107599 
0.16728 0.16728 0.227888 0.339856 0.379394 0.391517 0.449943 0.333884 0.361709 
0.366718 0.389147 0.374623 0.3202 0.418179 0.427973 0.4398 0.426765 0.42293 
0.32911 0.302691 0.296356 0.216125 0.216125 0.267885 0.326488 0.296237 0.331244 
0.247026 0.222719 0.161417 0.16544 0.153488 0.202808 0.219219 0.208928 0.182645 
0.115054 0.156262 0.182738 0.269582 0.291959 0.311571 0.291619 0.292915 0.285155 
0.153189 0.13924 0.078874 0.0481156 0.0954778 0.0683946 0.150048 0.24551 0.198348 
0.281302 0.386584 0.413066 0.515655 0.448148 0.360854 0.281737 0.252001 0.255407 
0.239809 0.188821 0.330285 0.355687 0.299391 0.263955 0.365202 0.246957 0.302239 
0.207457 0.231553 0.202231 0.258651 0.417631 0.235846 0.117803 0.0185177 0.0374078 
0.0639229 0.02712 0.0589541 0.190016 0.134192 0.149098 0.118619 0.118619 0.216877 
0.186851 0.186851 0.271046 0.271046 0.229378 0.224706 0.203763 0.159133 0.127074 
0.127074 0.162594 0.237534 0.200393 0.171148 0.131974 0.131974 0.136515 0.189401 
0.221147 0.185398 0.195525 0.192778 0.135426 0.0991129 0.0537188 0.0687506 0.0718197 
0.249391 0.257124 0.305668 0.260396 0.191523 0.163898 0.159936 0.293015 0.283177 
0.284793 0.232125 0.184411 0.218137 0.324434 0.240467 0.0508755 0.092037 0.153523 
0.15077 0.121237 0.112088 0.0541868 0.071891 0.0458936 0.0532272 0.0864238 0.121795 
0.254744 0.280909 0.27247 0.283273 0.248759 0.183804 0.268776 0.350228 0.329429 
0.31878 0.318986 0.396549 0.347065 0.296571 0.324252 0.353003 0.283613 0.116622 
0.111416 0.147866 0.109723 0.168263 0.180158 0.155259 0.196283 0.224597 0.232393 
0.252455 0.20052 0.216134 0.216134 0.212766 0.26217 0.303057 0.278835 0.278835 
0.240459 0.218618 0.270797 0.166954 0.0943044 0.123168 0.0906389 0.113081 0.113081 
0.175647 0.226912 0.253366 0.24023 0.261274 0.27859 0.258615 0.210715 0.168915 
0.152268 0.172807 0.141401 0.196545 0.153895 0.114909 0.0747826 0.0802002 0.0668205 
0.0562702 0.061107 0.0750246 0.11947 0.164798 0.144404 0.16171 0.207506 0.173806 
0.146115 0.146115 0.0949478 0.0431174 0.0816387 0.0496305 0.020586 0.00366336 0 
0.00756788 0.0239295 0.0682444 0.0979955 0.143874 0.173086 0.0663774 0.115669 0.115669 
0.110514 0.171276 0.223757 0.205685 0.229656 0.221016 0.21508 0.194504 0.0801806 
0.0836308 0.0282063 0.0302797 0.0292529 0.0379171 0.0513133 
WidthEq 1 465 double
5.9635 6.98882 7.22712 7.89145 9.20462 6.48051 7.02156 6.87616 8.12415 
7.91387 5.92133 4.76108 7.278 9.06202 9.60617 17.6906 11.1917 7.03852 
6.4842 11.0804 6.70304 1.23786 12.8147 7.10384 4.93612 5.32336 6.44247 
6.71513 5.32557 5.23311 7.19321 7.60301 11.3582 8.90438 5.23341 5.417 
10.5238 4.13524 1 1.40066 5.59705 5.04318 4.72141 4.33741 4.45376 
4.16576 3.92319 3.92156 4.40598 4.33314 4.0767 4.10162 3.72839 4.09439 
4.86224 5.27588 5.58467 5.83654 6.01467 6.02485 6.24737 6.10197 6.26551 
6.26551 5.74481 5.32189 5.2744 5.98312 1.28298 1.28298 4.10766 3.48374 
3.27714 3.96197 3.82925 3.95872 4.27209 4.30851 4.68764 4.89734 4.67127 
5.61475 10.7962 10.6582 8.62892 8.79246 8.90837 10.1307 12.5714 10.424 
10.3245 8.18638 7.2777 6.42374 5.79053 5.61062 5.58791 6.16214 6.06525 
7.10901 10.8919 8.45948 7.37238 8.18535 8.37853 5.193 4.59135 4.09941 
4.11636 3.40618 3.54509 4.15117 4.00739 4.37959 4.77936 5.24889 5.72314 
6.09843 6.66337 6.66337 6.68637 6.98661 6.98661 6.6032 5.63864 5.63864 
5.06928 4.54711 4.67054 4.48635 4.80694 5.73995 6.02485 5.83034 8.24286 
8.90438 8.29285 9.8458 11.2497 13.2288 9.60337 8.19434 7.26488 6.82027 
7.23568 7.25971 14.4592 14.0945 14.0112 16.1503 5.87458 6.35015 6.31506 
5.56461 5.45195 5.45195 5.02769 5.1725 5.1725 5.02489 5.57493 5.85084 
6.58447 8.16161 7.89189 7.51719 6.48671 6.64169 7.34215 8.16618 7.8071 
8.69012 8.23652 7.24364 6.7225 6.53021 6.53021 5.97913 5.61195 5.28605 
6.1437 6.21935 6.49275 6.88029 6.46827 6.20284 7.07214 6.58521 6.26757 
8.12533 8.32514 7.95973 9.3568 9.93708 7.96268 7.15634 7.73543 5.72033 
5.71444 7.45009 7.45776 7.24335 7.12228 7.16195 8.1445 8.74719 8.74203 
11.2632 12.1207 11.4164 12.624 11.8525 11.1621 10.3883 9.91717 10.1595 
8.4704 8.4704 7.58222 6.90211 6.95594 6.9173 6.73636 6.59229 6.96375 
7.3215 7.2022 7.72069 6.01954 4.4455 4.027 3.63268 3.40028 3.21211 
3.58726 3.53875 3.58564 4.14438 4.14438 3.88897 3.75714 4.24584 4.21192 
4.75459 4.88215 5.5186 5.85172 6.03207 5.34872 5.41567 5.41376 5.60664 
6.1558 5.74083 5.54987 4.99319 4.93966 4.47028 4.21487 4.29716 4.45288 
5.61445 6.0654 7.5685 8.73052 6.79107 6.24059 4.03069 3.37447 5.94286 
5.06412 3.78191 3.24382 2.79951 2.69702 2.99976 3.22892 3.64463 3.8844 
4.3641 4.76904 4.33977 4.46969 5.12251 6.656 5.67064 6.4174 6.72235 
9.88561 9.34103 9.78416 9.67326 7.98037 7.85871 9.8483 12.9182 11.9467 
11.4632 11.7684 9.94902 7.41204 7.61835 6.3298 6.12586 6.12586 5.03153 
4.87227 4.87227 4.05251 4.05251 4.14571 3.82276 3.83279 4.01211 4.37531 
4.37531 4.498 4.16296 4.25601 4.4719 5.05925 5.05925 5.66857 5.32808 
4.97756 5.65722 5.1377 5.30611 5.87163 6.00597 7.77186 7.61378 7.82023 
13.0126 12.2212 10.6939 7.49345 8.37101 8.76016 8.70221 7.95958 6.02735 
5.02902 10.7521 10.8689 10.016 11.3281 12.5932 10.0211 9.56016 8.293 
7.92404 8.188 8.04717 7.78867 7.61407 7.49728 7.4032 7.47295 7.0627 
7.82008 6.54938 6.45264 6.32287 6.41519 7.59888 7.37754 7.14322 7.40069 
8.52142 8.96116 8.64042 7.60272 7.55096 7.36751 7.20397 8.13108 11.1599 
11.3812 10.7465 10.7701 9.55249 9.22851 9.53789 8.99655 8.97502 8.79629 
8.30288 8.95423 8.57436 8.57436 8.70147 7.94749 7.30852 6.94252 6.94252 
7.10104 7.42856 7.16829 8.04024 9.04964 8.62877 9.1707 8.60533 8.60533 
7.06698 6.55439 5.37851 5.13166 5.50297 4.67909 5.30227 5.56063 5.11617 
5.65633 5.46109 5.61106 5.54426 5.72151 5.90363 7.22565 6.53655 7.92375 
8.05469 8.50358 7.21282 6.87911 6.61441 7.05164 6.85832 6.37802 6.51605 
6.69743 6.69743 7.21356 8.02579 7.67866 8.14317 8.41893 8.57362 9.26803 
9.14696 9.4242 9.12307 8.9498 8.84746 8.67463 11.2932 11.2657 11.2657 
11.0807 9.51149 8.05469 7.81683 7.6412 7.56939 7.66937 8.0196 8.06369 
8.29875 8.99537 9.05406 8.34948 7.11446 5.9635 
rRFP 1 465 double
2644.63 2714.16 2730.32 2775.37 2864.42 2679.69 2716.38 2706.52 2791.15 
2776.89 2641.77 2563.09 2733.77 2854.75 2891.65 3439.88 2999.17 2717.53 
2679.94 2991.62 2694.78 2324.17 3109.23 2721.96 2574.96 2601.22 2677.11 
2695.6 2601.37 2595.1 2728.02 2755.81 3010.46 2844.06 2595.12 2607.57 
2953.88 2520.65 2308.04 2335.21 2619.78 2582.22 2560.4 2534.36 2542.25 
2522.72 2506.27 2506.16 2539.01 2534.07 2516.68 2518.37 2493.06 2517.88 
2569.95 2598 2618.94 2636.02 2648.1 2648.79 2663.88 2654.02 2665.11 
2665.11 2629.8 2601.12 2597.9 2645.96 2327.23 2327.23 2518.78 2476.47 
2462.46 2508.9 2499.9 2508.68 2529.93 2532.4 2558.11 2572.33 2557 
2620.98 2972.35 2962.99 2825.38 2836.47 2844.33 2927.22 3092.73 2947.11 
2940.36 2795.37 2733.75 2675.84 2632.9 2620.7 2619.16 2658.1 2651.53 
2722.31 2978.84 2813.89 2740.17 2795.3 2808.4 2592.38 2551.58 2518.22 
2519.37 2471.21 2480.63 2521.73 2511.98 2537.22 2564.33 2596.17 2628.33 
2653.78 2692.09 2692.09 2693.65 2714.01 2714.01 2688.01 2622.6 2622.6 
2583.99 2548.58 2556.95 2544.46 2566.2 2629.47 2648.79 2635.6 2799.2 
2844.06 2802.59 2907.9 3003.1 3137.31 2891.46 2795.91 2732.88 2702.73 
2730.9 2732.53 3220.75 3196.02 3190.37 3335.43 2638.6 2670.85 2668.47 
2617.58 2609.94 2609.94 2581.17 2590.99 2590.99 2580.98 2618.28 2636.99 
2686.74 2793.69 2775.4 2749.99 2680.11 2690.62 2738.12 2794 2769.65 
2829.53 2798.77 2731.44 2696.1 2683.06 2683.06 2645.69 2620.79 2598.69 
2656.85 2661.98 2680.52 2706.8 2678.86 2660.86 2719.81 2686.79 2665.25 
2791.23 2804.78 2780 2874.74 2914.09 2780.2 2725.52 2764.79 2628.14 
2627.74 2745.44 2745.96 2731.42 2723.21 2725.9 2792.53 2833.4 2833.05 
3004.02 3062.17 3014.41 3096.3 3043.98 2997.16 2944.69 2912.74 2929.17 
2814.63 2814.63 2754.4 2708.28 2711.93 2709.31 2697.04 2687.27 2712.46 
2736.72 2728.63 2763.79 2648.43 2541.69 2513.31 2486.57 2470.81 2458.05 
2483.49 2480.2 2483.38 2521.27 2521.27 2503.95 2495.01 2528.15 2525.85 
2562.65 2571.3 2614.46 2637.05 2649.28 2602.94 2607.48 2607.35 2620.43 
2657.67 2629.53 2616.58 2578.83 2575.2 2543.37 2526.05 2531.63 2542.19 
2620.96 2651.54 2753.47 2832.27 2700.75 2663.42 2513.56 2469.06 2643.23 
2583.64 2496.69 2460.2 2430.07 2423.12 2443.65 2459.19 2487.38 2503.64 
2536.17 2563.63 2534.52 2543.33 2587.6 2691.59 2624.77 2675.41 2696.09 
2910.6 2873.67 2903.72 2896.2 2781.4 2773.15 2908.07 3116.25 3050.37 
3017.58 3038.28 2914.9 2742.86 2756.85 2669.47 2655.64 2655.64 2581.43 
2570.63 2570.63 2515.04 2515.04 2521.36 2499.46 2500.14 2512.3 2536.93 
2536.93 2545.25 2522.53 2528.84 2543.48 2583.31 2583.31 2624.63 2601.54 
2577.77 2623.86 2588.63 2600.05 2638.4 2647.51 2767.26 2756.54 2770.54 
3122.65 3068.98 2965.41 2748.38 2807.89 2834.28 2830.35 2779.99 2648.96 
2581.26 2969.36 2977.28 2919.44 3008.42 3094.21 2919.79 2888.53 2802.6 
2777.58 2795.48 2785.93 2768.4 2756.56 2748.64 2742.26 2746.99 2719.17 
2770.53 2684.36 2677.8 2669 2675.26 2755.53 2740.52 2724.63 2742.09 
2818.09 2847.91 2826.16 2755.79 2752.28 2739.84 2728.75 2791.62 2997.01 
3012.02 2968.98 2970.58 2888.01 2866.04 2887.02 2850.31 2848.85 2836.73 
2803.27 2847.44 2821.68 2821.68 2830.3 2779.17 2735.84 2711.02 2711.02 
2721.77 2743.98 2726.33 2785.46 2853.91 2825.37 2862.12 2823.78 2823.78 
2719.46 2684.7 2604.96 2588.22 2613.4 2557.53 2599.79 2617.31 2587.17 