# vtk DataFile Version 3.0
vtk output
ASCII
DATASET POLYDATA
POINTS 589 float
5.75989 0.418753 1.50624 0.316123 1.21809 0.543437 -0.523654 1.03932 0.480654 
-0.606354 -0.0838106 0.400246 5.83204 -0.474655 1.06137 4.95618 -0.51311 0.969329 
2.37132 -0.998222 0.568142 6.16138 0.591641 0.702789 5.35379 -0.887608 0.876996 
4.50036 -0.575947 0.724668 2.17317 0.655311 0.240855 -0.866998 0.476797 -0.0705314 
2.487 -1.30934 0.288098 1.88804 -1.49253 0.389603 -0.659195 -0.203138 -0.219731 
5.42725 1.16974 0.107236 0.183764 1.38552 -0.523789 6.56038 0.456599 0.0224585 
0.229273 1.23207 -0.695559 6.45959 0.789997 -0.253198 4.34492 -0.916286 -0.0496053 
4.03476 -0.612313 -0.139186 3.33836 -0.883893 -0.169119 2.75577 0.0268692 -1.11993 
3.21583 -0.968198 -0.651072 3.00641 -0.772369 -0.431075 2.53996 0.382652 -0.801931 
5.88656 0.812321 -0.948909 3.05485 -1.31987 -0.531808 6.4975 -0.824155 -0.43632 
6.33657 0.621585 -0.71392 4.13833 -0.29823 -1.06978 6.18701 0.443049 -0.903224 
4.95416 0.608158 -1.07211 3.40043 -0.511927 -1.04664 0.00620742 0.467522 -1.6058 
6.13498 -0.734284 -0.90229 6.32419 0.078882 -1.02683 0.219797 -0.348004 -1.80334 
3.17369 -0.96423 -1.67258 3.02912 -0.821189 -1.80998 1.43898 -0.60491 -1.86486 
1.15808 -0.19604 -1.96996 0.578717 -0.048039 -2.06196 0.36219 -0.217466 -2.05602 
2.51446 -0.90911 -1.89323 2.14285 -0.420884 -2.02282 2.18674 -0.263541 -2.04609 
2.24244 -0.228007 -1.97803 2.29276 -0.216003 -1.91392 2.34424 -0.208334 -1.86405 
2.40168 -0.19197 -1.83778 2.4567 -0.192757 -1.82385 2.50988 -0.204371 -1.81576 
2.55996 -0.212887 -1.7823 2.60542 -0.202242 -1.67395 2.66071 -0.133984 -1.44344 
2.17211 -0.315988 -2.03833 2.15748 -0.368436 -2.03058 2.13752 -0.182681 -1.96773 
2.08891 -0.116547 -1.91693 2.03988 -0.0731076 -1.89998 1.99468 -0.0286389 -1.90549 
1.94974 0.00829964 -1.92477 1.91011 0.0600248 -1.95367 1.87345 0.118136 -1.99095 
1.832 0.167576 -2.01208 1.77957 0.186126 -2.01376 1.72096 0.19098 -1.99854 
1.67071 0.221587 -1.99456 1.61988 0.245868 -1.99709 1.56772 0.261163 -2.00572 
1.5156 0.276563 -2.01437 1.4661 0.301394 -2.02442 1.41978 0.341858 -2.02934 
1.36732 0.36874 -2.01737 1.30708 0.38047 -1.98085 1.24151 0.377317 -1.93469 
1.18076 0.387197 -1.89789 1.12512 0.402712 -1.88424 1.07078 0.418663 -1.8781 
1.01648 0.434717 -1.87197 0.960504 0.453268 -1.85134 0.904867 0.468783 -1.83769 
0.846541 0.474668 -1.82261 0.785338 0.461758 -1.81964 0.723841 0.456276 -1.80288 
0.661382 0.442694 -1.79236 0.602829 0.432194 -1.78952 0.553524 0.396528 -1.81897 
0.519632 0.344425 -1.85889 0.483914 0.29093 -1.89876 0.471739 0.234582 -1.91273 
0.484774 0.172885 -1.91534 0.498105 0.108929 -1.93264 0.531991 0.0342675 -1.98357 
2.56661 -0.924405 -1.8846 2.61665 -0.947291 -1.87484 2.66584 -0.973238 -1.86463 
2.72622 -0.959038 -1.86035 2.79189 -0.925357 -1.85747 2.8573 -0.895745 -1.84933 
2.92947 -0.872468 -1.83173 3.03982 -0.708591 -1.75023 3.01624 -0.621537 -1.714 
2.97868 -0.549763 -1.70689 2.942 -0.483201 -1.71692 2.91535 -0.420322 -1.73121 
2.89996 -0.358124 -1.71783 2.86047 -0.283852 -1.6305 2.80271 -0.172458 -1.4205 
3.13352 -1.04617 -1.72804 3.09079 -1.10743 -1.76731 3.06325 -1.15978 -1.77364 
3.03328 -1.20584 -1.75109 2.98586 -1.24336 -1.70429 2.94267 -1.28087 -1.64943 
2.89534 -1.31842 -1.6026 2.86674 -1.36403 -1.57494 2.84954 -1.41473 -1.56021 
2.83666 -1.46762 -1.55217 2.83273 -1.52171 -1.53534 2.84358 -1.57718 -1.50144 
2.84907 -1.62307 -1.43959 2.8735 -1.64693 -1.34925 2.91596 -1.62594 -1.23464 
2.959 -1.59402 -1.10678 2.99507 -1.53981 -0.976139 3.00896 -1.46842 -0.843512 
3.0216 -1.39266 -0.69666 0.346383 -0.273114 -2.06296 0.304777 -0.315374 -1.9783 
0.382329 -0.153332 -1.97438 0.432263 -0.104447 -1.93965 0.501701 -0.0714561 -1.97559 
0.283519 -0.235232 -1.92542 0.229053 -0.274208 -1.8428 0.621015 -0.0986743 -2.04809 
0.669997 -0.125346 -2.03777 0.722123 -0.140746 -2.02912 0.774763 -0.154306 -2.02074 
0.827432 -0.16776 -2.01238 0.88013 -0.18111 -2.00403 0.933312 -0.192724 -1.99594 
0.989155 -0.194803 -1.98926 1.04902 -0.182444 -1.98471 1.10486 -0.184531 -1.97803 
1.42435 -0.657357 -1.8571 1.40972 -0.709805 -1.84934 1.39498 -0.762226 -1.8416 
1.37922 -0.815475 -1.8414 1.35295 -0.867132 -1.85024 1.30333 -0.913916 -1.87017 
1.25108 -0.958822 -1.88316 1.21114 -1.00392 -1.88715 1.15845 -1.03436 -1.88764 
1.0999 -1.04486 -1.88479 1.03744 -1.05844 -1.87427 0.975947 -1.06393 -1.85751 
0.913924 -1.07554 -1.84729 0.857265 -1.07215 -1.84673 0.804597 -1.05869 -1.85509 
0.755069 -1.03398 -1.86512 0.70963 -0.994602 -1.87732 0.660677 -0.967826 -1.88766 
0.612238 -0.939209 -1.89826 0.569694 -0.885223 -1.90518 0.528656 -0.817365 -1.89928 
0.485677 -0.743766 -1.87191 0.441909 -0.668762 -1.8373 0.398681 -0.594728 -1.80853 
0.355404 -0.522503 -1.7976 0.300622 -0.443609 -1.79674 3.11221 -0.888534 -1.73652 
3.22888 -0.955227 -1.48646 3.24582 -0.965337 -1.26659 3.22898 -0.971428 -0.986763 
0.118161 -0.220783 -1.69076 0.0721308 -0.127764 -1.59754 0.0366381 -0.0512175 -1.54563 
0.0085953 0.0163392 -1.53215 -0.00413838 0.0768691 -1.53687 -0.0287994 0.139354 -1.55087 
-0.0516119 0.201367 -1.56457 -0.0502544 0.257205 -1.57444 -0.0375777 0.310152 -1.58251 
-0.0230529 0.362627 -1.59028 -0.00842272 0.415074 -1.59804 0.1106 -0.376517 -1.70152 
0.0432425 -0.406752 -1.60376 0.0168413 -0.444809 -1.5151 -0.0357371 -0.47691 -1.44107 
-0.106697 -0.505147 -1.37587 -0.181132 -0.532385 -1.31125 -0.256046 -0.556324 -1.23969 
-0.329759 -0.563263 -1.14834 -0.397675 -0.528242 -1.02599 -0.462259 -0.458752 -0.869705 
-0.53184 -0.385208 -0.682533 -0.603219 -0.293394 -0.469177 4.12329 -0.413139 -1.11648 
4.1119 -0.490749 -1.1417 4.1071 -0.547031 -1.12205 4.10888 -0.59363 -1.04282 
4.08044 -0.623999 -0.911851 4.02492 -0.640692 -0.740969 3.99215 -0.655957 -0.54506 
4.00024 -0.656441 -0.339613 4.24997 -0.308539 -1.12851 4.33081 -0.314331 -1.17892 
4.40116 -0.297145 -1.21697 4.46625 -0.273605 -1.22646 4.52621 -0.260494 -1.22203 
4.58849 -0.232405 -1.22004 4.64714 -0.197538 -1.24996 4.6942 -0.161127 -1.30418 
4.75661 -0.129725 -1.36334 4.82646 -0.0999018 -1.40624 4.89209 -0.0749544 -1.41845 
4.95085 -0.0623248 -1.4065 5.00932 -0.0422694 -1.38078 5.06676 -0.0301802 -1.36132 
5.12684 -0.0128305 -1.35007 5.18588 -0.0034464 -1.34509 5.24626 0.0107629 -1.34082 
5.30295 0.00747951 -1.34139 5.35859 -0.00803537 -1.35504 5.4162 -0.029187 -1.39017 
5.4746 -0.0517435 -1.43253 5.5322 -0.0728946 -1.46766 5.58784 -0.0884096 -1.48131 
5.6445 -0.0917975 -1.48187 5.70437 -0.0794383 -1.47733 5.76021 -0.0815167 -1.47065 
5.8134 -0.0931311 -1.46256 5.86527 -0.105181 -1.44696 5.91552 -0.114629 -1.41687 
5.96379 -0.118442 -1.3653 6.01393 -0.111323 -1.30791 6.06943 -0.0892173 -1.26018 
6.12576 -0.0727541 -1.22648 6.1866 -0.0382486 -1.18794 6.25167 0.0138708 -1.1218 
5.7558 0.698162 -1.09817 5.67017 0.625897 -1.18876 5.6017 0.582222 -1.21189 
5.53759 0.554217 -1.21612 5.47883 0.541588 -1.22806 5.42033 0.521428 -1.25377 
5.36159 0.508902 -1.26573 5.29722 0.484627 -1.26107 5.23166 0.464592 -1.24217 
5.17318 0.465694 -1.23383 5.11571 0.470374 -1.22601 5.05625 0.476433 -1.20353 
5.00396 0.529348 -1.15079 6.29061 0.174643 -1.01752 6.27143 0.253101 -0.988333 
6.23601 0.337895 -0.946973 6.398 0.049821 -1.0057 6.45849 0.043127 -0.974954 
6.51058 0.0522396 -0.917702 6.55112 0.0373913 -0.834732 6.59093 0.033285 -0.731067 
6.63423 0.0488097 -0.630521 6.67285 0.0960309 -0.528626 6.6866 0.16229 -0.430431 
6.67431 0.242214 -0.307333 6.62773 0.340105 -0.156002 6.18028 -0.736036 -0.828706 
6.2264 -0.739088 -0.762371 6.27413 -0.744847 -0.710518 6.32386 -0.756137 -0.680161 
6.37221 -0.776621 -0.655875 6.41703 -0.801267 -0.616101 6.4627 -0.801686 -0.542724 
3.3483 -0.496527 -1.05529 3.29883 -0.471601 -1.06535 3.25391 -0.430387 -1.07782 
3.2081 -0.392349 -1.08982 3.1655 -0.338563 -1.09671 3.11998 -0.282517 -1.08162 
3.06418 -0.242198 -1.02702 3.0061 -0.19845 -0.954567 2.95344 -0.134603 -0.919858 
2.88282 -0.0618259 -0.97697 4.96612 0.685295 -0.918022 5.00623 0.749784 -0.796333 
5.06339 0.802278 -0.723578 5.12728 0.846394 -0.693989 5.19324 0.884847 -0.685862 
5.25734 0.912368 -0.68356 5.31774 0.922397 -0.686111 5.38113 0.934651 -0.703864 
5.44508 0.936234 -0.742352 5.5112 0.94134 -0.788813 5.57284 0.930503 -0.830883 
5.63595 0.909329 -0.864882 5.72927 0.873529 -0.905469 4.88318 0.594085 -1.00945 
4.81656 0.591413 -0.955922 4.74755 0.571692 -0.914751 4.67883 0.540281 -0.894164 
4.61391 0.51406 -0.889217 4.55319 0.50214 -0.886362 4.49032 0.477467 -0.866324 
4.44157 0.442254 -0.820084 4.42226 0.398753 -0.761446 4.38441 0.358783 -0.713122 
4.34613 0.315649 -0.686992 4.30198 0.270744 -0.683922 4.26687 0.220254 -0.701542 
4.22926 0.167129 -0.741685 4.20699 0.108994 -0.786782 4.184 0.0521355 -0.824605 
4.14693 0.000508433 -0.852342 4.12679 -0.0609154 -0.891548 4.12505 -0.153348 -0.966025 
5.97002 0.669501 -1.00067 6.03588 0.60379 -1.03748 6.08795 0.568659 -1.03337 
6.13351 0.515256 -0.982802 6.03169 0.836114 -0.864594 6.11374 0.841262 -0.798697 
6.16626 0.834882 -0.746693 6.2108 0.815633 -0.694794 6.25009 0.766943 -0.658904 
6.29113 0.699085 -0.664806 6.26406 0.498286 -0.866568 6.31637 0.555637 -0.802808 
2.63569 0.248756 -0.984899 3.14812 -1.09866 -0.667665 3.11316 -1.1765 -0.655582 
3.09193 -1.22695 -0.615193 3.07275 -1.27262 -0.568552 6.38978 0.703781 -0.485398 
2.98202 -1.33224 -0.363656 2.92489 -1.35004 -0.215472 2.85911 -1.35967 -0.100019 
2.79155 -1.35587 -0.0174667 2.72222 -1.35856 0.0534253 2.6536 -1.35354 0.123014 
2.57574 -1.34557 0.203656 2.46255 0.417991 -0.573817 2.38618 0.457501 -0.343217 
2.31259 0.517952 -0.135217 2.24425 0.593533 0.0555233 3.05894 -0.788494 -0.413303 
3.12702 -0.845008 -0.488393 3.29078 -0.918556 -0.400945 6.5082 0.703384 -0.264978 
6.53933 0.632637 -0.261392 6.54763 0.576613 -0.220113 6.55784 0.521079 -0.120653 
4.08317 -0.691873 -0.210308 4.13341 -0.760606 -0.275591 4.1841 -0.80655 -0.307048 
4.22818 -0.846561 -0.287325 4.27056 -0.863039 -0.219004 4.31084 -0.878548 -0.135944 
4.08323 -0.543413 0.0280844 4.13331 -0.477219 0.180882 4.18452 -0.415467 0.319454 
4.23419 -0.367682 0.44521 4.27908 -0.349725 0.553075 4.32439 -0.351479 0.626649 
4.37012 -0.372987 0.665964 4.41153 -0.425082 0.687564 4.45331 -0.494575 0.704752 
4.41642 -0.959647 -0.207906 4.48546 -0.999107 -0.344471 4.55123 -1.03337 -0.452049 
4.61208 -1.05982 -0.516145 4.66802 -1.07848 -0.536766 4.71824 -1.08803 -0.506666 
4.76599 -1.09368 -0.454819 4.81375 -1.09934 -0.402981 4.86396 -1.10889 -0.372881 
4.915 -1.11975 -0.350019 4.96603 -1.1306 -0.327168 5.01542 -1.13885 -0.289818 
5.064 -1.14581 -0.24522 5.11012 -1.14886 -0.178885 5.15378 -1.14801 -0.0908135 
5.19499 -1.14326 0.0189951 5.23541 -1.13711 0.136037 5.27624 -1.12909 0.252799 
5.31676 -1.10663 0.382065 5.3506 -1.05153 0.527445 5.35841 -0.973232 0.696011 
4.38822 -0.841628 0.146335 4.42301 -0.763481 0.340689 4.44907 -0.675051 0.532211 
6.41932 0.908837 -0.0847237 6.36729 0.99651 0.0526853 6.30868 1.04403 0.141019 
6.25351 1.08083 0.186235 6.20564 1.1242 0.19576 6.15584 1.15217 0.19269 
6.10601 1.18004 0.189635 6.05757 1.22137 0.199462 5.99947 1.24077 0.234845 
5.93037 1.22919 0.289695 5.85947 1.21542 0.352311 5.79255 1.21589 0.412818 
5.72508 1.21014 0.466805 5.66195 1.20726 0.498044 5.60156 1.19305 0.493773 
5.5506 1.18723 0.443633 5.50642 1.18454 0.355833 5.466 1.17839 0.238791 
0.218036 1.30531 -0.61153 6.45889 0.499344 0.197671 6.38128 0.550521 0.346304 
6.32025 0.609173 0.45509 6.25773 0.637941 0.546346 6.19892 0.625015 0.625325 
2.40083 -1.35268 0.313905 2.32594 -1.3892 0.334712 2.25965 -1.41504 0.344473 
2.19865 -1.42423 0.351857 2.13606 -1.43789 0.362386 2.07405 -1.44521 0.37941 
2.00885 -1.46819 0.391308 1.94494 -1.49082 0.395724 -0.645115 -0.139773 0.0771591 
2.43877 -1.18785 0.43059 2.41267 -1.08828 0.529029 -0.852263 0.529218 -0.0782732 
-0.835784 0.581194 -0.0857381 -0.810453 0.632 -0.0844183 -0.770498 0.681251 -0.0660286 
-0.738662 0.736941 -0.0194226 -0.702484 0.794797 0.0500096 -0.673606 0.857789 0.140399 
-0.629287 0.917929 0.24063 -0.576932 0.978197 0.356874 4.58425 -0.568857 0.740447 
4.65177 -0.550348 0.767467 4.70421 -0.544214 0.817718 4.75233 -0.544843 0.87628 
4.80477 -0.538709 0.926531 4.87229 -0.520199 0.95355 5.41372 -0.836913 0.942821 
5.47447 -0.787517 1.0014 5.53594 -0.739396 1.05271 5.59648 -0.69213 1.09649 
5.64663 -0.641119 1.14601 5.68299 -0.587675 1.18596 5.73528 -0.542665 1.19893 
5.79237 -0.507609 1.15366 5.29092 -0.838736 0.989854 5.23372 -0.778009 1.08608 
5.17839 -0.727519 1.15406 5.12773 -0.677194 1.19231 5.07714 -0.647682 1.19645 
5.03069 -0.622153 1.16389 4.99313 -0.575632 1.08316 6.1855 0.547843 0.842102 
6.21126 0.501445 0.966918 6.24033 0.44995 1.06273 6.27315 0.394989 1.12931 
6.3119 0.344354 1.16548 6.35622 0.305603 1.18502 6.39548 0.251566 1.19915 
6.42066 0.190919 1.21287 6.41943 0.135161 1.22274 6.40675 0.0822144 1.23081 
6.39212 0.0297668 1.23857 6.37554 -0.0221817 1.24602 6.34763 -0.071239 1.25167 
6.29556 -0.114122 1.25348 6.24164 -0.156532 1.255 6.20037 -0.202174 1.25853 
6.14452 -0.243978 1.25972 6.07958 -0.281603 1.25913 6.01566 -0.309274 1.25688 
5.95823 -0.324226 1.2455 5.9088 -0.359971 1.21604 5.8754 -0.415472 1.15409 
6.07536 0.582527 0.868865 5.99364 0.56904 1.0135 5.9257 0.54876 1.13818 
5.88438 0.518406 1.24498 5.84574 0.486279 1.34481 5.79598 0.454809 1.42813 
2.29815 -0.951253 0.577321 2.22935 -0.938366 0.591853 2.16347 -0.946138 0.619876 
2.09831 -0.948463 0.664045 2.02818 -0.963742 0.719441 1.95804 -0.97902 0.774838 
1.89279 -0.981048 0.820833 1.82743 -0.987655 0.860075 1.76532 -0.978411 0.904402 
1.70242 -0.96777 0.955965 1.63679 -0.971133 1.00216 1.57767 -0.963844 1.02446 
1.52449 -0.95223 1.01637 1.47179 -0.93888 1.00802 1.41912 -0.925425 0.999657 
1.36561 -0.910775 0.998558 1.31324 -0.900461 0.983218 1.2574 -0.898374 0.976535 
1.19753 -0.910742 0.971992 1.14169 -0.908654 0.965309 1.09178 -0.902241 0.928232 
1.044 -0.896694 0.876401 0.995392 -0.889844 0.831828 0.94218 -0.878335 0.823752 
0.88255 -0.872896 0.846329 0.816236 -0.891421 0.87245 0.752348 -0.913953 0.876841 
0.696297 -0.916855 0.863466 0.639094 -0.915423 0.864312 0.576768 -0.92388 0.881513 
0.519805 -0.917352 0.889046 0.47143 -0.89697 0.864786 0.428363 -0.861804 0.830886 
0.378351 -0.838823 0.821113 0.31975 -0.829694 0.843144 0.255814 -0.835456 0.874819 
0.197519 -0.829468 0.889874 0.143545 -0.816457 0.889017 0.0913622 -0.801258 0.880395 
0.0418643 -0.776436 0.87035 -0.00357485 -0.737063 0.858152 -0.052557 -0.710391 0.847833 
-0.101512 -0.683624 0.8375 -0.146435 -0.642401 0.825029 -0.191915 -0.607408 0.806038 
-0.234717 -0.567049 0.778821 -0.277712 -0.535852 0.738078 -0.319666 -0.496688 0.703598 
-0.363784 -0.461051 0.67707 -0.405841 -0.40532 0.669894 -0.444394 -0.341258 0.654044 
-0.480607 -0.27844 0.621007 -0.514584 -0.219791 0.558692 -0.553694 -0.157625 0.482542 
5.00355 -0.442464 0.962003 5.05293 -0.389456 0.95807 5.09152 -0.341739 0.953867 
5.13593 -0.296828 0.950825 5.17542 -0.250843 0.947034 5.22984 -0.209552 0.953347 
5.28912 -0.179498 0.977365 5.34049 -0.171813 1.02722 5.38797 -0.174219 1.08602 
5.43576 -0.179768 1.13785 5.48594 -0.189427 1.16796 5.53728 -0.203422 1.18385 
5.58757 -0.229649 1.18666 5.63497 -0.274668 1.17738 5.68618 -0.318762 1.14565 
5.73632 -0.370928 1.10766 5.78702 -0.416863 1.0762 -0.601447 0.0209599 0.543543 
-0.578412 0.101432 0.675575 -0.567056 0.172836 0.78015 -0.572916 0.245138 0.86747 
-0.592299 0.317187 0.928079 -0.594813 0.381652 0.969231 -0.584486 0.438472 0.982915 
-0.570067 0.490974 0.975123 -0.55483 0.539993 0.945335 -0.546703 0.587556 0.89229 
-0.552275 0.637525 0.829681 -0.544148 0.685088 0.776637 -0.528911 0.734108 0.746848 
-0.514386 0.786582 0.739073 -0.501498 0.841657 0.745786 -0.490459 0.897205 0.752215 
-0.486742 0.949167 0.720597 -0.502407 0.99735 0.626879 -0.493692 1.08785 0.47533 
-0.439695 1.13013 0.473843 -0.375681 1.16908 0.481659 -0.314114 1.20064 0.505666 
-0.258955 1.22151 0.553579 -0.200255 1.25509 0.599623 -0.139943 1.28597 0.631183 
-0.0804168 1.2971 0.63591 -0.0200044 1.31141 0.640168 0.0358646 1.30942 0.646835 
0.0890468 1.29781 0.654926 0.145019 1.27926 0.634288 0.2026 1.258 0.599169 
0.26018 1.23675 0.564059 
LINES 52 700
11 47 48 49 50 51 52 53 54 55 56 23 
4 47 57 58 46 
39 47 59 60 61 62 63 64 65 66 67 68 69 70 71 72 73 74 75 76 77 78 79 80 81 82 83 84 85 86 87 88 89 90 91 92 93 94 95 43 
9 45 96 97 98 99 100 101 102 40 
10 40 103 104 105 106 107 108 109 110 23 
21 39 111 112 113 114 115 116 117 118 119 120 121 122 123 124 125 126 127 128 129 28 
4 44 130 131 38 
5 44 132 133 134 43 
4 44 135 136 38 
12 43 137 138 139 140 141 142 143 144 145 146 42 
28 41 147 148 149 150 151 152 153 154 155 156 157 158 159 160 161 162 163 164 165 166 167 168 169 170 171 172 38 
3 40 173 39 
5 39 174 175 176 24 
13 38 177 178 179 180 181 182 183 184 185 186 187 35 
10 31 200 201 202 203 204 205 206 207 21 
37 31 208 209 210 211 212 213 214 215 216 217 218 219 220 221 222 223 224 225 226 227 228 229 230 231 232 233 234 235 236 237 238 239 240 241 242 37 
15 27 243 244 245 246 247 248 249 250 251 252 253 254 255 33 
5 37 256 257 258 32 
12 37 259 260 261 262 263 264 265 266 267 268 17 
9 36 269 270 271 272 273 274 275 29 
12 34 276 277 278 279 280 281 282 283 284 285 23 
15 33 286 287 288 289 290 291 292 293 294 295 296 297 298 27 
21 33 299 300 301 302 303 304 305 306 307 308 309 310 311 312 313 314 315 316 317 31 
6 27 318 319 320 321 32 
8 27 322 323 324 325 326 327 30 
4 32 328 329 30 
6 24 331 332 333 334 28 
3 30 335 19 
9 28 336 337 338 339 340 341 342 12 
4 25 347 348 24 
3 24 349 22 
6 19 350 351 352 353 17 
8 21 354 355 356 357 358 359 20 
11 21 360 361 362 363 364 365 366 367 368 9 
23 20 369 370 371 372 373 374 375 376 377 378 379 380 381 382 383 384 385 386 387 388 389 8 
5 20 390 391 392 9 
20 19 393 394 395 396 397 398 399 400 401 402 403 404 405 406 407 408 409 410 15 
3 18 411 16 
7 17 412 413 414 415 416 7 
10 12 417 418 419 420 421 422 423 424 13 
11 11 428 429 430 431 432 433 434 435 436 2 
8 9 437 438 439 440 441 442 5 
10 8 443 444 445 446 447 448 449 450 4 
9 8 451 452 453 454 455 456 457 5 
24 7 458 459 460 461 462 463 464 465 466 467 468 469 470 471 472 473 474 475 476 477 478 479 4 
8 7 480 481 482 483 484 485 0 
19 5 540 541 542 543 544 545 546 547 548 549 550 551 552 553 554 555 556 4 
20 3 557 558 559 560 561 562 563 564 565 566 567 568 569 570 571 572 573 574 2 
16 2 575 576 577 578 579 580 581 582 583 584 585 586 587 588 1 
16 38 188 189 190 191 192 193 194 195 196 197 198 199 14 425 3 
8 23 330 26 343 344 345 346 10 
59 12 426 427 6 486 487 488 489 490 491 492 493 494 495 496 497 498 499 500 501 502 503 504 505 506 507 508 509 510 511 512 513 514 515 516 517 518 519 520 521 522 523 524 525 526 527 528 529 530 531 532 533 534 535 536 537 538 539 3 

POINT_DATA 589
SCALARS DY_raw double
LOOKUP_TABLE default
1388.82 749.691 611.619 725.114 933.046 768.017 596.306 648.585 746.164 
897.54 660.663 764.474 723.321 620.578 588.305 763.381 577.979 740.609 
540.415 589.2 624.337 660.243 1137.03 532.595 675.038 515.066 507.189 
650.576 626.453 1357.15 608.661 616.92 634.997 673.923 803.907 464.015 
655.424 747.185 495.212 573.247 568.577 621.743 706.995 517.041 522.387 
986.103 933.677 693.001 855.201 1035.25 974.902 915.945 875.506 875.506 
611.862 579.365 691.854 736.954 933.677 836.91 851.889 904.97 904.97 
961.492 937.219 829.831 753.769 753.769 755.842 673.683 673.683 644.443 
573.708 551.415 551.415 581.394 595.144 621.029 657.517 689.699 752.63 
752.63 766.89 650.47 615.934 651.634 686.573 686.573 717.808 751.373 
649.318 605.848 605.848 613.016 602.851 584 909.968 909.968 880.496 
795.422 760.256 699.827 622.129 584.137 623.143 629.553 636.322 623.075 
627.424 577.227 695.173 602.114 640.964 700.849 703.623 738.748 682.013 
595.614 595.614 534.388 459.841 459.841 458.088 485.301 539.98 592.707 
580.277 615.543 553.052 592.786 508.964 494.102 621.536 628.453 696.988 
562.001 505.211 582.655 656.854 656.854 732.369 742.724 654.026 654.026 
646.955 670.798 670.798 620.725 620.725 663.095 663.095 745.964 873.054 
873.054 900.409 891.464 847.676 847.676 889.128 660.961 625.846 625.846 
566.215 551.142 529.913 501.772 459.283 475.671 477.461 507.914 525.905 
584.094 579.051 545.473 624.82 700.739 751.987 519.804 611.588 666.591 
666.174 647.253 647.253 580.331 526.279 526.279 463.896 464.015 470.677 
498.673 601.389 535.053 487.552 529.344 475.519 500.324 646.628 612.074 
584.402 616.205 632.603 689.693 660.195 566.58 585.537 564.727 540.474 
613.854 662.736 612.503 651.871 713.733 816.526 902.829 961.825 963.23 
935.799 897.67 802.877 853.895 853.895 878.235 984.241 861.556 947.915 
1002.3 901.75 842.704 744.504 693.948 650.391 650.391 665.689 698.39 
698.39 642.884 680.658 680.658 734.167 821.401 776.5 712.647 748.362 
715.627 748.43 866.076 962.625 1004.74 1004.74 975.138 861.161 907.305 
779.221 747.554 800.087 670.043 673.748 650.673 631.337 762.256 752.395 
677.995 567.111 543.257 596.421 615.149 599.196 612.694 594.635 665.412 
668.906 713.252 740.893 750.668 810.919 918.054 803.907 644.735 626.444 
615.274 652.976 695.327 758.724 694.394 631.631 569.538 779.057 956.074 
865.096 865.096 816.497 897.587 790.946 907.635 744.683 702.653 682.42 
660.408 642.846 709.365 632.563 709.252 658.465 698.055 732.677 731.637 
796.851 872.189 986.366 935.14 935.14 917.843 916.837 809.991 726.06 
710.476 641.162 571.115 677.908 620.618 557.443 578.159 584.881 597.621 
609.897 577.742 569.583 613.815 638.025 618.358 599.91 628.461 590.538 
597.915 629.115 574.067 594.697 610.521 616.545 651.974 611.948 710.043 
685.714 508.299 533.248 520.584 539.447 516.952 543.252 805.213 627.242 
687.092 709.454 674.689 668.134 690.199 722.546 601.116 612.708 605.221 
626.037 673.438 694.07 697.796 781.109 815.574 838.466 804.564 809.15 
642.219 677.206 748.44 645.042 673.74 662.38 703.509 750.354 735.699 
735.699 726.945 702.739 708.602 658.477 672.915 688.288 645.567 625.889 
703.878 724.373 703.69 652.543 811.534 856.758 572.465 579.4 634.92 
697.732 763.615 795.132 777.663 774.65 832.158 815.024 751.622 807.137 
649.513 624.624 624.624 580.406 574.588 650.174 560.48 748.343 733.518 
717.674 690.131 648.191 717.326 776.513 782.699 665.888 620.588 697.43 
593.677 644.359 691.62 783.115 683.917 653.046 653.046 632.24 647.41 
708.724 715.047 742.886 722.411 603.845 892.915 955.477 941.665 797.009 
812.046 844.084 766.149 728.532 845.048 1053.83 1146.6 1363.95 1191.35 
881.872 724.75 881.526 1042.24 1248.22 1131.82 1092.47 902.371 649.718 
734.905 814.845 775.31 745.457 701.823 662.729 646.618 646.618 707.196 
751.603 751.603 809.932 789.027 789.027 815.825 753.522 750.571 796.205 
794.883 819.897 806.855 599.574 694.268 797.081 872.955 877.609 957.84 
591.491 563.787 602.538 693.068 730.17 741.002 646.455 665.855 631.644 
618.454 618.454 654.237 683.058 683.058 727.433 792.004 792.004 732.409 
732.409 713.378 666.914 740.603 691.379 700.202 759.087 761.387 841.819 
829.755 923.347 959.376 891.013 873.418 816.41 755.606 731.138 731.138 
752.072 777.875 805.442 805.442 791.342 715.04 715.04 725.137 718.16 
728.687 657.876 665.979 659.877 710.491 747.852 765.755 746.412 737.882 
770.699 752.876 792.623 764.893 808.174 818.077 822.56 903.536 946.319 
1008.99 926.814 926.814 875.819 816.337 753.867 718.259 739.702 722.093 
765.903 825.847 809.976 894.188 906.495 827.932 773.548 743.632 708.258 
684.315 733.039 766.56 766.56 743.68 759.347 759.347 648.809 601.794 
655.799 730.558 729.268 863.971 869.547 888.38 852.661 831.514 810.282 
810.282 733.789 713.663 684.567 
FIELD FieldData 7
DY_minmax 1 589 double
1 0.313304 0.164957 0.286898 0.510304 0.332995 0.148504 0.204674 0.309514 
0.472156 0.21765 0.329188 0.284972 0.174583 0.139907 0.328014 0.128813 0.303547 
0.0884538 0.140869 0.178622 0.2172 0.729463 0.0800519 0.233096 0.0612185 0.052755 
0.206813 0.180895 0.965966 0.161779 0.170652 0.190075 0.231898 0.371555 0.00636862 
0.212022 0.310612 0.0398867 0.123729 0.118712 0.175834 0.267431 0.06334 0.069084 
0.56731 0.510983 0.252395 0.426666 0.620115 0.555276 0.49193 0.448482 0.448482 
0.165218 0.130303 0.251163 0.299619 0.510983 0.407014 0.423108 0.480139 0.480139 
0.540867 0.514788 0.399408 0.317686 0.317686 0.319913 0.23164 0.23164 0.200224 
0.124225 0.100273 0.100273 0.132483 0.147256 0.175067 0.214271 0.248848 0.316462 
0.316462 0.331783 0.206699 0.169593 0.20795 0.245489 0.245489 0.279048 0.315112 
0.205461 0.158757 0.158757 0.166458 0.155537 0.135282 0.485509 0.485509 0.453844 
0.362439 0.324655 0.259729 0.176249 0.135429 0.177339 0.184226 0.191499 0.177266 
0.181938 0.128005 0.25473 0.154744 0.196486 0.260828 0.263807 0.301547 0.24059 
0.147761 0.147761 0.0819786 0.00188386 0.00188386 0 0.0292385 0.087987 0.144638 
0.131283 0.169173 0.102032 0.144723 0.0546625 0.0386942 0.175613 0.183044 0.256679 
0.111646 0.0506307 0.133838 0.213558 0.213558 0.294693 0.305819 0.21052 0.21052 
0.202922 0.22854 0.22854 0.174741 0.174741 0.220264 0.220264 0.3093 0.445848 
0.445848 0.475239 0.465628 0.418581 0.418581 0.463118 0.217971 0.180242 0.180242 
0.116174 0.0999792 0.0771704 0.046935 0.00128381 0.0188922 0.0208154 0.0535347 0.0728645 
0.135384 0.129965 0.0938886 0.17914 0.260709 0.315771 0.0663089 0.164924 0.22402 
0.223572 0.203243 0.203243 0.131341 0.0732662 0.0732662 0.0062409 0.00636862 0.0135261 
0.0436054 0.153966 0.0826934 0.0316567 0.0765591 0.0187281 0.04538 0.202571 0.165446 
0.135714 0.169884 0.187503 0.248841 0.217148 0.116567 0.136934 0.114575 0.0885173 
0.167358 0.219879 0.165907 0.208204 0.27467 0.385113 0.477839 0.541225 0.542734 
0.513262 0.472295 0.370448 0.425263 0.425263 0.451415 0.565309 0.433494 0.52628 
0.584716 0.476679 0.41324 0.307731 0.253413 0.206614 0.206614 0.223051 0.258186 
0.258186 0.198549 0.239133 0.239133 0.296625 0.390351 0.342108 0.273503 0.311876 
0.276706 0.311949 0.438351 0.542085 0.587334 0.587334 0.555529 0.433069 0.482648 
0.345032 0.311008 0.36745 0.227729 0.23171 0.206918 0.186143 0.326804 0.316209 
0.236273 0.117136 0.0915076 0.148628 0.16875 0.151609 0.166111 0.146709 0.222753 
0.226507 0.274154 0.303852 0.314354 0.379089 0.494196 0.371555 0.200537 0.180885 
0.168884 0.209391 0.254894 0.32301 0.253892 0.186459 0.119745 0.344856 0.535046 
0.437297 0.437297 0.385082 0.472206 0.35763 0.483002 0.307923 0.262766 0.241026 
0.217377 0.198507 0.269977 0.187459 0.269856 0.215289 0.257825 0.295024 0.293906 
0.363974 0.444919 0.567592 0.512554 0.512554 0.49397 0.492889 0.378091 0.287915 
0.271171 0.196699 0.121439 0.236179 0.174626 0.10675 0.129007 0.13623 0.149918 
0.163106 0.128559 0.119793 0.167316 0.193328 0.172198 0.152376 0.183052 0.142307 
0.150233 0.183755 0.12461 0.146776 0.163778 0.17025 0.208315 0.165311 0.270705 
0.244567 0.0539476 0.0807532 0.0671475 0.0874141 0.0632445 0.0915019 0.372959 0.181743 
0.246047 0.270073 0.232721 0.225677 0.249385 0.284139 0.153673 0.166127 0.158083 
0.180448 0.231377 0.253544 0.257547 0.34706 0.384091 0.408686 0.372261 0.377188 
0.197834 0.235425 0.31196 0.200868 0.231701 0.219496 0.263686 0.314016 0.298271 
0.298271 0.288865 0.262858 0.269157 0.215302 0.230815 0.247332 0.201432 0.180289 
0.264082 0.286103 0.263879 0.208927 0.37975 0.428339 0.122889 0.13034 0.189992 
0.257479 0.328265 0.362127 0.343358 0.34012 0.401908 0.3835 0.315379 0.375025 
0.205671 0.17893 0.17893 0.131422 0.12517 0.206382 0.110012 0.311856 0.295928 
0.278904 0.249312 0.204251 0.278531 0.342122 0.348769 0.223264 0.174594 0.257154 
0.14568 0.200133 0.250912 0.349216 0.242635 0.209467 0.209467 0.187112 0.203412 
0.269289 0.276082 0.305993 0.283994 0.156605 0.467187 0.534405 0.519565 0.364144 
0.3803 0.414721 0.330987 0.29057 0.415758 0.640079 0.739749 0.973281 0.78783 
0.455322 0.286507 0.45495 0.627626 0.848933 0.723876 0.68159 0.477347 0.205892 
0.297418 0.383306 0.34083 0.308755 0.261874 0.219871 0.202561 0.202561 0.267647 
0.315358 0.315358 0.378029 0.355567 0.355567 0.38436 0.31742 0.31425 0.36328 
0.361859 0.388734 0.374723 0.152016 0.253756 0.364221 0.445742 0.450742 0.536944 
0.143331 0.113565 0.1552 0.252467 0.292331 0.303969 0.202386 0.22323 0.186472 
0.172301 0.172301 0.210746 0.241712 0.241712 0.28939 0.358766 0.358766 0.294736 
0.294736 0.274288 0.224367 0.30354 0.250653 0.260132 0.323399 0.325871 0.412289 
0.399327 0.499884 0.538594 0.465143 0.446238 0.384988 0.31966 0.293371 0.293371 
0.315862 0.343585 0.373205 0.373205 0.358054 0.276075 0.276075 0.286923 0.279427 
0.290737 0.214657 0.223362 0.216806 0.271187 0.311328 0.330564 0.309781 0.300616 
0.335875 0.316727 0.359431 0.329637 0.376139 0.38678 0.391597 0.478598 0.524565 
0.591903 0.503609 0.503609 0.448819 0.38491 0.317791 0.279533 0.302571 0.283652 
0.330723 0.395128 0.378076 0.468554 0.481778 0.397368 0.338937 0.306795 0.268787 
0.243063 0.295413 0.331429 0.331429 0.306846 0.323678 0.323678 0.204914 0.154401 
0.212425 0.292748 0.291361 0.436089 0.44208 0.462314 0.423937 0.401216 0.378405 
0.378405 0.296219 0.274595 0.243333 
WidthEq 1 589 double
1 1.85688 2.11473 2.37425 1.54849 2.16071 3.62618 3.35779 2.90565 
1.89464 3.02827 1.74853 2.98363 2.92528 3.52644 1.70742 3.38532 2.95012 
3.48686 3.88254 3.6748 3.74585 1.65429 3.80374 3.08273 3.23449 4.22228 
3.2324 4.0454 1.11528 3.50608 2.75949 3.08413 2.91925 2.42431 3.47815 
1.61949 2.88083 3.16744 3.78046 3.54347 2.93549 2.55555 2.89098 2.46779 
1.58446 1.82921 2.88186 2.20091 1.67551 1.73316 1.81298 1.89248 1.89248 
2.75457 2.93601 2.61407 2.55737 1.82921 2.21734 1.94352 1.68891 1.68891 
1.54239 1.63069 1.9455 2.22305 2.22305 2.20604 2.58606 2.58606 2.64871 
2.90784 2.82802 2.82802 2.70764 2.56513 2.61043 2.61533 2.5596 2.2879 
2.2879 2.26785 2.5719 2.69059 2.60194 2.57867 2.57867 2.57345 2.56911 
2.80924 2.82523 2.82523 2.80006 2.85316 2.77073 1.69964 1.69964 1.7111 
1.98388 2.11824 2.42408 3.00645 3.37303 2.83253 2.59796 2.76282 2.75892 
3.00081 3.40201 3.04054 3.47945 3.05673 2.71902 2.73681 2.59221 2.60967 
3.22938 3.22938 3.80539 4.72446 4.72446 4.73903 4.76964 4.22666 3.93881 
4.26197 3.83064 3.89394 3.81681 2.53083 2.75011 2.51276 2.66642 2.47168 
2.69694 3.11787 2.7869 2.5093 2.5093 2.17921 2.22643 2.72771 2.72771 