# vtk DataFile Version 3.0
vtk output
ASCII
DATASET POLYDATA
POINTS 528 float
1.35346 -0.0539659 1.90142 0.587297 0.229359 1.63492 0.361739 -0.473485 1.43933 
2.57154 -0.207075 1.52175 -0.0281265 -0.289876 1.24231 2.9456 0.31834 1.17225 
0.245942 -1.22105 0.57425 0.539557 1.30165 0.647923 -0.0487775 -1.06689 0.271615 
-0.222416 -0.477126 0.352415 3.4604 -1.77189 0.218606 -0.17978 0.881801 0.126469 
2.69645 0.933903 0.210469 3.85526 -0.927488 -0.105113 3.85091 -0.5597 -0.0761755 
0.0376506 -1.49672 -0.657516 -0.259486 0.756463 -0.487748 3.81455 -0.675794 -0.487758 
3.86146 -1.03974 -0.71591 0.320926 -1.12813 -1.22263 3.85777 -0.799953 -1.09847 
0.081108 0.920592 -1.26812 0.221915 -0.107047 -1.75795 2.75038 -1.83363 -1.61229 
1.827 1.39442 -1.3829 4.03741 -0.371352 -1.50116 0.499186 -0.196548 -1.74617 
1.91865 -1.71148 -1.82644 2.97371 -1.52153 -1.78213 2.50894 0.675107 -1.75529 
2.67802 0.60905 -1.62201 5.19127 0.16723 -1.58712 2.41493 -1.60929 -2.00529 
2.73339 -1.50814 -1.98845 2.36365 0.646251 -1.8285 4.46649 -0.437077 -1.85569 
2.5497 -0.0474112 -2.07884 2.58727 -0.0898707 -2.08115 2.63836 -0.125299 -2.08253 
2.68565 -0.160626 -2.08401 2.74346 -0.179377 -2.08389 2.80159 -0.180972 -2.0824 
2.85747 -0.201175 -2.07501 2.89375 -0.243089 -2.06245 2.91995 -0.29315 -2.03594 
2.94611 -0.343359 -2.00945 2.98094 -0.389611 -1.97497 3.03116 -0.42752 -1.94683 
3.07852 -0.466892 -1.9189 3.14121 -0.497822 -1.8973 3.21184 -0.523131 -1.8676 
3.27905 -0.539818 -1.82246 3.33834 -0.541882 -1.76894 3.39931 -0.546221 -1.72299 
3.45308 -0.533654 -1.6982 3.50285 -0.510376 -1.69498 3.55239 -0.483733 -1.7138 
3.60251 -0.455243 -1.75476 3.65287 -0.426268 -1.8031 3.70387 -0.39949 -1.84417 
3.75882 -0.383335 -1.86367 3.82007 -0.38287 -1.85598 3.87568 -0.373547 -1.80018 
3.94078 -0.365717 -1.67733 4.42556 -0.489999 -1.76438 4.36406 -0.495147 -1.69959 
4.30176 -0.471831 -1.66975 4.25312 -0.436124 -1.65489 4.1978 -0.404268 -1.63013 
4.13583 -0.377725 -1.57624 2.48318 0.751961 -1.73754 2.45899 0.810189 -1.71131 
2.44304 0.86204 -1.6581 2.43996 0.917585 -1.58195 2.42292 0.964806 -1.48949 
2.39742 1.00865 -1.41239 2.37092 1.05342 -1.35756 2.34504 1.10043 -1.33227 
2.31786 1.14772 -1.32185 2.28028 1.19018 -1.31954 2.21895 1.22097 -1.32625 
2.14894 1.2478 -1.34094 2.08792 1.27971 -1.36241 2.04899 1.32231 -1.37499 
2.01068 1.3627 -1.3803 1.9544 1.38224 -1.38032 1.89461 1.38286 -1.38193 
2.42592 0.664125 -1.79315 2.66032 -1.48624 -1.98875 2.59266 -1.47481 -1.98972 
2.53744 -1.48752 -1.99226 2.48856 -1.51251 -1.99559 2.44597 -1.5497 -1.99972 
2.72098 -1.58298 -1.89064 2.73028 -1.64839 -1.79892 2.745 -1.7243 -1.70787 
2.78243 -1.48739 -1.95571 2.83647 -1.47829 -1.90889 2.90249 -1.49438 -1.84887 
2.34727 -1.59786 -2.00626 2.28639 -1.60056 -2.00073 2.22358 -1.60147 -1.98025 
2.16791 -1.61919 -1.9386 2.11578 -1.64489 -1.89004 2.05927 -1.66393 -1.84851 
1.99123 -1.67485 -1.82897 2.43835 -1.66329 -1.942 2.46369 -1.71583 -1.88598 
2.49993 -1.76232 -1.83662 2.56194 -1.79563 -1.78549 2.64444 -1.81991 -1.71079 
5.15227 0.13581 -1.68731 5.1223 0.0829891 -1.75922 5.08771 0.0351821 -1.80113 
5.0388 0.0131832 -1.82652 4.99752 -0.0235986 -1.85287 4.94801 -0.0463823 -1.86348 
4.88732 -0.0494626 -1.85798 4.83174 -0.0634194 -1.84576 4.77672 -0.0755284 -1.85568 
4.71618 -0.0739803 -1.88697 4.66177 -0.0843398 -1.91903 4.60655 -0.0970324 -1.92157 
4.54437 -0.10015 -1.89381 4.48807 -0.115661 -1.85943 4.43135 -0.12839 -1.83971 
4.36417 -0.119853 -1.82604 4.29683 -0.111997 -1.80499 4.24017 -0.128772 -1.75585 
4.18835 -0.157904 -1.68675 4.13718 -0.193885 -1.60775 4.08677 -0.255127 -1.5456 
2.59861 0.64021 -1.68618 2.94728 -1.60281 -1.69265 2.92068 -1.68009 -1.6326 
2.88795 -1.74476 -1.60889 2.83293 -1.78902 -1.60648 3.01624 -1.48424 -1.77801 
3.05274 -1.43523 -1.77312 3.09705 -1.40138 -1.76921 3.15045 -1.38515 -1.76645 
3.21063 -1.38305 -1.75718 3.25973 -1.36144 -1.73181 3.30045 -1.3265 -1.68332 
3.34937 -1.30845 -1.62849 3.38832 -1.27009 -1.57978 3.42631 -1.22789 -1.54566 
3.46115 -1.17959 -1.51114 3.50329 -1.14743 -1.46284 3.5497 -1.12548 -1.40035 
3.59757 -1.10736 -1.33068 3.64986 -1.09878 -1.25422 3.70869 -1.10474 -1.16386 
3.76018 -1.09829 -1.04298 3.80884 -1.07738 -0.891312 1.94352 -1.79532 -1.74318 
1.97817 -1.85251 -1.70214 2.02762 -1.88994 -1.71115 2.0641 -1.93161 -1.73573 
2.09249 -1.97924 -1.73127 2.12691 -2.02666 -1.68203 2.17398 -2.06952 -1.60234 
2.20951 -2.11781 -1.53083 2.24716 -2.16406 -1.47397 2.30761 -2.19757 -1.43035 
2.37727 -2.22516 -1.37112 2.44304 -2.24197 -1.30372 2.49735 -2.23634 -1.23488 
2.55175 -2.22598 -1.20281 2.61234 -2.22271 -1.2083 2.66152 -2.19241 -1.24914 
2.6943 -2.12738 -1.30999 2.72052 -2.04668 -1.39209 2.74102 -1.95194 -1.49553 
1.83324 -1.69492 -1.82007 1.7648 -1.69497 -1.79968 1.69406 -1.68494 -1.75625 
1.61941 -1.66691 -1.70486 1.54419 -1.6467 -1.66076 1.46952 -1.62463 -1.63879 
1.39527 -1.60141 -1.63158 1.32122 -1.57759 -1.63176 1.24718 -1.55378 -1.63193 
1.17323 -1.52992 -1.6321 1.1009 -1.50523 -1.63216 1.03744 -1.476 -1.63161 
0.987464 -1.43989 -1.63015 0.92401 -1.41066 -1.6296 0.851679 -1.38597 -1.62966 
0.77773 -1.36211 -1.62983 0.70378 -1.33825 -1.63 0.631341 -1.31409 -1.62266 
0.569086 -1.28568 -1.59985 0.530186 -1.24677 -1.55326 0.499754 -1.20449 -1.4913 
0.460033 -1.16791 -1.41517 0.395933 -1.14476 -1.32592 0.461544 -0.154498 -1.77363 
0.406223 -0.132269 -1.80686 0.347478 -0.128766 -1.83052 0.282393 -0.113677 -1.81255 
0.168161 -0.149374 -1.68474 0.106688 -0.169149 -1.62483 0.0468281 -0.181719 -1.57545 
-0.0100287 -0.196745 -1.53733 -0.0472809 -0.252134 -1.48328 -0.0747693 -0.328179 -1.41571 
-0.0992274 -0.407857 -1.33349 -0.112694 -0.481673 -1.25792 -0.100269 -0.541774 -1.188 
-0.0681677 -0.591337 -1.12412 -0.02077 -0.6326 -1.0666 0.0120442 -0.680363 -1.02486 
0.0279218 -0.734872 -1.01386 0.0296259 -0.794712 -1.03341 0.0472408 -0.844505 -1.08145 
0.0846408 -0.883226 -1.14294 0.146216 -0.909109 -1.21018 0.207879 -0.934947 -1.27741 
0.246798 -0.973369 -1.33139 0.274186 -1.02008 -1.34919 0.29822 -1.07233 -1.30805 
3.99275 -0.504746 -1.39697 3.95518 -0.59344 -1.31732 3.9164 -0.651084 -1.25753 
3.88509 -0.720387 -1.18806 0.0284736 0.889148 -1.168 -0.0276939 0.865538 -1.07479 
-0.0872602 0.847538 -0.973806 -0.138359 0.809192 -0.844449 -0.19982 0.78604 -0.677018 
3.86647 -0.866986 -0.969725 3.8607 -0.947985 -0.842479 3.85133 -0.754496 -0.894355 
3.821 -0.72125 -0.69187 0.292496 -1.21534 -1.05934 0.264584 -1.30061 -0.918185 
0.235768 -1.3802 -0.806339 0.197951 -1.43744 -0.730146 0.141641 -1.45489 -0.681057 
0.0876198 -1.47285 -0.661679 3.89167 -0.997412 -0.511027 3.88261 -0.961058 -0.307706 
3.85867 -1.13714 -0.530419 3.83952 -1.22725 -0.367104 3.81276 -1.30959 -0.247982 
3.78072 -1.37694 -0.179864 3.73823 -1.419 -0.147197 3.69732 -1.46014 -0.114414 
3.67513 -1.51976 -0.0528471 3.66637 -1.57635 0.0390755 3.63722 -1.62637 0.130951 
3.60153 -1.68157 0.192492 3.55743 -1.71951 0.218003 3.50923 -1.7468 0.221944 
3.83442 -0.735438 -0.365548 3.84591 -0.798405 -0.258704 3.84446 -0.866556 -0.174928 
3.83273 -0.617747 -0.281967 -0.281388 0.683597 -0.494113 -0.294509 0.615219 -0.49988 
-0.294068 0.553776 -0.504722 -0.305671 0.485696 -0.502988 -0.317682 0.416451 -0.486494 
-0.318382 0.351554 -0.447046 -0.331117 0.280025 -0.401009 -0.342234 0.209324 -0.354873 
-0.332429 0.149798 -0.314708 -0.322722 0.0902204 -0.27454 -0.335046 0.0198592 -0.243281 
-0.355751 -0.0538305 -0.227371 -0.367371 -0.122397 -0.218249 -0.355227 -0.179293 -0.200109 
-0.333105 -0.232522 -0.159095 -0.309964 -0.287029 -0.090908 -0.28689 -0.34468 0.0141985 
-0.259809 -0.407731 0.166073 -0.240322 0.812602 -0.28208 -0.215801 0.858351 -0.0770844 
3.77518 -0.545377 0.0194901 3.7044 -0.542612 0.129242 3.64491 -0.562728 0.244935 
3.58548 -0.582941 0.360612 3.51563 -0.581986 0.470257 3.44542 -0.582294 0.594643 
3.38626 -0.60597 0.732362 3.33125 -0.639686 0.884275 3.27292 -0.664985 1.02189 
3.20744 -0.673477 1.13833 3.14456 -0.681861 1.21769 3.07619 -0.672462 1.276 
3.01411 -0.647564 1.32084 2.97343 -0.610165 1.3747 2.93432 -0.571839 1.42868 
2.88205 -0.539766 1.47436 2.83508 -0.503545 1.49821 2.78392 -0.468508 1.507 
2.74807 -0.425171 1.50942 2.72119 -0.377245 1.51246 2.69582 -0.328542 1.51561 
2.66884 -0.280666 1.51864 2.63136 -0.238161 1.52096 3.86491 -0.48035 -0.233048 
3.85575 -0.414752 -0.361926 3.83506 -0.357441 -0.4546 3.81225 -0.302173 -0.532632 
3.78954 -0.246371 -0.618055 3.76745 -0.188821 -0.72562 3.74557 -0.130686 -0.84057 
3.72337 -0.0736683 -0.940755 3.70166 -0.0187904 -1.00392 3.6862 0.0368847 -1.02968 
3.6747 0.0931545 -1.03299 3.63607 0.135073 -1.03075 3.60203 0.179337 -1.0282 
3.57494 0.226679 -1.01777 3.54744 0.272856 -0.992592 3.51187 0.312987 -0.938378 
3.46957 0.348246 -0.862427 3.44652 0.392392 -0.770388 3.41473 0.433022 -0.693722 
3.40321 0.485453 -0.637868 3.3864 0.537096 -0.611957 3.36265 0.586142 -0.601305 
3.33748 0.634944 -0.598148 3.3106 0.682871 -0.595108 3.27484 0.726257 -0.592674 
3.22531 0.762127 -0.583779 3.18701 0.802299 -0.551935 3.14759 0.83951 -0.483197 
3.09359 0.866871 -0.378462 3.04193 0.893995 -0.251393 2.97488 0.912775 -0.117964 
2.89911 0.927453 0.0074518 2.82323 0.941339 0.110514 2.75368 0.947604 0.175971 
3.81951 -1.00049 0.0590926 3.77287 -1.04944 0.202598 3.72164 -1.08558 0.317256 
3.67035 -1.11766 0.402497 3.61921 -1.14907 0.480361 3.56792 -1.18116 0.565602 
3.51705 -1.21602 0.665498 3.47096 -1.25917 0.757445 3.43262 -1.31344 0.818986 
3.38838 -1.35134 0.844497 3.34017 -1.37863 0.848438 3.29134 -1.40372 0.8451 
3.24246 -1.42871 0.841767 3.19338 -1.45428 0.84582 3.14414 -1.48054 0.85724 
3.09552 -1.50899 0.875939 3.05189 -1.54514 0.879307 3.0154 -1.59416 0.874421 
2.97197 -1.62973 0.870404 2.92316 -1.65876 0.896488 2.8731 -1.68735 0.937445 
2.82298 -1.71584 0.978398 2.77349 -1.74258 0.997208 2.7244 -1.76815 1.00126 
2.67552 -1.79315 0.997928 2.62659 -1.81804 0.994602 2.57703 -1.84073 0.983997 
2.52331 -1.8534 0.959206 2.46306 -1.85144 0.920518 2.40955 -1.86352 0.888343 
2.35973 -1.88671 0.885128 2.3091 -1.91222 0.91144 2.25369 -1.92945 0.945709 
2.19087 -1.93036 0.96619 2.1302 -1.93248 0.964338 2.06315 -1.9193 0.941219 
1.99668 -1.90429 0.895963 1.93655 -1.9006 0.842543 1.87007 -1.88559 0.797288 
1.80298 -1.87233 0.774174 1.74162 -1.87214 0.765049 1.67392 -1.86062 0.764078 
1.60621 -1.84911 0.763108 1.5446 -1.84941 0.761372 1.4758 -1.83676 0.767897 
1.40223 -1.81583 0.782369 1.32762 -1.79386 0.80433 1.25326 -1.77117 0.81893 
1.18072 -1.74706 0.826256 1.11737 -1.71779 0.82681 1.06931 -1.68021 0.821008 
1.01686 -1.6444 0.807509 0.969208 -1.60565 0.786949 0.90636 -1.57516 0.77275 
0.835949 -1.54901 0.765425 0.772602 -1.51973 0.765979 0.722614 -1.48362 0.767444 
0.659161 -1.45439 0.767991 0.586927 -1.42965 0.767939 0.514692 -1.40491 0.767888 
0.451337 -1.37563 0.768441 0.403278 -1.33805 0.76264 0.351238 -1.30108 0.734382 
0.304917 -1.25879 0.669544 -0.157469 0.820659 0.293224 -0.124981 0.768443 0.43867 
-0.0740961 0.742473 0.564392 -0.0289651 0.756562 0.670832 0.0057007 0.796131 0.771548 
0.0471228 0.825777 0.84938 0.0938908 0.848981 0.897108 0.142671 0.874168 0.900452 
0.191745 0.903689 0.866988 0.23744 0.941725 0.819221 0.279685 0.985468 0.779255 
0.329567 1.01048 0.767744 0.364923 1.06072 0.780132 0.395479 1.11911 0.802944 
0.433853 1.16907 0.795564 0.477103 1.23295 0.742345 -0.149473 0.943791 0.124772 
-0.111818 0.993495 0.107448 -0.0759145 1.04954 0.0682769 -0.0366071 1.09996 0.0213108 
-0.000858361 1.15532 -0.010482 0.0370643 1.20156 -0.00577523 0.0718514 1.24996 0.0287488 
0.114153 1.28281 0.0696785 0.160698 1.30938 0.0953788 0.204347 1.34158 0.121433 
0.245271 1.3771 0.162545 0.29908 1.38272 0.238813 0.350938 1.38976 0.332489 
0.404124 1.39086 0.440595 0.46909 1.36089 0.544095 -0.057907 -0.988806 0.223643 
-0.0688845 -0.925988 0.200424 -0.0911638 -0.874364 0.192735 -0.116124 -0.825303 0.194061 
-0.14129 -0.7765 0.197218 -0.166455 -0.727697 0.200375 -0.191666 -0.679158 0.208467 
-0.215583 -0.629467 0.231548 -0.229783 -0.567568 0.28065 -0.180486 -0.411783 0.584219 
-0.138267 -0.38023 0.788584 -0.0994544 -0.354656 0.957702 -0.0669754 -0.316667 1.10532 
0.0210132 -1.12366 0.341551 0.100184 -1.16079 0.424437 0.173786 -1.19152 0.502107 
0.624749 1.25861 0.80794 0.6885 1.21478 0.954917 0.723482 1.16226 1.07563 
0.746097 1.10605 1.16597 0.756992 1.04517 1.2358 0.745661 0.9734 1.29671 
0.734231 0.901582 1.35762 0.74337 0.840403 1.41994 0.751785 0.781372 1.47498 
0.733703 0.720955 1.5143 0.698795 0.670367 1.53163 0.669617 0.606667 1.53322 
0.646528 0.53488 1.53435 0.632802 0.464996 1.54826 0.631895 0.399868 1.57778 
0.615757 0.322376 1.60838 0.264942 -1.16067 0.750515 0.284557 -1.09854 0.904637 
0.304894 -1.03413 1.02923 0.324434 -0.96821 1.12418 0.335496 -0.905668 1.20376 
0.333219 -0.849469 1.27504 0.342976 -0.786639 1.33974 0.353054 -0.722688 1.38967 
0.350274 -0.663875 1.41653 0.352596 -0.601497 1.42896 0.350431 -0.540936 1.43369 
2.90217 0.282772 1.16824 2.86095 0.241945 1.1713 2.80998 0.218062 1.1903 
2.76773 0.174319 1.23026 2.72297 0.134482 1.27792 2.67988 0.0913894 1.32535 
2.64859 0.0263953 1.36394 2.62251 -0.0496702 1.40923 2.5971 -0.128032 1.4618 
-0.00313087 -0.212681 1.20451 0.0222875 -0.138267 1.18136 0.0519174 -0.0739809 1.17239 
0.0884961 -0.0270955 1.19198 0.122504 0.0237946 1.21924 0.158724 0.0694168 1.25359 
0.188417 0.129657 1.27403 0.218159 0.189799 1.29448 0.255308 0.23362 1.32871 
0.294733 0.2691 1.39208 0.349323 0.272711 1.47317 0.408706 0.270819 1.54652 
0.486089 0.253795 1.59936 0.0422627 -0.319864 1.3088 0.104076 -0.353758 1.3673 
0.152834 -0.393368 1.41012 0.215664 -0.424351 1.43172 0.28779 -0.449623 1.43916 
2.49658 -0.190322 1.5879 2.42615 -0.182335 1.65347 2.36269 -0.18789 1.71817 
2.29314 -0.181625 1.78364 2.22405 -0.174282 1.83433 2.1625 -0.178642 1.86201 
2.09936 -0.175984 1.86046 2.03859 -0.177913 1.85862 1.96984 -0.165359 1.86514 
1.89611 -0.145107 1.88699 1.82259 -0.124271 1.90146 1.7538 -0.111628 1.90798 
1.69214 -0.111836 1.90625 1.62334 -0.0991843 1.91278 1.54982 -0.0783481 1.92725 
1.47634 -0.057611 1.94172 1.40884 -0.0455137 1.93336 0.383609 -0.404941 1.51226 
0.405684 -0.335813 1.5778 0.42822 -0.265616 1.62857 0.452254 -0.195382 1.65708 
0.482105 -0.13447 1.67016 0.523661 -0.0952734 1.67441 0.565118 -0.0561263 1.67865 
0.593461 0.00473056 1.68177 0.606562 0.0729733 1.67761 0.598453 0.142168 1.66056 

LINES 41 616
29 36 37 38 39 40 41 42 43 44 45 46 47 48 49 50 51 52 53 54 55 56 57 58 59 60 61 62 63 25 
8 35 64 65 66 67 68 69 25 
19 29 70 71 72 73 74 75 76 77 78 79 80 81 82 83 84 85 86 24 
3 29 87 34 
7 33 88 89 90 91 92 32 
5 33 93 94 95 23 
5 33 96 97 98 28 
9 32 99 100 101 102 103 104 105 27 
7 32 106 107 108 109 110 23 
23 31 111 112 113 114 115 116 117 118 119 120 121 122 123 124 125 126 127 128 129 130 131 25 
3 30 132 29 
6 28 133 134 135 136 23 
20 28 137 138 139 140 141 142 143 144 145 146 147 148 149 150 151 152 153 154 18 
21 27 155 156 157 158 159 160 161 162 163 164 165 166 167 168 169 170 171 172 173 23 
25 27 174 175 176 177 178 179 180 181 182 183 184 185 186 187 188 189 190 191 192 193 194 195 196 19 
6 25 222 223 224 225 20 
7 21 226 227 228 229 230 16 
4 20 231 232 18 
4 20 233 234 17 
8 19 235 236 237 238 239 240 15 
4 18 241 242 13 
14 18 243 244 245 246 247 248 249 250 251 252 253 254 10 
5 17 255 256 257 13 
3 17 258 14 
20 16 259 260 261 262 263 264 265 266 267 268 269 270 271 272 273 274 275 276 9 
4 16 277 278 11 
25 14 279 280 281 282 283 284 285 286 287 288 289 290 291 292 293 294 295 296 297 298 299 300 301 3 
36 14 302 303 304 305 306 307 308 309 310 311 312 313 314 315 316 317 318 319 320 321 322 323 324 325 326 327 328 329 330 331 332 333 334 335 12 
66 13 336 337 338 339 340 341 342 343 344 345 346 347 348 349 350 351 352 353 354 355 356 357 358 359 360 361 362 363 364 365 366 367 368 369 370 371 372 373 374 375 376 377 378 379 380 381 382 383 384 385 386 387 388 389 390 391 392 393 394 395 396 397 398 399 6 
18 11 400 401 402 403 404 405 406 407 408 409 410 411 412 413 414 415 7 
17 11 416 417 418 419 420 421 422 423 424 425 426 427 428 429 430 7 
6 9 440 441 442 443 4 
18 7 447 448 449 450 451 452 453 454 455 456 457 458 459 460 461 462 1 
13 6 463 464 465 466 467 468 469 470 471 472 473 2 
11 5 474 475 476 477 478 479 480 481 482 3 
15 4 483 484 485 486 487 488 489 490 491 492 493 494 495 1 
7 4 496 497 498 499 500 2 
19 3 501 502 503 504 505 506 507 508 509 510 511 512 513 514 515 516 517 0 
12 2 518 519 520 521 522 523 524 525 526 527 1 
28 26 197 198 199 200 22 201 202 203 204 205 206 207 208 209 210 211 212 213 214 215 216 217 218 219 220 221 19 
15 9 439 438 437 436 435 434 433 432 431 8 444 445 446 6 

POINT_DATA 528
SCALARS DY_raw double
LOOKUP_TABLE default
450.084 412.159 488.396 323.764 507.398 373.386 328.492 354.832 476.65 
349.727 305.695 514.47 370.077 345.993 362.908 437.488 453.162 386.417 
327.029 364.392 283.026 286.633 364.18 333.198 423.228 324.484 493.838 
349.11 360.42 307.5 330.033 673.773 304.444 265.567 386.589 228.589 
638.071 638.071 581.414 542.993 547.435 554.097 604.056 588.813 588.813 
527.162 596.109 596.109 504.578 426.944 428.979 350.794 389.736 429.285 
435.548 435.548 357.547 297.341 264.357 271.345 246.969 240 223.296 
238.711 257.153 292.1 306.842 288.989 275.954 276.647 320.952 338.161 
385.909 398.638 348.781 370.527 377.591 383.039 428.787 392.052 366.357 
366.357 361.335 348.148 316.761 335.655 378.245 345.154 295.882 328.215 
333.718 325.249 325.249 299.829 329.642 337.598 297.507 297.507 303.372 
295.643 308.338 320.436 305.934 343.597 351.29 353.833 306.386 353.125 
321.053 322.171 371.446 523.105 467.805 430.765 432.088 386.44 391.344 
432.666 482.73 458.749 482.75 415.115 415.115 394.883 450.493 401.353 
431.648 396.835 317.328 288.4 285.138 318.35 355.974 401.046 400.27 
334.917 335.047 379.02 359.117 359.117 319.933 288.977 288.977 270.82 
335.091 390.639 381.077 430.073 422.774 353.254 393.054 364.21 300.414 
307.759 326.932 383.818 435.889 426.998 391.38 292.594 315.847 343.658 
323.475 288.111 291.266 272.264 287.051 310.411 276.536 276.536 270.879 
324.289 359.126 325.061 356.12 378.012 381.948 374.797 378.868 409.37 
419.515 407.029 369.943 329.709 314.714 322.825 325.35 320.81 291.527 
291.527 305.381 327.908 362.444 315.582 278.976 286.478 311.85 429.328 
408.603 380.683 348.595 413.892 439.179 501.437 543.184 475.669 400.358 
344.572 326.573 391.743 376.851 406.1 421.248 404.546 404.546 407.325 
435.959 393.518 370.436 329.918 329.918 333.287 357.965 341.918 320.693 
305.933 281.009 306.746 312.915 356.987 393.902 287.425 279.137 405.933 
442.129 411.419 364.351 341.624 312.805 350.482 350.482 379.576 409.267 
404.609 427.551 366.234 335.266 362.548 355.146 357.318 346.047 298.746 
302.606 320.056 305.695 422.198 407.659 373.258 394.929 427.49 408.255 
454.212 476.939 411.758 535.052 499.861 525.021 616.025 469.487 465.766 
465.766 434.72 434.72 439.531 402.009 384.476 387.306 437.244 480.563 
355.272 347.187 309.358 292.554 333.629 389.645 386.617 410.082 299.562 
295.51 319.29 335.955 347.156 376.795 381.898 352.231 404.937 372.666 
346.044 346.044 334.135 316.195 316.195 392.728 417.146 412.347 491.663 
516.53 474.766 449.743 383.966 344.656 322.577 322.577 315.413 349.469 
390.174 399.337 423.04 461.135 416.521 433.852 429.4 436.371 436.371 
406.897 351.755 351.755 343.833 359.132 397.04 367.128 337.456 361.163 
349.602 337.685 352.868 433.633 470.23 491.407 478.068 504.951 403.568 
385.297 449.222 454.965 516.381 516.381 520.538 520.538 566.817 559.985 
619.951 562.997 504.362 504.362 485.917 565.003 615.637 579.293 621.648 
563.153 523.895 489.126 486.019 499.822 499.822 483.187 515.796 535.097 
534.393 564.939 564.939 524.348 483.26 385.155 318.007 309.719 294.648 
303.031 297.244 290.816 285.51 320.15 350.939 428.307 452.945 456.773 
413.935 416.353 444.165 437.647 437.709 434.115 440.098 489.215 436.257 
377.794 407.438 327.133 338.899 526.063 458.895 383.234 403.594 419.911 
421.094 421.308 474.963 474.963 492.774 457.9 457.9 536.955 474.237 
440.73 387.997 481.278 584.358 519.106 586.823 523.497 489.459 546.72 
434.363 439.719 439.719 412.976 435.553 461.317 480.98 437.137 441.484 
438.882 458.841 388.246 362.332 362.332 307.618 300.583 338.789 443.335 
422.653 452.089 443.976 536.042 526.45 409.038 337.375 394.381 416.203 
399.532 359.594 384.151 391.217 405.936 478.94 459.807 490.65 413.766 
387.004 380.974 393.302 420.718 380.116 366.416 440.006 441.162 416.691 
433.967 578.73 527.957 566.603 583.829 503.132 364.65 364.65 373.417 
419.875 407.719 418.069 332.553 300.051 291.077 430.873 458.234 413.071 
395.336 395.336 395.048 430.342 430.342 501.085 546.373 541.985 548.785 
475.2 420.212 444.858 451.558 507.404 488.396 354.374 382.887 457.089 
459.847 439.202 435.578 366.073 356.195 358.863 373.944 352.124 322.774 
287.239 288.57 307.85 345.64 378.171 415.52 426.483 471.913 415.531 
461.04 426.577 403.528 384.856 395.016 409.835 
FIELD FieldData 7
DY_minmax 1 528 double
0.50344 0.419251 0.588486 0.223025 0.630669 0.33318 0.233521 0.291992 0.562411 
0.280659 0.182915 0.646367 0.325834 0.27237 0.30992 0.475478 0.510271 0.362106 
0.230273 0.313213 0.132593 0.1406 0.312743 0.243967 0.443822 0.224624 0.600568 
0.279291 0.304397 0.186921 0.236941 1 0.180138 0.0938353 0.362489 0.01175 
0.920746 0.920746 0.794975 0.709685 0.719546 0.734335 0.845236 0.811399 0.811399 
0.674542 0.827597 0.827597 0.62441 0.452073 0.456589 0.283029 0.369474 0.457267 
0.471172 0.471172 0.29802 0.164369 0.0911506 0.106661 0.0525512 0.0370801 0 
0.0342188 0.0751584 0.152735 0.185461 0.14583 0.116895 0.118433 0.216784 0.254986 
0.360979 0.389236 0.27856 0.326834 0.342515 0.354608 0.456163 0.374615 0.317577 
0.317577 0.306427 0.277154 0.20748 0.249421 0.343966 0.270508 0.161132 0.232907 
0.245122 0.226322 0.226322 0.169893 0.236073 0.253735 0.164739 0.164739 0.177758 
0.1606 0.188783 0.215637 0.183445 0.267053 0.284129 0.289775 0.184449 0.288203 
0.217007 0.21949 0.328874 0.665537 0.542779 0.460553 0.463491 0.362159 0.373045 
0.464773 0.575909 0.522675 0.575953 0.425814 0.425814 0.380899 0.504348 0.395262 
0.462513 0.385233 0.208739 0.144522 0.13728 0.211007 0.294528 0.39458 0.39286 
0.247784 0.248073 0.345686 0.301505 0.301505 0.214521 0.145802 0.145802 0.105497 
0.248169 0.37148 0.350252 0.459017 0.442814 0.288489 0.376841 0.312811 0.171192 
0.187496 0.230059 0.356338 0.471928 0.452192 0.373123 0.153832 0.20545 0.267187 
0.222384 0.14388 0.150884 0.108702 0.141528 0.193384 0.118186 0.118186 0.105627 
0.224191 0.301525 0.225905 0.294851 0.34345 0.352187 0.336312 0.345348 0.413059 
0.43558 0.407864 0.325537 0.236222 0.202936 0.22094 0.226546 0.216468 0.151463 
0.151463 0.182218 0.232224 0.30889 0.204862 0.123602 0.140254 0.196577 0.457363 
0.411357 0.349377 0.278146 0.423098 0.479231 0.617437 0.710108 0.560235 0.393054 
0.269216 0.229262 0.37393 0.340872 0.405801 0.439427 0.402351 0.402351 0.40852 
0.472084 0.37787 0.326632 0.236687 0.236687 0.244165 0.298947 0.263325 0.216208 
0.183443 0.128115 0.185247 0.198941 0.296775 0.378723 0.142358 0.12396 0.405429 
0.485781 0.417608 0.313124 0.262673 0.198699 0.282335 0.282335 0.346922 0.412831 
0.402492 0.453419 0.317302 0.248557 0.309122 0.29269 0.297511 0.272491 0.167489 
0.176058 0.214795 0.182915 0.441537 0.409262 0.332895 0.381003 0.453285 0.410585 
0.512602 0.563054 0.418361 0.692058 0.613937 0.66979 0.871807 0.546512 0.538252 
0.538252 0.469334 0.469334 0.480013 0.396719 0.357799 0.36408 0.474937 0.571098 
0.29297 0.275022 0.191047 0.153743 0.244924 0.369273 0.36255 0.41464 0.169299 
0.160305 0.213094 0.250088 0.274954 0.340748 0.352074 0.286218 0.40322 0.331581 
0.272483 0.272483 0.246048 0.206224 0.206224 0.376116 0.430322 0.419668 0.59574 
0.65094 0.55823 0.502682 0.356667 0.269402 0.22039 0.22039 0.204488 0.280087 
0.370448 0.390789 0.443404 0.527971 0.428933 0.467407 0.457523 0.472998 0.472998 
0.407571 0.285163 0.285163 0.267576 0.301537 0.38569 0.319288 0.253419 0.306047 
0.280383 0.253929 0.287633 0.46692 0.548161 0.595172 0.565561 0.625236 0.400179 
0.359621 0.501527 0.514274 0.650609 0.650609 0.659838 0.659838 0.762572 0.747406 
0.880522 0.754091 0.623928 0.623928 0.582983 0.758545 0.870946 0.790266 0.884288 
0.754437 0.66729 0.590108 0.58321 0.613852 0.613852 0.576924 0.64931 0.692158 
0.690594 0.758402 0.758402 0.668295 0.577086 0.359305 0.210245 0.191847 0.158392 
0.177 0.164156 0.149884 0.138106 0.215002 0.28335 0.455097 0.509791 0.518287 
0.423192 0.428562 0.4903 0.475831 0.475969 0.467991 0.481271 0.590304 0.472746 
0.342966 0.408771 0.230504 0.256623 0.672102 0.522998 0.355041 0.400237 0.436459 
0.439086 0.439561 0.558667 0.558667 0.598205 0.520789 0.520789 0.696282 0.557057 
0.482675 0.365615 0.572687 0.80151 0.656659 0.806982 0.666406 0.590848 0.71796 
0.468541 0.48043 0.48043 0.421064 0.471182 0.528375 0.572025 0.474698 0.484348 
0.478572 0.522878 0.366167 0.308641 0.308641 0.187182 0.171566 0.25638 0.488458 
0.442546 0.50789 0.489879 0.694255 0.672962 0.412322 0.25324 0.379786 0.428228 
0.391222 0.302563 0.357077 0.372762 0.405436 0.567496 0.525024 0.593492 0.422817 
0.36341 0.350023 0.377391 0.438251 0.348119 0.317707 0.481067 0.483633 0.429312 
0.467661 0.789016 0.676308 0.762097 0.800336 0.621199 0.313788 0.313788 0.333249 
0.436378 0.409393 0.432371 0.242535 0.170386 0.150466 0.460793 0.521531 0.421276 
0.381906 0.381906 0.381266 0.459615 0.459615 0.616655 0.717189 0.707448 0.722544 
0.559194 0.437127 0.491838 0.506712 0.630683 0.588486 0.290977 0.354272 0.51899 
0.525111 0.479282 0.471238 0.316945 0.295018 0.300941 0.334418 0.28598 0.220827 
0.141945 0.144899 0.187698 0.271588 0.343802 0.426712 0.451049 0.551897 0.426736 
0.527761 0.451257 0.400092 0.358643 0.381196 0.414093 
WidthEq 1 528 double
1.45585 2.10052 1.78672 2.62845 2.33191 2.25198 3.60394 3.00533 2.69795 
4.20053 2.26208 2.86578 2.84937 3.607 3.72421 2.90615 3.4679 3.63834 
4.23552 3.98746 3.69343 3.04747 2.75764 2.62834 1.55769 4.22309 1.60414 
2.82718 2.39245 4.01928 2.27052 1.22498 2.70341 2.61123 2.98365 2.03153 
1.78141 1.78141 2.03625 2.21334 2.26927 2.28232 2.11818 2.16729 2.16729 
2.1983 2.02464 2.02464 2.34179 2.56972 2.61544 3.02524 2.93624 2.70167 
2.56887 2.56887 2.89804 3.02487 3.1909 2.89273 2.67214 2.68965 3.12346 
3.75323 2.30359 2.82662 3.26939 3.44496 3.82866 4.43509 3.85115 3.50657 
3.09979 2.89535 2.90287 2.80432 2.64534 2.51994 2.34939 2.1167 2.12813 
2.12813 2.02136 2.01104 2.22469 2.11788 1.84708 3.568 2.56293 2.17676 
2.23151 2.37995 2.37995 2.62148 2.58771 2.5469 2.47257 2.47257 2.62373 
2.83138 2.5542 2.69526 2.75679 2.45115 2.55611 2.73648 2.68663 2.54291 
2.62233 2.65467 2.53285 1.83613 2.03349 2.3155 2.23926 2.48079 2.40823 
2.16559 1.81061 1.90751 1.78491 1.75428 1.75428 1.84885 1.814 2.12894 
1.80014 2.08713 3.19167 3.85897 4.22121 4.32401 3.37852 2.23358 2.01041 
2.24368 2.43621 2.49664 2.54999 2.54999 2.53255 2.56061 2.56061 2.65537 
2.44912 2.28461 2.19955 2.10103 2.18078 2.69485 2.59129 2.88127 3.50598 
3.88375 4.13066 2.73076 2.45096 2.26717 2.1466 2.53665 2.63874 2.5768 
3.05982 3.45713 3.53658 3.56785 3.45296 3.23702 3.02119 3.02119 2.7569 
2.3203 2.36646 2.62436 2.70647 2.51935 2.38401 2.26001 2.12021 2.11998 
1.9856 2.23126 2.33873 2.53001 2.79577 2.83772 2.92223 2.85583 2.66307 
2.66307 2.50453 2.43769 2.52212 2.9911 3.79651 3.85823 4.38008 2.20486 
2.6731 2.48484 2.50169 2.78611 2.70274 2.3068 2.0465 2.09595 2.49189 
2.95548 3.2956 3.10705 3.23411 3.13176 3.09743 3.19392 3.19392 3.23377 
3.10152 2.96514 3.39626 3.81097 3.81097 4.17096 3.42181 3.1103 3.00187 
3.12914 3.60354 3.73973 3.87788 4.03266 4.03358 4.12203 4.30081 3.21471 
3.2233 3.48836 4.32872 4.66792 4.56992 3.70906 3.70906 3.8374 3.51203 
3.56943 3.18031 3.44482 3.41794 3.14636 2.73287 2.41988 2.31569 2.52986 
2.55836 2.5157 2.26208 3.27466 3.23779 3.49758 3.92427 3.84415 3.70799 
3.34859 2.81184 2.72722 2.25721 2.1789 2.11195 1.86028 2.41052 2.55383 
2.55383 2.62543 2.62543 2.68752 2.80528 3.07383 3.36289 3.24635 3.00279 
3.94001 3.6831 3.50078 3.32396 3.16737 2.47124 1.95061 1.7434 2.61942 
3.11122 3.11528 2.99036 2.71594 2.61451 2.36955 2.04064 2.00912 2.00978 
2.08363 2.08363 2.4051 2.53779 2.53779 3.76311 3.42634 3.47542 2.50453 
2.1824 2.37704 2.54443 2.89118 3.07251 3.02649 3.02649 2.94571 2.43323 
2.36247 2.08828 2.01657 1.96653 2.20416 2.15077 2.23439 2.42316 2.42316 
2.65975 2.92381 2.92381 2.75115 2.5671 2.63708 2.60445 2.71952 2.69813 
2.91176 3.13611 3.2055 3.11085 2.62443 2.35916 2.16084 2.0256 2.23317 
2.18392 2.05657 2.02696 1.69396 1.69396 1.46456 1.46456 1.268 1.07595 
1.01633 1 1.02585 1.02585 1.09232 1.12923 1.09619 1.2645 1.21642 
1.34082 1.48535 1.58486 1.6172 1.57833 1.57833 1.53453 1.42308 1.36707 
1.29968 1.20761 1.20761 1.1442 1.17439 1.35428 1.7948 1.88819 2.10026 
2.63365 2.74854 3.18603 3.24307 2.85634 2.73183 1.9147 1.60931 1.57207 
1.74392 2.0374 2.31488 2.43798 2.57757 2.548 2.25611 2.15962 2.17142 
2.60633 2.63855 3.48157 3.54193 3.01178 3.35135 3.58879 3.38597 3.23256 
3.22065 3.07833 2.55984 2.55984 2.2143 2.08418 2.08418 1.81437 2.03142 
2.30149 2.68365 2.97875 2.28125 2.26001 1.76729 1.86824 1.83428 1.80785 
2.18063 2.10568 2.10568 2.13794 2.01782 2.22558 2.27329 2.54741 2.77346 
2.76568 2.64069 2.84808 3.17744 3.17744 4.04885 4.28879 4.28286 3.16748 
2.98509 2.7082 2.736 2.51821 2.64106 3.1663 2.98786 2.50557 2.14056 
1.97708 1.87152 1.87746 1.91849 1.85556 1.68714 1.67154 1.60794 1.72437 
1.8571 1.92944 2.01786 2.02888 3.18068 2.87124 2.4903 2.18296 2.36745 
2.17304 1.79384 1.86573 1.61093 1.5689 1.60717 2.80915 2.80915 2.75027 
2.49395 2.67247 2.37438 2.52112 2.56069 2.68608 2.55103 2.25548 2.30407 
2.18727 2.18727 2.16095 1.97122 1.97122 1.70531 1.64131 1.59364 1.67781 
1.89799 2.58771 2.21061 2.13164 1.85357 1.78672 2.55991 2.31738 2.10516 
1.96008 1.91082 1.83284 1.87853 1.80704 1.6621 1.61288 1.67139 1.84726 
2.13152 2.18882 2.18797 2.06051 1.9644 1.71512 1.66634 1.73285 1.76703 
1.73333 1.86057 2.06158 2.17083 2.15519 2.11069 
rRFP 1 528 double
2629.64 2804.49 2719.38 2947.68 2867.25 2845.57 3212.26 3049.9 2966.53 