# vtk DataFile Version 3.0
vtk output
ASCII
DATASET POLYDATA
POINTS 421 float
1.96355 0.75893 1.74312 1.84744 1.00445 1.41975 1.68026 -0.413762 1.49666 
2.84365 0.745988 1.40629 1.50313 -1.10024 1.26944 0.512397 1.03068 0.891127 
0.395852 1.16034 0.563098 1.93388 -1.4132 0.3548 1.77691 -1.44338 0.253987 
2.19446 -1.41012 0.254042 -0.669704 0.440997 -0.063045 0.274877 -1.17014 -0.197461 
1.92479 1.24846 -0.0385421 3.36182 -0.511943 -0.113749 -0.58627 -0.333306 -0.294602 
3.67647 0.0858323 -0.290839 0.653992 1.28648 -0.433435 4.26603 -0.221068 -0.505154 
0.158366 -0.858652 -0.71834 3.0486 -0.0348707 -0.69409 0.406047 -0.705025 -1.02614 
2.80603 0.586078 -0.985912 -0.239584 0.0451563 -1.0811 2.59854 0.886503 -1.05598 
0.157819 -0.486975 -1.30388 0.679589 -0.488851 -1.30556 1.91399 -0.61494 -1.31442 
0.594279 0.127741 -1.48066 0.727387 0.0635424 -1.48365 0.73371 0.378574 -1.67117 
1.25483 0.202914 -1.67983 1.53363 0.340941 -1.67514 0.559173 0.387236 -1.87044 
0.624048 0.402715 -1.77364 0.680797 0.395592 -1.70739 1.51223 0.406152 -1.67245 
1.50348 0.466812 -1.66257 1.4803 0.532049 -1.64505 1.44766 0.599776 -1.61257 
1.41271 0.666362 -1.58013 1.37444 0.72272 -1.53326 1.33011 0.760783 -1.4797 
1.28308 0.790109 -1.41167 1.22245 0.78026 -1.36739 1.15796 0.760474 -1.36057 
1.09873 0.752379 -1.39037 1.04412 0.726804 -1.4283 1.00246 0.685753 -1.45206 
0.955362 0.644034 -1.46101 0.913349 0.600195 -1.46264 0.85882 0.560575 -1.46407 
0.815353 0.517516 -1.47308 0.808259 0.463067 -1.50491 0.786706 0.41494 -1.57349 
1.46393 0.306434 -1.67631 1.39423 0.271927 -1.67748 1.32453 0.23742 -1.67866 
1.57355 0.282888 -1.58863 1.62133 0.25031 -1.54561 1.67212 0.22958 -1.56142 
1.72025 0.202411 -1.60715 1.76354 0.160897 -1.65343 1.81115 0.131102 -1.67701 
1.85883 0.100413 -1.67839 1.90232 0.0562214 -1.65806 1.95076 0.0255841 -1.61497 
2.00241 0.00410691 -1.56409 2.05463 -0.0153491 -1.52056 2.10684 -0.0337036 -1.49922 
2.15956 -0.049844 -1.49261 2.21486 -0.0579521 -1.49311 2.27188 -0.0613678 -1.486 
2.31983 -0.0923427 -1.46516 2.3727 -0.109858 -1.42155 2.4331 -0.105804 -1.36226 
2.48981 -0.113031 -1.296 2.5466 -0.120059 -1.22974 2.6082 -0.112436 -1.17031 
2.66813 -0.10941 -1.11848 2.73027 -0.0994685 -1.0738 2.79024 -0.0963387 -1.02196 
2.85246 -0.0868884 -0.962466 2.91311 -0.0828243 -0.888348 2.97923 -0.0632793 -0.798804 
0.766599 0.305717 -1.57782 0.789776 0.237252 -1.51393 0.794016 0.175945 -1.48675 
0.785151 0.115771 -1.48173 0.712044 -0.0190245 -1.42762 0.6847 -0.0790021 -1.39288 
0.641778 -0.123969 -1.39455 0.614664 -0.172034 -1.41865 0.606602 -0.226737 -1.43565 
0.616561 -0.288964 -1.41594 0.623641 -0.351092 -1.37398 0.646905 -0.418674 -1.33229 
0.65474 0.101771 -1.48189 1.86164 -0.594799 -1.38017 1.80873 -0.576679 -1.43859 
1.7527 -0.568519 -1.48257 1.69245 -0.573956 -1.50484 1.63966 -0.558024 -1.51145 
1.59116 -0.529778 -1.51017 1.53035 -0.537946 -1.51031 1.46635 -0.555571 -1.51082 
1.40923 -0.552851 -1.51054 1.35261 -0.548615 -1.51019 1.29119 -0.55861 -1.5104 
1.23142 -0.563719 -1.51043 1.16944 -0.575744 -1.5033 1.10974 -0.581746 -1.48112 
1.04843 -0.593239 -1.44433 0.991967 -0.590378 -1.40698 0.935526 -0.586723 -1.38441 
0.875389 -0.593649 -1.36968 0.823322 -0.576678 -1.35401 0.779313 -0.536213 -1.33001 
0.731026 -0.508051 -1.3139 0.611831 -0.525381 -1.27531 0.551831 -0.567969 -1.22124 
0.496251 -0.627894 -1.13637 0.119307 -0.436804 -1.14606 0.075811 -0.3992 -1.03321 
0.0338216 -0.354216 -0.979381 -0.0099474 -0.31304 -0.955353 -0.0488913 -0.257214 -0.938156 
-0.0877804 -0.201591 -0.913562 -0.130975 -0.157984 -0.90426 -0.16938 -0.0987372 -0.924007 
-0.204728 -0.0282477 -0.987778 2.77112 0.695976 -1.0271 2.73646 0.77739 -1.04967 
2.6976 0.835977 -1.05709 2.64996 0.866901 -1.05693 0.308809 -0.771947 -0.911775 
0.229334 -0.819259 -0.807788 -0.300352 0.037093 -1.08124 -0.351377 0.0575143 -1.07284 
-0.405048 0.069004 -1.04256 -0.450851 0.101601 -0.966978 -0.494919 0.136783 -0.839396 
-0.533443 0.186552 -0.674183 -0.571774 0.236187 -0.501561 -0.612707 0.273524 -0.351664 
-0.639386 0.323307 -0.230963 -0.648504 0.378866 -0.139739 -0.221806 0.0933944 -0.982834 
-0.205844 0.143405 -0.914158 -0.199438 0.197796 -0.87492 -0.207418 0.257327 -0.842847 
-0.201094 0.311456 -0.796214 -0.186911 0.362646 -0.742297 -0.178748 0.416155 -0.695694 
-0.175448 0.472174 -0.671213 -0.143484 0.51911 -0.662008 -0.116409 0.567694 -0.652721 
-0.0970301 0.618292 -0.628508 -0.0791802 0.668246 -0.574661 -0.0613435 0.717045 -0.491208 
-0.0433933 0.764355 -0.370744 -0.0252481 0.81044 -0.220676 -0.00521799 0.854613 -0.0410366 
0.0255342 0.892557 0.153141 0.0781331 0.910567 0.346451 0.133357 0.89983 0.523774 
0.187147 0.879912 0.678494 0.244167 0.870309 0.811371 0.309698 0.88761 0.913178 
0.378686 0.919706 0.963687 0.446891 0.964924 0.950464 2.83939 0.471066 -0.939988 
2.85315 0.390465 -0.902499 2.87723 0.321106 -0.885586 2.90999 0.251684 -0.882303 
2.94443 0.181783 -0.877804 2.97905 0.110954 -0.851104 3.01378 0.0386372 -0.787405 
3.10071 -0.0524366 -0.694956 3.15286 -0.0698987 -0.695818 3.20561 -0.0859351 -0.689209 
3.26164 -0.093004 -0.667428 3.32319 -0.0847951 -0.62281 3.38366 -0.0801952 -0.563503 
3.44789 -0.0591407 -0.496129 3.50588 -0.0253337 -0.428224 3.55007 0.0153366 -0.367416 
3.60861 0.0518645 -0.321651 0.118757 -0.805158 -0.693829 0.0705473 -0.777497 -0.662915 
0.0153665 -0.770476 -0.632809 -0.0452329 -0.78023 -0.588529 -0.100962 -0.77593 -0.536293 
-0.152847 -0.76134 -0.461416 -0.201001 -0.734973 -0.4009 -0.244367 -0.692969 -0.369424 
-0.292675 -0.663409 -0.382909 -0.343621 -0.641295 -0.404111 -0.391887 -0.612339 -0.402798 
-0.435217 -0.57023 -0.371318 -0.482748 -0.540926 -0.332923 -0.529604 -0.509235 -0.309267 
-0.566606 -0.453668 -0.299502 -0.588652 -0.390387 -0.29689 0.156518 -0.922644 -0.552872 
0.179429 -0.994788 -0.410045 0.219663 -1.07586 -0.294812 4.21392 -0.203502 -0.504288 
4.1618 -0.185936 -0.503421 4.10969 -0.16837 -0.502555 4.05756 -0.150507 -0.509092 
4.0054 -0.132346 -0.523024 3.95325 -0.113783 -0.544355 3.90179 -0.0942853 -0.543413 
3.85426 -0.0649903 -0.505029 3.81545 -0.012051 -0.421234 3.77922 0.048519 -0.337131 
3.73593 0.0900324 -0.290853 0.689 1.22155 -0.502878 0.727831 1.16722 -0.557074 
0.775388 1.13762 -0.588065 0.82688 1.11822 -0.589003 0.879577 1.10239 -0.589802 
0.935513 1.09651 -0.597626 0.996866 1.1074 -0.619615 1.05721 1.11494 -0.634319 
1.123 1.13825 -0.640999 1.19147 1.1691 -0.639969 1.25729 1.19211 -0.639246 
1.31771 1.19915 -0.639148 1.37979 1.21109 -0.638859 1.44021 1.21813 -0.638761 
1.50602 1.24114 -0.638038 1.57445 1.27189 -0.637012 1.63969 1.29317 -0.636356 
1.69694 1.29047 -0.629225 1.75412 1.2868 -0.599894 1.8171 1.30379 -0.525274 
1.87012 1.31996 -0.398754 1.89701 1.30423 -0.228961 3.65472 0.145243 -0.192005 
3.64247 0.190451 -0.0789488 3.61097 0.225584 0.0485833 3.57484 0.277859 0.184245 
3.53957 0.338748 0.312824 3.50154 0.392532 0.426304 3.45859 0.432866 0.51702 
3.41988 0.486108 0.600827 3.38112 0.539553 0.677235 3.33751 0.578645 0.753071 
3.29545 0.623421 0.806893 3.25052 0.660049 0.85299 3.20402 0.692402 0.891504 
3.14787 0.695472 0.943692 3.09652 0.712389 1.00384 3.052 0.749241 1.07464 
2.99861 0.76312 1.15938 2.92853 0.750892 1.27031 0.348029 -1.15775 -0.365224 
0.41808 -1.13004 -0.497763 0.483236 -1.10649 -0.590922 0.539666 -1.10823 -0.655418 
0.592888 -1.11996 -0.707945 0.648723 -1.12394 -0.760169 0.709916 -1.11097 -0.833966 
0.770011 -1.10016 -0.930094 0.835555 -1.07357 -1.01819 0.90379 -1.04085 -1.06897 
0.968351 -1.02119 -1.0758 1.02111 -1.03683 -1.07659 1.0652 -1.07779 -1.08579 
1.11347 -1.10566 -1.10929 1.16497 -1.12466 -1.11763 1.21769 -1.14079 -1.11103 
1.27368 -1.14796 -1.08925 1.33453 -1.14039 -1.0743 1.3911 -1.14513 -1.06725 
1.44768 -1.14947 -1.0676 1.50907 -1.13918 -1.07479 1.5688 -1.13347 -1.08957 
1.63074 -1.12085 -1.11149 1.69052 -1.11534 -1.11887 1.75261 -1.10411 -1.10378 
1.81311 -1.09865 -1.06667 1.87846 -1.07886 -1.02902 1.94374 -1.05816 -1.01356 
2.00407 -1.05102 -1.02087 2.06546 -1.04003 -1.04285 2.12204 -1.04398 -1.0506 
2.17929 -1.04708 -1.03607 2.24463 -1.02729 -0.998417 2.31317 -0.998033 -0.96038 
2.37909 -0.975809 -0.937451 2.44018 -0.967537 -0.922474 2.50614 -0.945209 -0.899541 
2.57535 -0.914315 -0.854035 2.64516 -0.882398 -0.793657 2.71445 -0.852397 -0.72594 
2.78056 -0.832153 -0.651198 2.84182 -0.826654 -0.569609 2.90736 -0.80884 -0.480142 
2.97286 -0.790433 -0.405462 3.03402 -0.783743 -0.353489 3.09998 -0.761415 -0.330556 
3.16911 -0.729331 -0.314646 3.23873 -0.695786 -0.291272 3.30653 -0.662379 -0.245661 
3.36123 -0.624846 -0.192418 3.37906 -0.574594 -0.145975 0.331591 -1.22431 -0.00458473 
0.385572 -1.25805 0.142153 0.438186 -1.28039 0.225111 0.490994 -1.2976 0.256383 
0.546324 -1.306 0.263291 0.603293 -1.30882 0.255587 0.651109 -1.33801 0.232028 
0.703706 -1.35196 0.18683 0.763729 -1.34354 0.135081 0.819485 -1.34813 0.0902495 
0.872146 -1.36298 0.0672527 0.924271 -1.38014 0.0589863 0.976383 -1.39771 0.0581199 
1.02853 -1.41517 0.0572575 1.08126 -1.43091 0.0564626 1.13722 -1.43709 0.0560424 
1.19861 -1.42719 0.0562519 1.25832 -1.42188 0.0488657 1.31964 -1.41109 0.0268735 
1.37552 -1.41567 -0.0105526 1.42878 -1.42839 -0.0408818 1.48477 -1.43447 -0.0412979 
1.54625 -1.42576 -0.0114825 1.60612 -1.42254 0.0329492 1.66767 -1.41472 0.0849665 
1.72385 -1.42387 0.158556 2.14164 -1.39467 0.258529 2.08447 -1.38963 0.273739 
2.01499 -1.40349 0.306752 1.85173 -1.42057 0.295448 1.85177 -1.42117 0.310255 
1.95925 -1.36723 0.597506 1.94983 -1.3355 0.802677 1.94015 -1.29339 0.945264 
1.91225 -1.24574 1.0251 1.86649 -1.21686 1.05606 1.81518 -1.198 1.0718 
1.76313 -1.18132 1.09487 1.71058 -1.16727 1.14008 1.65543 -1.16124 1.19239 
1.59861 -1.15981 1.2371 1.55144 -1.12869 1.26073 0.451721 1.11287 0.721638 
0.598665 1.07204 0.924651 0.674277 1.10856 0.948126 0.744836 1.143 0.959182 
0.813972 1.1756 0.962752 0.879882 1.19852 0.970888 0.940994 1.2065 0.993259 
1.00698 1.22783 1.03839 1.07557 1.25649 1.09123 1.1409 1.27589 1.13629 
1.19755 1.27065 1.15814 1.25034 1.25471 1.16476 1.30248 1.23725 1.16389 
1.35462 1.21939 1.17043 1.4068 1.20093 1.19177 1.45905 1.18158 1.2353 
1.51126 1.16212 1.27885 1.56285 1.14154 1.30752 1.61115 1.11269 1.30621 
1.65469 1.0694 1.3068 1.70455 1.04006 1.32277 1.76641 1.0203 1.36627 
2.79067 0.675916 1.46788 2.7307 0.626354 1.51797 2.68651 0.580171 1.55825 
2.68144 0.521874 1.60535 2.67144 0.465213 1.655 2.64259 0.415197 1.69755 
2.58825 0.374355 1.72573 2.53381 0.333544 1.75391 2.50323 0.284113 1.79649 
2.48396 0.230576 1.8463 2.46825 0.176133 1.88864 2.46202 0.119361 1.90861 
2.47012 0.0583418 1.91355 2.46372 0.00249697 1.91132 2.44613 -0.0495754 1.90928 
2.41725 -0.0978408 1.90743 2.37218 -0.140648 1.90585 2.332 -0.185107 1.90418 
2.28683 -0.227879 1.9026 2.25591 -0.275458 1.90078 2.22326 -0.322452 1.89899 
2.16677 -0.361123 1.8902 2.10077 -0.396005 1.86676 2.04233 -0.432567 1.82099 
1.99816 -0.473532 1.76758 1.9403 -0.508429 1.72929 1.87687 -0.530038 1.7212 
1.82046 -0.525918 1.72896 1.76828 -0.507459 1.70762 1.72031 -0.4736 1.62757 
1.93745 1.06369 1.31558 2.01415 1.10963 1.21341 2.08457 1.14937 1.10854 
2.15339 1.18567 1.01835 2.21843 1.21003 0.945002 2.27554 1.20871 0.915119 
2.33209 1.20467 0.907367 2.39286 1.21273 0.907504 2.4481 1.20552 0.884806 
2.49694 1.17899 0.868757 2.5399 1.13287 0.896425 2.58465 1.08876 0.990892 
2.62728 1.03654 1.1221 2.67206 0.991432 1.23876 2.71451 0.941352 1.31322 
2.75885 0.896721 1.35083 2.80021 0.831436 1.37774 1.89044 0.914291 1.5173 
1.9282 0.834342 1.62517 
LINES 30 480
4 32 33 34 29 
21 31 35 36 37 38 39 40 41 42 43 44 45 46 47 48 49 50 51 52 53 29 
5 31 54 55 56 30 
29 31 57 58 59 60 61 62 63 64 65 66 67 68 69 70 71 72 73 74 75 76 77 78 79 80 81 82 83 19 
6 29 84 85 86 87 28 
10 28 88 89 90 91 92 93 94 95 25 
3 28 96 27 
23 26 97 98 99 100 101 102 103 104 105 106 107 108 109 110 111 112 113 114 115 116 117 25 
11 24 121 122 123 124 125 126 127 128 129 22 
12 22 136 137 138 139 140 141 142 143 144 145 10 
26 22 146 147 148 149 150 151 152 153 154 155 156 157 158 159 160 161 162 163 164 165 166 167 168 169 5 
12 19 177 178 179 180 181 182 183 184 185 186 15 
18 18 187 188 189 190 191 192 193 194 195 196 197 198 199 200 201 202 14 
5 18 203 204 205 11 
13 17 206 207 208 209 210 211 212 213 214 215 216 15 
24 16 217 218 219 220 221 222 223 224 225 226 227 228 229 230 231 232 233 234 235 236 237 238 12 
20 15 239 240 241 242 243 244 245 246 247 248 249 250 251 252 253 254 255 256 3 
53 11 257 258 259 260 261 262 263 264 265 266 267 268 269 270 271 272 273 274 275 276 277 278 279 280 281 282 283 284 285 286 287 288 289 290 291 292 293 294 295 296 297 298 299 300 301 302 303 304 305 306 307 13 
28 11 308 309 310 311 312 313 314 315 316 317 318 319 320 321 322 323 324 325 326 327 328 329 330 331 332 333 8 
5 9 334 335 336 7 
3 7 337 8 
3 7 338 8 
13 7 339 340 341 342 343 344 345 346 347 348 349 4 
3 6 350 5 
23 5 351 352 353 354 355 356 357 358 359 360 361 362 363 364 365 366 367 368 369 370 371 1 
32 3 372 373 374 375 376 377 378 379 380 381 382 383 384 385 386 387 388 389 390 391 392 393 394 395 396 397 398 399 400 401 2 
19 1 402 403 404 405 406 407 408 409 410 411 412 413 414 415 416 417 418 3 
4 1 419 420 0 
8 25 118 119 120 20 134 135 18 
14 23 133 132 131 130 21 170 171 172 173 174 175 176 19 

POINT_DATA 421
SCALARS DY_raw double
LOOKUP_TABLE default
135.297 154.654 266.301 221.805 514.045 224.361 178.33 187.153 211.352 
163.493 197.633 150.503 432.265 235.548 169.115 146.214 498.188 189.913 
133.35 192.013 167.659 111.183 123.755 323.706 164.697 253.044 158.124 
241.563 154.354 154.67 226.34 147.053 277.004 167.261 191.967 158.55 
170.922 239.403 235.85 222.054 206.829 177.477 191.248 192.677 205.131 
167.564 142.321 137.257 126.872 140.317 133.084 163.366 154.755 165.859 
149.842 149.842 190.065 172.728 195.312 173.812 182.103 163.247 159.807 
144.691 166.439 181.529 206.675 160.64 181.04 181.04 145.548 126.156 
126.156 120.801 136.321 167.132 141.958 155.71 152.5 121.626 135.935 
123.116 126.013 174.503 169.696 161.252 162.425 152.836 174.75 204.999 
218.506 203.914 207.534 207.534 214.091 225.19 170.061 138.871 151.882 
142.518 151.634 158.867 158.867 172.612 172.612 189.744 189.886 189.886 
173.493 205.103 168.819 196.542 218.122 189.485 211.333 209.916 209.916 
200.828 194.334 184.381 184.763 130.047 150.262 149.751 150.74 150.421 
151.449 150.413 135.372 127.754 123.046 142.168 200.524 323.706 154.703 
146.774 123.755 133.361 149.018 154.784 151.594 160.583 156.89 155.693 
155.347 174.29 135.672 140.526 151.134 142.262 142.012 163.803 153.884 
153.884 167.53 161.134 161.134 153.561 138.271 160.476 163.023 187.738 
206.118 201.974 198.444 215.353 247.248 331.949 377.905 330.598 110.314 
115.076 130.219 146.537 143.276 158.66 189.509 175.306 175.306 150.505 
150.505 168.742 221.486 227.087 207.364 178.515 152.685 146.911 146.911 
166.248 188.27 216.58 223.291 234.93 220.709 165.01 164.352 140.247 
145.316 149.08 155.637 157.35 169.115 187.283 178.526 172.883 185.793 
185.793 188.044 187.928 187.928 193.734 172.585 160.029 190.301 156.738 
140.578 320.587 181.734 167.617 160.743 155.32 155.32 152.624 179.782 
207.754 197.259 214.241 250.608 182.599 201.665 203.886 175.167 191.795 
179.533 194.501 255.499 422.12 368.292 137.5 140.858 152.545 192.045 
218.59 193.697 162.807 178.556 190.652 219.707 230.655 257.887 266.797 
284.773 255.712 268.689 250.828 232.836 168.623 153.564 145.191 126.936 
125.176 118.306 123.451 154.346 155.456 143.344 157.604 157.604 161.122 
159.705 151.553 159.614 161.721 161.721 154.838 175.529 157.444 157.476 
157.476 148.167 150.397 171.122 179.548 162.612 184.679 137.026 153.105 
139.11 144.77 144.77 161.262 141.446 153.602 162.715 157.079 191.344 
183.785 190.709 256.297 183.513 227.414 183.928 175.231 175.231 172.395 
187.539 202.781 166.583 173.572 175.341 181.258 202.181 202.181 214.152 
250.212 232.889 249.477 215.372 215.372 213.667 238.598 238.598 207.25 
194.314 215.57 195.001 184.504 204.084 194.284 209.688 208.615 196.882 
216.51 149.565 157.036 183.496 198.188 201.162 242.639 223.797 233.919 
260.353 246.333 235.51 234.585 219.304 242.308 242.308 404.254 197.055 
196.908 172.108 177.004 179.911 187.247 194.152 248.702 224.302 274.645 
274.645 246.229 239.494 239.494 236.421 281.001 254.995 213.282 213.282 
182.1 165.693 160.382 232.661 209.965 231.142 219.001 232.553 250.21 
250.21 259.509 254.518 273.187 302.03 329.84 309.607 245.09 245.09 
236.368 213.23 227.501 191.156 200.451 200.451 190.474 170.534 176.051 
166.83 159.394 174.683 174.683 226.213 268.803 155.656 168.462 184.199 
208.223 193.312 193.312 173.22 145.231 132.178 131.311 148.996 165.998 
241.171 304.256 336.632 320.825 244.326 144.207 135.473 
FIELD FieldData 7
DY_minmax 1 421 double
0.0618801 0.109824 0.386363 0.276151 1 0.282482 0.168467 0.190321 0.25026 
0.131717 0.216278 0.0995426 0.797438 0.310191 0.145642 0.0889188 0.960724 0.197157 
0.057057 0.20236 0.142035 0.00215143 0.0332899 0.528548 0.134701 0.353526 0.11842 
0.32509 0.109081 0.109863 0.287384 0.090997 0.412873 0.141051 0.202245 0.119474 
0.150119 0.31974 0.310938 0.276767 0.239057 0.166356 0.200465 0.204002 0.234851 
0.141802 0.0792778 0.0667344 0.0410111 0.0743142 0.0563971 0.131403 0.110074 0.137577 
0.0979051 0.0979051 0.197534 0.154592 0.210531 0.157276 0.177812 0.131109 0.122588 
0.0851462 0.139014 0.176391 0.238676 0.124651 0.175179 0.175179 0.0872688 0.0392373 
0.0392373 0.0259754 0.0644168 0.140731 0.0783783 0.112441 0.104489 0.0280181 0.0634585 
0.0317078 0.038883 0.158988 0.147082 0.126167 0.129071 0.105321 0.1596 0.234525 
0.267978 0.231837 0.240803 0.240803 0.257045 0.284534 0.147985 0.070731 0.102959 
0.0797647 0.102344 0.12026 0.12026 0.154305 0.154305 0.196738 0.19709 0.19709 
0.156488 0.234782 0.14491 0.213577 0.267029 0.196096 0.250211 0.246703 0.246703 
0.224194 0.208108 0.183455 0.184401 0.0488757 0.0989472 0.0976811 0.100131 0.0993408 
0.101887 0.0993202 0.0620648 0.0431955 0.0315347 0.0788978 0.22344 0.528548 0.109947 
0.0903077 0.0332899 0.0570843 0.0958646 0.110147 0.102246 0.124509 0.115363 0.112397 
0.11154 0.15846 0.0628072 0.0748298 0.101105 0.0791305 0.0785109 0.132485 0.107918 
0.107918 0.141718 0.125875 0.125875 0.107117 0.069246 0.124245 0.130554 0.19177 
0.237296 0.22703 0.218288 0.260169 0.339171 0.548965 0.662794 0.54562 0 
0.0117945 0.0493016 0.0897192 0.0816423 0.119748 0.196158 0.160978 0.160978 0.0995491 
0.0995491 0.14472 0.27536 0.289234 0.240382 0.168925 0.104948 0.0906459 0.0906459 
0.138543 0.193088 0.263209 0.279832 0.308659 0.273435 0.135476 0.133847 0.0741401 
0.0866954 0.096018 0.11226 0.116502 0.145642 0.190643 0.168952 0.154976 0.186953 
0.186953 0.192527 0.192242 0.192242 0.206622 0.154237 0.123138 0.198118 0.114987 
0.074959 0.520822 0.176899 0.141933 0.124906 0.111474 0.111474 0.104795 0.172064 
0.241347 0.215352 0.257416 0.347493 0.179042 0.226267 0.231768 0.160634 0.20182 
0.171448 0.208522 0.359607 0.772311 0.638984 0.0673349 0.0756526 0.104601 0.202438 
0.268187 0.20653 0.130019 0.169027 0.198987 0.270955 0.29807 0.365521 0.38759 
0.432115 0.360134 0.392279 0.348037 0.303474 0.144423 0.107124 0.0863844 0.041171 
0.0368117 0.0197945 0.0325378 0.109061 0.11181 0.0818117 0.117131 0.117131 0.125846 
0.122336 0.102143 0.12211 0.12733 0.12733 0.110281 0.16153 0.116734 0.116814 
0.116814 0.0937571 0.0992808 0.150615 0.171485 0.129537 0.184193 0.0661611 0.105989 
0.0713238 0.0853424 0.0853424 0.126192 0.0771099 0.107219 0.12979 0.115831 0.200701 
0.181979 0.199129 0.361584 0.181305 0.290043 0.182333 0.160792 0.160792 0.153768 
0.191278 0.22903 0.139371 0.156681 0.161063 0.175719 0.227545 0.227545 0.257194 
0.346511 0.303605 0.34469 0.260216 0.260216 0.255994 0.317745 0.317745 0.2401 
0.208059 0.260707 0.20976 0.183759 0.232257 0.207983 0.246139 0.243481 0.214419 
0.263035 0.097219 0.115725 0.181264 0.217653 0.22502 0.327754 0.281085 0.306156 
0.37163 0.336904 0.310097 0.307806 0.269955 0.326935 0.326935 0.728059 0.214848 
0.214483 0.153056 0.165183 0.172384 0.190553 0.207658 0.342772 0.282336 0.407029 
0.407029 0.336647 0.319965 0.319965 0.312353 0.422772 0.35836 0.255039 0.255039 
0.177805 0.137167 0.124011 0.30304 0.246825 0.299278 0.269206 0.302773 0.346506 
0.346506 0.369541 0.357178 0.403418 0.47486 0.543743 0.493626 0.333826 0.333826 
0.312223 0.254911 0.29026 0.200236 0.223258 0.223258 0.198547 0.149156 0.162824 
0.139983 0.121565 0.159434 0.159434 0.287068 0.392559 0.112305 0.144025 0.183006 
0.242509 0.205577 0.205577 0.155811 0.0864839 0.0541538 0.0520072 0.0958114 0.137923 
0.324118 0.480374 0.560566 0.521414 0.331933 0.0839492 0.0623149 
WidthEq 1 421 double
12.7857 17.5727 4.76751 10.0999 3.39827 16.2104 12.6369 19.4323 12.3316 
19.1423 17.5666 19.5054 1 10.2467 17.2503 19.8275 3.6528 11.3377 
18.1772 14.4739 14.5504 22.6737 15.657 4.0427 12.3704 10.1155 10.0745 
8.73542 18.9687 14.911 10.4482 14.0848 4.2844 9.99721 10.4114 12.8487 
13.0536 8.46469 8.8878 8.86436 8.56656 11.237 12.2286 12.657 13.0204 
15.3676 16.3371 16.3464 16.4393 15.8479 16.1948 14.9724 15.4273 15.5895 
16.6542 16.6542 13.1008 13.6165 12.3829 12.7555 12.1259 13.0628 12.9796 
14.2163 13.9777 15.2057 13.9556 17.5565 16.7996 16.7996 19.4407 21.252 
21.252 21.7335 20.9994 18.0999 18.9713 17.7335 17.0039 18.8208 18.0823 
17.7293 18.3798 15.8242 15.7198 17.8858 18.4775 19.3662 17.3899 14.8652 
13.5172 12.5615 11.8113 11.8113 11.3369 11.1359 16.1822 14.3743 18.8886 
18.8699 20.8392 20.2219 20.2219 19.1906 19.1906 17.8284 16.571 16.571 
16.463 13.0888 14.9266 12.7544 11.5635 13.1234 11.5465 11.2707 11.2707 
11.7792 12.1789 12.2623 12.6489 17.9112 18.3039 19.2425 18.969 17.5043 
18.4078 18.4976 18.0201 17.343 19.4572 15.1161 9.40832 4.0427 16.9654 
18.1404 15.657 13.5442 12.7739 13.8898 16.2146 17.4546 20.9802 23.4499 
23.9528 21.0759 16.3807 14.8956 14.8736 14.9651 16.2009 16.7435 19.5836 
19.5836 19.8694 21.1301 21.1301 21.4563 22.5766 22.0818 21.9202 21.8898 
20.6838 19.0586 17.7276 16.35 14.8119 10.748 9.64778 11.3561 21.7016 
19.0299 15.5847 12.8618 11.7008 14.1663 13.0187 15.4971 15.4971 16.8736 
16.8736 15.4393 13.2844 13.4262 14.6963 16.5627 19.0181 18.7538 18.7538 
16.3023 15.1691 13.0148 12.1178 11.8049 12.6215 16.3134 16.3369 19.7614 
19.8116 19.6037 19.688 19.1887 17.2503 13.597 14.7254 17.1142 11.7845 
11.7845 11.566 10.5981 10.5981 9.84678 9.84482 11.3868 10.6481 14.9347 
20.0399 6.95814 14.8267 14.7201 15.6687 16.3988 16.3988 15.6461 13.235 
11.3344 12.0067 11.204 9.68713 13.2741 12.6961 13.0017 14.8881 13.8688 
13.8197 10.686 6.40748 2.6168 2.06615 21.8362 20.199 16.9835 13.0349 
12.0215 12.9584 14.8607 13.1496 12.8317 11.0667 10.9065 8.51884 8.6062 
7.53698 6.78258 6.19397 7.11387 8.95172 19.9124 21.2152 21.3871 22.6352 
21.1781 21.1504 18.4027 14.873 15.019 15.7991 16.9964 16.9964 17.4951 
17.6615 16.9925 17.6707 17.3757 17.3757 17.4546 16.3151 17.4781 17.261 
17.261 17.137 17.6221 15.8038 14.7318 15.1326 13.0466 15.7421 13.9897 
15.0846 15.578 15.578 15.6305 17.7837 16.5264 15.8504 16.7176 15.3405 
14.6439 13.2931 10.3436 13.091 11.3101 13.3584 13.3732 13.3732 13.393 
11.1814 10.8699 18.8501 18.2478 17.5445 16.3748 14.734 14.734 14.0441 
11.758 12.0025 11.2903 12.0084 12.0084 12.7234 12.2816 12.2816 15.0209 
16.1797 15.1917 16.7968 17.4119 15.9785 15.3416 14.5939 14.2462 14.2799 
12.9662 23.9888 24.108 21.2305 16.2244 15.8833 16.2076 16.6467 14.9593 
12.5878 12.9612 13.0123 13.3539 14.2132 11.7159 11.7159 5.54452 17.0639 
18.5682 20.5149 19.4304 18.6506 17.5708 15.7217 12.8498 12.7497 10.3879 
10.3879 10.6933 10.5981 10.5981 9.77533 8.61178 9.06112 11.1195 11.1195 
14.0628 15.8211 17.0592 9.77058 9.99581 9.27882 9.56573 8.83924 8.41976 
8.41976 8.16774 8.03768 8.0067 7.10941 6.70193 6.98688 8.61345 8.61345 
8.91069 9.53307 9.96344 10.9916 11.4069 11.4069 12.4385 13.0569 13.4016 
14.4323 15.4279 14.0821 14.0821 9.54675 6.68295 15.3034 12.6651 11.3645 
10.7229 12.4371 12.4371 14.367 17.3419 18.1301 16.6651 13.7312 12.5099 
7.02819 5.85794 5.74016 7.48144 10.0701 18.6461 18.9528 
rRFP 1 421 double
2730.86 2902.38 2443.57 2634.63 2394.51 2853.57 2725.53 2969.01 2714.59 
2958.62 2902.16 2971.63 2308.58 2639.89 2890.83 2983.17 2403.63 2678.98 
2924.04 2791.35 2794.09 3085.15 2833.74 2417.6 2715.98 2635.19 2633.72 
2585.74 2952.4 2807.01 2647.11 2777.41 2426.26 2630.95 2645.79 2733.12 
2740.46 2576.04 2591.2 2590.36 2579.69 2675.37 2710.9 2726.25 2739.27 
2823.37 2858.11 2858.44 2861.77 2840.58 2853.01 2809.21 2825.51 2831.32 
2869.47 2869.47 2742.15 2760.63 2716.43 2729.78 2707.22 2740.79 2737.81 
2782.12 2773.57 2817.57 2772.78 2901.8 2874.68 2874.68 2969.31 3034.21 
3034.21 3051.46 3025.16 2921.27 2952.49 2908.14 2882 2947.1 2920.64 
2907.99 2931.3 2839.73 2835.99 2913.6 2934.8 2966.64 2895.83 2805.37 
2757.07 2722.83 2695.95 2695.95 2678.95 2671.75 2852.56 2787.78 2949.53 
2948.86 3019.42 2997.3 2997.3 2960.35 2960.35 2911.54 2866.49 2866.49 
2862.62 2741.72 2807.57 2729.74 2687.07 2742.96 2686.46 2676.58 2676.58 
2694.8 2709.12 2712.11 2725.96 2914.51 2928.58 2962.21 2952.41 2899.93 
2932.3 2935.52 2918.41 2894.15 2969.9 2814.36 2609.85 2417.6 2880.62 
2922.72 2833.74 2758.04 2730.44 2770.42 2853.72 2898.15 3024.47 3112.96 
3130.98 3027.9 2859.67 2806.46 2805.67 2808.95 2853.23 2872.67 2974.43 
2974.43 2984.67 3029.84 3029.84 3041.53 3081.67 3063.94 3058.15 3057.06 
3013.85 2955.62 2907.93 2858.57 2803.46 2657.85 2618.43 2679.64 3050.32 
2954.59 2831.15 2733.59 2691.99 2780.33 2739.21 2828.01 2828.01 2877.33 
2877.33 2825.94 2748.73 2753.81 2799.32 2866.19 2954.17 2944.7 2944.7 
2856.86 2816.26 2739.07 2706.93 2695.72 2724.98 2857.26 2858.1 2980.8 
2982.6 2975.15 2978.17 2960.28 2890.83 2759.93 2800.36 2885.95 2694.99 
2694.99 2687.16 2652.48 2652.48 2625.56 2625.49 2680.74 2654.27 2807.86 
2990.78 2522.06 2803.99 2800.17 2834.16 2860.32 2860.32 2833.35 2746.96 
2678.86 2702.95 2674.19 2619.84 2748.36 2727.65 2738.6 2806.19 2769.67 
2767.91 2655.63 2502.33 2366.51 2346.78 3055.14 2996.48 2881.27 2739.79 
2703.48 2737.05 2805.21 2743.9 2732.51 2669.27 2663.53 2577.98 2581.11 
2542.8 2515.77 2494.68 2527.64 2593.49 2986.21 3032.89 3039.05 3083.77 
3031.56 3030.57 2932.12 2805.65 2810.88 2838.83 2881.73 2881.73 2899.6 
2905.56 2881.59 2905.89 2895.32 2895.32 2898.15 2857.32 2898.99 2891.21 
2891.21 2886.77 2904.15 2839 2800.59 2814.95 2740.21 2836.79 2774 
2813.23 2830.91 2830.91 2832.79 2909.94 2864.89 2840.67 2871.74 2822.4 
2797.44 2749.04 2643.36 2741.8 2677.99 2751.38 2751.91 2751.91 2752.62 
2673.38 2662.22 2948.15 2926.57 2901.37 2859.46 2800.67 2800.67 2775.95 
2694.04 2702.8 2677.28 2703.01 2703.01 2728.63 2712.8 2712.8 2810.95 
2852.47 2817.07 2874.58 2896.62 2845.26 2822.44 2795.65 2783.19 2784.4 
2737.33 3132.27 3136.54 3033.44 2854.07 2841.85 2853.47 2869.2 2808.74 
2723.77 2737.15 2738.98 2751.22 2782.01 2692.53 2692.53 2471.41 2884.15 
2938.05 3007.8 2968.94 2941 2902.31 2836.06 2733.16 2729.57 2644.95 
2644.95 2655.89 2652.48 2652.48 2623 2581.31 2597.41 2671.16 2671.16 
2776.62 2839.62 2883.98 2622.83 2630.9 2605.21 2615.49 2589.46 2574.43 
2574.43 2565.4 2560.74 2559.63 2527.48 2512.88 2523.09 2581.37 2581.37 
2592.02 2614.32 2629.74 2666.58 2681.46 2681.46 2718.42 2740.58 2752.93 
2789.86 2825.53 2777.31 2777.31 2614.81 2512.2 2821.07 2726.54 2679.94 
2656.95 2718.37 2718.37 2787.52 2894.11 2922.35 2869.86 2764.74 2720.98 
2524.57 2482.64 2478.42 2540.81 2633.56 2940.84 2951.83 
rGFP 1 421 double
4477.49 5465.31 4017.22 4987.84 4494.49 6384.62 5001.16 6384.44 5353.93 
5877.26 6219.35 5683.25 3179.89 5161.22 5664.91 5646.68 4567.41 4900.8 
5171.56 5526.81 5187.12 5268.56 4685.25 4056.27 4784.99 5307.3 4340.65 
4857.78 5675.52 5053.9 5112.48 4818.84 3934.42 4419.77 4746.27 4784.79 
4978.77 4774.1 4843.81 4715.99 4519.44 4741.93 5086.32 5186.33 5418.51 
5322.68 5072.75 4991.28 4833.31 4971.36 4902.89 5193.6 5135.07 5333.27 
5243.12 5243.12 5237.62 5099.58 5166.16 4964.68 4955.78 4880.09 4821.86 
4804.59 5074.05 5507.9 5631.91 5567.9 5789.02 5789.02 5577.17 5428.69 
5428.69 5373.06 5610.3 5772.7 5440.75 5508.91 5340.72 5036.73 5205.64 
4930.38 5063.72 5508.99 5415.21 5631.75 5748.83 5707.47 5786.51 5794.98 
5701.2 5309.1 5198.88 5198.88 5174.75 5255.32 5499.59 4743.79 5616.47 
5436.93 5907.56 5960.22 5960.22 6060.16 6060.16 6130.44 5894.23 5894.23 
5603.85 5432.17 5267.52 5254.4 5269.88 5234.3 5187.77 5113.53 5113.53 
5113.23 5114.4 5008.57 5084.67 5076.93 5498.02 5629.22 5607.02 5380.65 
5535.47 5529.91 5187.04 4963.26 5141.75 4896.65 4634.22 4056.27 5372.23 
5410.17 4685.25 4553.9 4651.17 4897.54 5205.67 5550.54 6039.21 6398.6 
6468.62 6420.94 4970.02 4840.84 4995.52 4876.59 5048.35 5490.26 5761.23 
5761.23 6076.35 6152.4 6152.4 6042.48 5869.32 6291.22 6321.12 6857.16 
7010.93 6596.96 6265.56 6268.64 6409.84 6315.4 6393.57 6501.94 5141.63 
4937.51 4777.05 4632.36 4424.07 4995.26 5214.79 5464.36 5464.36 5287.19 
5287.19 5352.89 5689.93 5796.54 5795.12 5704.3 5651.41 5502.77 5502.77 
5457.85 5603.52 5566.37 5453.42 5520.95 5533.31 5439.51 5432.63 5519.1 
5626.57 5670.14 5811.81 5766.96 5664.91 5294.11 5376.48 5706.37 4937.11 
4937.11 4922.54 4739.31 4739.31 4655.28 4446.69 4569.85 4773.96 5088.46 
5564.79 4978.31 5442.14 5214.96 5266.26 5294.69 5294.69 5135.59 5127.04 
5102.38 5116.05 5147.99 5175.3 5171.46 5307.98 5398.49 5355.53 5407.6 
5228.72 4826.07 4384.73 3852.23 3508.57 5750.09 5592.81 5338.38 5250.91 
5375.4 5257.63 5167.06 5095.56 5194.01 5179.06 5263.26 4944.52 5043.73 
4893.95 4482.01 4411.88 4531.98 4831.91 6105.3 6005.51 5852.83 5620.86 
5398.62 5249.85 5019.46 5043.21 5082.41 5012.33 5426.32 5426.32 5566.48 
5568.25 5322.88 5568.11 5557.64 5557.64 5450.27 5611.4 5499.44 5465.81 
5465.81 5286.77 5397.94 5452.01 5392.69 5208.37 5157.06 4904.7 4889.52 
4846.04 5002.85 5002.85 5268.23 5263.06 5286.11 5326.72 5373.6 5682.93 
5438.95 5282.73 5398.65 5149.99 5319.69 5204.6 5091.02 5091.02 5056.51 
4844.58 4951.84 5887.73 5914.93 5823.89 5715.69 5726.57 5726.57 5755.19 
5689.62 5542.88 5564.28 5333.89 5333.89 5466.2 5677.99 5677.99 5860.72 