# vtk DataFile Version 3.0
vtk output
ASCII
DATASET POLYDATA
POINTS 405 float
4.58003 0.0300676 0.695634 4.2239 0.0861223 0.547481 5.33916 0.0118891 0.16159 
5.31188 0.229773 0.102386 4.97947 0.586228 0.419991 5.38943 -0.0636168 -0.119329 
4.91411 0.786308 0.287535 3.54256 -0.119259 -0.299523 4.27319 -0.404759 -0.7735 
4.806 -0.237492 -0.863919 1.82362 -0.451837 -0.415518 0.254925 0.774604 0.239456 
4.66012 -0.276399 -0.931069 2.00008 -0.59816 -0.778616 0.610625 -0.702849 -0.566605 
2.36529 -0.324656 -0.653123 2.47057 -0.182085 -0.614055 0.140676 0.721165 0.0197029 
3.14671 0.431517 -0.760991 0.64282 -0.706442 -1.00158 1.93633 1.79448 -0.244957 
-0.53683 0.945097 -0.597709 2.10032 1.74321 -0.499769 1.66397 1.94039 -0.58548 
1.96206 1.75854 -0.905787 1.83673 1.83856 -0.860089 -0.756396 1.02316 -1.14905 
1.6335 1.97681 -0.997603 0.7397 2.24131 -0.999504 0.334519 1.94541 -1.53773 
0.61291 2.04601 -1.27001 -0.431372 -0.140998 -2.15761 -0.451368 1.58016 -1.51959 
2.42262 0.445707 -2.59516 -0.772638 0.723279 -2.22403 0.255124 1.86533 -1.93485 
-0.143681 0.240241 -2.69818 2.1324 1.57428 -2.499 2.21112 0.408553 -3.15428 
0.0115351 0.239529 -2.93319 0.12163 0.177713 -3.18495 1.16689 0.809658 -3.11419 
1.86628 1.04184 -3.09077 1.91892 0.988982 -3.08526 1.96029 0.928476 -3.06521 
2.01839 0.865802 -3.03221 2.08805 0.799948 -2.98596 2.16192 0.727626 -2.92144 
2.24017 0.644667 -2.82959 2.32589 0.550353 -2.71638 1.81239 1.0313 -3.08772 
1.7585 1.02075 -3.08467 1.70462 1.0101 -3.08166 1.65015 1.00033 -3.0862 
1.59547 0.986561 -3.1081 1.54116 0.965549 -3.14862 1.48402 0.963408 -3.17386 
1.42803 0.964914 -3.16609 1.38044 0.928379 -3.14163 1.33398 0.886267 -3.1154 
1.28545 0.84463 -3.10861 1.22765 0.826156 -3.11196 1.89782 1.10029 -3.07326 
1.91631 1.15618 -3.05501 1.94975 1.215 -3.0376 1.99288 1.27571 -3.02075 
2.03678 1.33386 -2.99698 2.07099 1.38466 -2.95878 2.08402 1.42044 -2.89157 
2.09783 1.44821 -2.80356 2.12636 1.47341 -2.70249 2.13816 1.50079 -2.61437 
2.1375 1.53389 -2.54639 1.12642 0.767247 -3.12066 1.08176 0.73651 -3.11432 
1.03203 0.709916 -3.10978 0.983284 0.671293 -3.11378 0.933193 0.638833 -3.11931 
0.883926 0.601619 -3.12669 0.831952 0.580016 -3.12797 0.778384 0.567595 -3.12565 
0.724816 0.555174 -3.12334 0.672824 0.533672 -3.12457 0.623266 0.498141 -3.1313 
0.5716 0.474754 -3.13328 0.520225 0.449694 -3.13591 0.472551 0.403307 -3.14689 
0.425441 0.35624 -3.15024 0.374197 0.338154 -3.12646 0.319454 0.347975 -3.06805 
0.263989 0.364534 -2.99912 0.210806 0.365365 -2.94423 0.161686 0.335035 -2.92524 
0.110583 0.310985 -2.91958 0.0591928 0.286017 -2.92217 0.076992 0.207648 -3.12838 
0.0490604 0.229969 -3.04496 -0.0427842 0.254642 -2.84903 -0.0952371 0.258994 -2.76908 
2.27213 0.42696 -3.01748 2.34165 0.436318 -2.8321 -0.18528 0.169143 -2.68725 
-0.224812 0.0938693 -2.65427 -0.264301 0.0286493 -2.58577 -0.307238 -0.00637574 -2.47387 
-0.350057 -0.0395088 -2.35332 -0.39303 -0.0743323 -2.24134 -0.190645 0.318701 -2.76656 
-0.206154 0.392427 -2.80892 -0.237325 0.449486 -2.81565 -0.270454 0.498001 -2.80142 
-0.319224 0.540732 -2.77936 -0.366417 0.583773 -2.75739 -0.390768 0.631283 -2.73671 
-0.414338 0.676224 -2.70912 -0.460755 0.711254 -2.66635 -0.516069 0.736277 -2.60227 
-0.572076 0.756604 -2.53186 -0.626307 0.766048 -2.46571 -0.676529 0.752392 -2.4086 
-0.724068 0.730994 -2.33085 0.261134 1.88127 -1.81441 0.280718 1.90371 -1.67742 
-0.810539 0.64182 -2.18559 -0.848435 0.565806 -2.16106 -0.8791 0.499365 -2.15776 
-0.892923 0.436224 -2.15544 -0.90623 0.367739 -2.13923 -0.887665 0.294611 -2.09705 
-0.834576 0.228235 -2.05681 -0.781375 0.167324 -2.03048 -0.754357 0.112174 -2.03047 
-0.729008 0.0621372 -2.04425 -0.679035 0.0169184 -2.05943 -0.616591 -0.0285778 -2.06837 
-0.552256 -0.0737081 -2.07741 -0.49048 -0.111173 -2.10716 -0.80473 0.717577 -2.07088 
-0.826414 0.727517 -1.95307 -0.857609 0.749198 -1.86946 -0.884414 0.7799 -1.80694 
-0.91338 0.807461 -1.73736 -0.912357 0.83545 -1.65559 -0.874935 0.865113 -1.56196 
-0.832583 0.891769 -1.45816 -0.805249 0.918679 -1.3563 -0.773974 0.958958 -1.254 
2.51722 0.43101 -2.43514 2.59243 0.429359 -2.27047 2.65895 0.432592 -2.10022 
2.72579 0.431667 -1.91563 2.79403 0.426551 -1.71952 2.86227 0.421434 -1.52342 
2.92936 0.419756 -1.33649 2.99608 0.421336 -1.15627 3.06722 0.4239 -0.965654 
0.417401 1.97264 -1.42302 0.48902 1.9785 -1.35453 0.551377 1.99398 -1.30914 
-0.490929 1.54474 -1.59915 -0.516838 1.51099 -1.6719 -0.557533 1.47851 -1.72636 
-0.607185 1.44964 -1.74654 -0.653643 1.40462 -1.7333 -0.695927 1.35439 -1.66289 
-0.72989 1.28093 -1.53451 -0.749382 1.16319 -1.35674 -0.404507 -0.236888 -2.05331 
-0.365471 -0.331388 -1.94211 -0.30064 -0.413858 -1.82184 -0.227125 -0.476761 -1.69547 
-0.156047 -0.524665 -1.59505 -0.0925618 -0.541052 -1.5218 -0.0278021 -0.575094 -1.48704 
0.0394398 -0.620867 -1.44897 0.10632 -0.659399 -1.39228 0.175542 -0.706275 -1.32307 
0.240553 -0.734034 -1.26216 0.30377 -0.756605 -1.21501 0.367331 -0.786316 -1.18645 
0.429333 -0.804464 -1.14547 0.489433 -0.811649 -1.10018 0.546452 -0.803653 -1.05686 
0.596467 -0.763022 -1.02445 0.649051 2.10558 -1.18109 0.693286 2.15353 -1.10546 
0.729277 2.19781 -1.04603 0.694353 2.04959 -1.27919 0.758036 2.05767 -1.28441 
0.81337 2.06785 -1.28779 0.868228 2.07583 -1.28396 0.924788 2.07873 -1.26631 
0.984033 2.0739 -1.22802 1.04446 2.06484 -1.18347 1.10559 2.04914 -1.14942 
1.16648 2.02706 -1.14156 1.22346 2.02242 -1.14266 1.27927 2.02191 -1.15005 
1.3359 2.01665 -1.15929 1.38928 2.03016 -1.16118 1.44679 2.02245 -1.16348 
1.50585 2.01353 -1.14257 1.56804 1.99948 -1.0842 1.70027 1.92604 -0.985182 
1.76873 1.87585 -0.94096 1.64874 1.9586 -0.791542 -0.749903 1.02513 -0.890663 
-0.726041 1.01832 -0.682826 -0.675684 1.01076 -0.562208 -0.610253 0.981297 -0.545718 
-0.638713 0.967071 -0.880033 1.8994 1.79855 -0.882938 1.86555 1.82301 -0.654797 
1.90752 1.81003 -0.450249 2.02362 1.71558 -0.921622 2.07727 1.66565 -0.923115 
2.11864 1.60514 -0.903067 2.17395 1.54464 -0.876849 2.22923 1.48424 -0.8506 
2.27029 1.42551 -0.829857 2.32549 1.37633 -0.799456 2.38628 1.34263 -0.764048 
2.44059 1.29599 -0.740551 2.47898 1.2449 -0.740503 2.52894 1.19978 -0.755642 
2.57792 1.15709 -0.777716 2.61205 1.11149 -0.798949 2.65125 1.06689 -0.820469 
2.68438 1.01837 -0.834694 2.72424 0.965737 -0.835406 2.75025 0.902226 -0.814488 
2.76913 0.834597 -0.786207 2.79614 0.774004 -0.772297 2.84601 0.728766 -0.78747 
2.9049 0.693454 -0.823999 2.9671 0.654192 -0.849164 3.03191 0.603329 -0.847132 
3.095 0.53013 -0.810712 2.03119 1.75087 -0.702778 -0.447951 0.92042 -0.57321 
-0.374498 0.892809 -0.529241 -0.30404 0.845891 -0.462851 -0.234693 0.800425 -0.387825 
-0.162714 0.740237 -0.315933 -0.0928199 0.686912 -0.257129 -0.0281522 0.661133 -0.195449 
0.0318422 0.659712 -0.13212 0.0872089 0.684961 -0.0583584 0.717027 -0.779466 -0.9347 
0.787367 -0.840524 -0.894733 0.851363 -0.877893 -0.884962 0.908372 -0.882728 -0.886138 
0.96259 -0.874058 -0.889925 1.01652 -0.863715 -0.893057 1.07072 -0.854943 -0.896804 
1.12651 -0.855364 -0.90415 1.18473 -0.869703 -0.916946 1.24054 -0.870216 -0.924329 
1.29505 -0.863219 -0.928771 1.35084 -0.86364 -0.936117 1.40874 -0.876195 -0.948215 
1.46265 -0.865751 -0.951307 1.51283 -0.833779 -0.94597 1.56643 -0.821551 -0.948364 
1.62241 -0.823056 -0.956135 1.67357 -0.796709 -0.953 1.72397 -0.766023 -0.948166 
1.77323 -0.72882 -0.940781 1.82551 -0.706995 -0.934156 1.87979 -0.687869 -0.912885 
1.93624 -0.649659 -0.858325 0.640028 -0.714574 -0.829243 0.620531 -0.715093 -0.683749 
3.236 0.398751 -0.718315 3.30067 0.343422 -0.67549 3.33443 0.273654 -0.631373 
3.36535 0.202098 -0.587537 3.41155 0.131654 -0.539967 3.45435 0.0551026 -0.478301 
3.50499 -0.0280771 -0.396234 0.202998 0.683128 -0.00237217 0.264325 0.6534 -0.0132953 
0.32313 0.643372 -0.00071802 0.38299 0.634987 0.0361883 0.445917 0.614089 0.0839927 
0.512146 0.576735 0.133252 0.576252 0.551615 0.187302 0.639469 0.529044 0.234451 
0.703031 0.499324 0.263004 0.761509 0.491171 0.276315 0.816925 0.495519 0.278735 
0.873046 0.493222 0.270654 0.933158 0.467926 0.253567 0.993269 0.44263 0.236481 
1.04939 0.440334 0.2284 1.10481 0.444682 0.23082 1.1633 0.436427 0.244092 
1.22717 0.404933 0.271949 1.29131 0.373827 0.307883 1.35539 0.329201 0.330865 
1.40674 0.280645 0.33018 1.43017 0.230338 0.316543 1.44283 0.180541 0.296526 
1.4634 0.13229 0.276061 1.4987 0.0869223 0.254762 1.51915 0.0386491 0.234304 
1.52981 -0.0115391 0.2144 1.53791 -0.0595076 0.187691 1.54679 -0.104604 0.153994 
1.56458 -0.145237 0.112842 1.598 -0.185528 0.0777466 1.61489 -0.229058 0.0435965 
1.6132 -0.273497 0.00353821 1.60468 -0.313836 -0.0500177 1.63475 -0.3439 -0.11272 
1.67655 -0.37171 -0.176091 1.70702 -0.399622 -0.245997 1.75616 -0.424897 -0.325291 
0.197357 0.749157 0.126134 2.4211 -0.249077 -0.632412 2.2834 -0.315324 -0.607308 
2.22806 -0.353467 -0.558585 2.18319 -0.398202 -0.489776 2.14019 -0.440967 -0.404588 
2.0943 -0.474436 -0.339444 2.04359 -0.493436 -0.308108 1.9839 -0.48627 -0.321628 
1.91113 -0.460021 -0.358232 2.37373 -0.353735 -0.800162 2.36147 -0.376376 -0.926245 
2.32113 -0.407804 -1.02014 2.27149 -0.448872 -1.08458 2.22246 -0.491925 -1.11006 
2.17278 -0.5203 -1.09292 2.12358 -0.543473 -1.0262 2.06802 -0.562316 -0.914649 
1.9451 -0.565422 -0.661347 1.91241 -0.536681 -0.56698 1.87012 -0.502561 -0.490607 
4.86182 -0.163075 -0.846291 4.91561 -0.117219 -0.812435 4.97256 -0.105733 -0.77047 
5.03019 -0.0992931 -0.722488 5.08507 -0.0789512 -0.674333 5.14384 -0.0759396 -0.617167 
5.20504 -0.07884 -0.538637 5.26754 -0.0719103 -0.416873 5.33347 -0.0651147 -0.271743 
4.771 -0.292275 -0.914102 4.72044 -0.302788 -0.935325 4.60222 -0.263834 -0.918968 
4.55045 -0.286624 -0.92071 4.49902 -0.308809 -0.914316 4.44761 -0.32746 -0.894689 
4.3973 -0.35177 -0.85742 4.342 -0.380465 -0.817142 4.72375 -0.246336 -0.885748 
4.19776 -0.396015 -0.732708 4.13629 -0.396929 -0.705238 4.07992 -0.39654 -0.689872 
4.02175 -0.38146 -0.672835 3.96375 -0.368299 -0.6605 3.90331 -0.341127 -0.642679 
3.84374 -0.316403 -0.617918 3.78808 -0.309015 -0.584158 3.73276 -0.295218 -0.524217 
3.67852 -0.274441 -0.453871 3.63299 -0.247503 -0.390341 3.60152 -0.209549 -0.348414 
3.56501 -0.16714 -0.320095 3.56122 -0.147249 -0.105471 3.59181 -0.180219 0.0693023 
3.64327 -0.185574 0.219768 3.70314 -0.180128 0.341323 3.76416 -0.183004 0.419884 
3.82175 -0.175671 0.470843 3.87294 -0.13927 0.509499 3.92386 -0.101288 0.548774 
3.97898 -0.0823248 0.596389 4.03357 -0.0603039 0.645211 4.08819 -0.0462388 0.667222 
4.13878 -0.0244041 0.644905 4.18422 0.0168116 0.598591 4.91948 0.686916 0.361495 
5.24608 0.341049 0.0140814 5.23179 0.431963 -0.0459575 5.21529 0.496812 -0.0623019 
5.17944 0.543045 -0.0432644 5.14889 0.578496 0.0055765 5.10546 0.595712 0.0970614 
5.05002 0.595261 0.239257 5.34313 0.180327 0.0535924 5.35344 0.109364 0.0737812 
5.38826 -0.0479032 0.0138832 5.35806 -0.0240027 0.106131 4.93169 0.487759 0.46138 
4.89077 0.398703 0.505351 4.85278 0.315703 0.55119 4.81373 0.242589 0.600816 
4.77138 0.186094 0.649045 4.72937 0.122551 0.678717 4.68438 0.0684237 0.688391 
4.63358 0.0425895 0.693356 5.30018 0.117507 0.194999 5.32365 0.0491154 0.214451 

LINES 44 498
9 42 43 44 45 46 47 48 49 33 
13 42 62 63 64 65 66 67 68 69 70 71 72 37 
4 40 95 96 39 
4 39 97 98 36 
4 38 99 100 33 
8 36 101 102 103 104 105 106 31 
16 36 107 108 109 110 111 112 113 114 115 116 117 118 119 120 34 
16 34 123 124 125 126 127 128 129 130 131 132 133 134 135 136 31 
12 34 137 138 139 140 141 142 143 144 145 146 26 
11 33 147 148 149 150 151 152 153 154 155 18 
10 32 159 160 161 162 163 164 165 166 26 
19 31 167 168 169 170 171 172 173 174 175 176 177 178 179 180 181 182 183 19 
5 30 184 185 186 28 
18 30 187 188 189 190 191 192 193 194 195 196 197 198 199 200 201 202 27 
4 27 203 204 25 
3 27 205 23 
6 26 206 207 208 209 21 
3 26 210 21 
3 25 211 24 
4 25 212 213 20 
26 24 214 215 216 217 218 219 220 221 222 223 224 225 226 227 228 229 230 231 232 233 234 235 236 237 18 
3 24 238 22 
11 21 239 240 241 242 243 244 245 246 247 17 
25 19 248 249 250 251 252 253 254 255 256 257 258 259 260 261 262 263 264 265 266 267 268 269 270 13 
4 19 271 272 14 
9 18 273 274 275 276 277 278 279 7 
40 17 280 281 282 283 284 285 286 287 288 289 290 291 292 293 294 295 296 297 298 299 300 301 302 303 304 305 306 307 308 309 310 311 312 313 314 315 316 317 10 
3 17 318 11 
3 16 319 15 
10 15 320 321 322 323 324 325 326 327 10 
10 15 328 329 330 331 332 333 334 335 13 
5 13 336 337 338 10 
4 9 348 349 12 
3 12 356 9 
15 7 370 371 372 373 374 375 376 377 378 379 380 381 382 1 
3 6 383 4 
9 3 384 385 386 387 388 389 390 4 
4 3 391 392 2 
10 4 395 396 397 398 399 400 401 402 0 
4 3 403 404 2 
37 42 50 51 52 53 54 55 56 57 58 59 60 61 41 73 74 75 76 77 78 79 80 81 82 83 84 85 86 87 88 89 90 91 92 93 94 39 
8 35 121 122 29 156 157 158 30 
14 9 339 340 341 342 343 344 345 346 347 5 393 394 2 
22 12 350 351 352 353 354 355 8 357 358 359 360 361 362 363 364 365 366 367 368 369 7 

POINT_DATA 405
SCALARS DY_raw double
LOOKUP_TABLE default
156.099 152.564 197.577 134.906 123.818 217.585 120.863 136.951 138.353 
165.135 165.86 161.377 125.74 182.254 171.539 163.957 147.843 118.456 
138.718 125.658 213.585 128.034 207.25 176.438 145.03 177.449 114.912 
173.899 168.399 128.311 113.486 115.733 119.672 153.065 131.814 123.056 
131.396 126.949 282.326 149.185 306.355 169.99 146.702 140.629 143.043 
158.838 156.621 155.955 138.736 136.515 146.702 162.239 194.755 194.755 
209 193.619 176.308 167.025 184.931 165.182 169.629 164.749 140.005 
136.235 131.386 123.293 115.421 109.72 101.451 99.4063 97.5449 117.8 
129.598 167.437 172.494 176.959 177.678 186.737 181.223 187.321 203.944 
192.922 192.922 186.932 218.793 218.793 219.912 236.568 243.057 245.244 
230.193 205.481 167.086 176.672 176.672 336.977 223.632 157.901 134.9 
181.736 155.951 138.392 159.719 162.504 157.518 123.45 108.647 139.843 
132.77 157.61 181.442 181.442 170.855 172.892 172.892 161.402 182.207 
164.487 132.13 123.982 135.248 122.847 130.133 137.597 154.142 145.096 
153.388 143.517 161.071 147.286 145.575 127.66 128.15 121.134 127.146 
120.164 119.932 123.742 123.734 139.288 141.303 146.392 170.625 128.911 
138.129 123.058 134.468 130.899 115.733 103.857 104.421 107.767 138.159 
118.816 126.307 150.576 125.798 130.163 130.305 127.129 123.251 127.943 
129.571 124.765 135.681 123.094 102.819 126.751 137.803 151.813 172.404 
158.961 166.384 134.08 127.511 158.794 132.214 144.396 177.239 133.655 
150.8 153.086 137.717 138.695 109.82 126.215 154.563 102.943 99.4097 
98.1235 113.36 114.883 134.596 126.668 118.712 118.712 113.481 126.385 
120.065 117.027 117.027 118.338 143.291 149.29 158.664 172.545 138.426 
168.581 141.681 128.329 132.836 147.83 167.524 182.459 173.094 152.187 
150.037 158.116 139.81 133.187 136.469 165.144 162.324 137.417 124.67 
124.67 120.186 120.186 111.232 127.567 127.567 138.283 182.383 157.242 
163.137 176.694 147.479 143.297 150.77 116.787 119.626 125.536 125.591 
110.826 140.842 118.416 119.405 114.875 141.011 164.616 151.393 142.892 
142.892 159.807 156.698 156.698 144.167 144.167 152.584 149.948 149.948 
163.134 165.979 165.979 178.808 184.161 167.104 180.758 165.825 181.848 
184.826 148.425 139.147 135.133 134.121 174.149 154.774 168.724 152.214 
150.895 118.456 128.213 118.843 138.796 143.936 149.539 179.98 183.832 
187.589 187.589 177.235 174.585 174.585 167.843 167.843 182.285 188.444 
206.503 212.852 210.574 219.298 219.298 192.359 224.026 224.026 263.583 
263.72 224.043 195.635 195.635 189.137 211.577 190.244 185.053 200.358 
200.48 171.506 164.05 133.027 149.025 156.598 167.289 199.517 201.916 
250.014 205.861 211.272 187.826 166.875 167.25 167.94 176.408 196.977 
174.06 168.357 179.59 180.245 183.167 181.512 153.68 161.493 164.695 
153.649 165.681 148.427 172.349 166.972 186.286 167.337 148.577 122.39 
109.249 101.929 101.422 123.088 141.025 146.843 145.852 147.925 161.467 
183.286 219.648 199.102 226.787 191.036 175.899 140.294 144.714 141.477 
136.951 147.756 158.821 165.818 150.318 158.885 163.962 166.746 150.807 
150.14 157.321 169.762 155.729 151.07 118.611 125.141 128.408 120.112 
121.458 130.005 137.164 132.835 141.302 150.543 218.961 194.244 135.004 
140.83 130.445 127.517 145.412 151.967 157.662 152.416 156.492 190.302 

FIELD FieldData 7
DY_minmax 1 405 double
0.244553 0.22979 0.417791 0.156042 0.109731 0.501353 0.0973887 0.164583 0.170436 
0.282292 0.28532 0.266597 0.11776 0.353791 0.30904 0.277374 0.210073 0.0873358 
0.171962 0.117416 0.484647 0.12734 0.458188 0.329503 0.198324 0.333724 0.0725349 
0.318896 0.295925 0.128496 0.066578 0.0759633 0.092414 0.231881 0.143125 0.106548 
0.141381 0.122809 0.771745 0.215677 0.872107 0.302572 0.205306 0.179944 0.190023 
0.255992 0.246734 0.243954 0.172037 0.162762 0.205306 0.270197 0.406002 0.406002 
0.465498 0.401259 0.328957 0.290188 0.364971 0.28249 0.301061 0.280679 0.177337 
0.16159 0.141338 0.107538 0.0746602 0.0508516 0.0163138 0.00777418 0 0.0845983 
0.133871 0.291907 0.313029 0.331677 0.334681 0.372515 0.349486 0.374956 0.44438 
0.398347 0.398347 0.373328 0.506398 0.506398 0.511073 0.580635 0.607737 0.616872 
0.554012 0.4508 0.290442 0.330478 0.330478 1 0.526607 0.25208 0.156015 
0.35163 0.243935 0.170601 0.259673 0.271307 0.25048 0.108193 0.0463668 0.176659 
0.14712 0.250865 0.350402 0.350402 0.306183 0.314692 0.314692 0.266704 0.353594 
0.279587 0.144448 0.110414 0.157469 0.105675 0.136104 0.16728 0.236379 0.198598 
0.233231 0.192006 0.265318 0.207748 0.200602 0.125778 0.127823 0.0985226 0.123632 
0.0944698 0.0935009 0.109414 0.109381 0.174342 0.18276 0.204012 0.305224 0.131003 
0.169502 0.106558 0.154211 0.139304 0.0759615 0.026365 0.0287178 0.0426941 0.169625 
0.0888381 0.120127 0.221487 0.117999 0.136233 0.136823 0.123561 0.107362 0.126959 
0.133757 0.113687 0.159277 0.106707 0.0220273 0.121981 0.168138 0.226651 0.312654 
0.256509 0.287509 0.152589 0.125155 0.255811 0.144797 0.195676 0.332847 0.150817 
0.222423 0.231968 0.167781 0.171866 0.0512697 0.119743 0.238138 0.022547 0.0077884 
0.00241657 0.066054 0.072414 0.154747 0.121634 0.0884043 0.0884043 0.0665564 0.120454 
0.0940584 0.0813679 0.0813679 0.0868437 0.191063 0.216117 0.255265 0.31324 0.170743 
0.296686 0.184336 0.128572 0.147394 0.210018 0.292271 0.354649 0.315534 0.228213 
0.219237 0.252979 0.176524 0.148859 0.162568 0.282331 0.270552 0.166527 0.11329 
0.11329 0.0945623 0.0945623 0.0571647 0.125388 0.125388 0.170144 0.35433 0.249326 
0.273946 0.330568 0.208553 0.191087 0.222298 0.0803636 0.0922244 0.116908 0.117135 
0.0554698 0.180834 0.0871675 0.0913002 0.0723819 0.18154 0.280126 0.224898 0.189392 
0.189392 0.260042 0.247055 0.247055 0.194721 0.194721 0.229873 0.218865 0.218865 
0.273934 0.285816 0.285816 0.339398 0.361756 0.290516 0.347545 0.285176 0.352096 
0.364532 0.212504 0.173755 0.156988 0.152763 0.319941 0.239021 0.297282 0.228329 
0.22282 0.0873358 0.128088 0.0889524 0.172289 0.193753 0.217155 0.344292 0.360384 
0.376075 0.376075 0.33283 0.32176 0.32176 0.293603 0.293603 0.353921 0.379646 
0.455067 0.481584 0.47207 0.508506 0.508506 0.395994 0.528253 0.528253 0.693466 
0.694037 0.528324 0.409677 0.409677 0.38254 0.476261 0.387161 0.365481 0.429405 
0.429914 0.308901 0.27776 0.148194 0.215008 0.24664 0.29129 0.42589 0.435912 
0.636793 0.452389 0.474987 0.377063 0.289559 0.291125 0.29401 0.329374 0.415285 
0.319569 0.295749 0.342666 0.345403 0.357607 0.350691 0.234449 0.267082 0.280454 
0.23432 0.284573 0.21251 0.312422 0.289967 0.370632 0.291491 0.213138 0.103766 
0.0488811 0.0183114 0.0161927 0.106681 0.181596 0.205896 0.201757 0.210415 0.266973 
0.358103 0.509969 0.424159 0.539786 0.390469 0.327248 0.178543 0.197006 0.183485 
0.164583 0.209707 0.255921 0.285144 0.220409 0.256189 0.277396 0.289022 0.222451 
0.219666 0.249657 0.301616 0.24301 0.223549 0.0879826 0.115258 0.1289 0.094254 
0.0998736 0.135573 0.165472 0.147392 0.182755 0.221349 0.507102 0.403868 0.15645 
0.180781 0.137409 0.125179 0.19992 0.227296 0.251082 0.229172 0.246194 0.387404 

WidthEq 1 405 double
1.89089 1.30847 2.2768 3.19262 3.56373 2.00503 1.87258 4.74369 3.27124 
2.28919 3.81229 2.80117 2.91096 3.33077 2.35191 4.8971 5.37519 5.17581 
5.68343 4.09863 1 5.58128 1.92712 2.04329 3.75471 3.34916 7.53868 
3.90345 2.17754 5.10327 5.25427 7.00885 2.9207 4.85752 5.50539 2.84208 
5.07896 3.87096 1.52967 4.47441 1.85045 3.36575 4.55778 4.53067 4.19641 
3.25285 3.31651 3.85498 4.52856 4.90139 4.55778 4.07587 3.32929 3.32929 
2.99705 3.30739 3.63339 3.62194 3.28012 3.60635 3.37853 3.33614 4.93357 
4.93762 4.90879 4.8682 5.03665 5.30772 5.39763 5.39569 5.47804 4.75257 
4.45844 3.50296 3.37035 3.35165 3.27179 3.07333 3.0237 2.85603 2.66537 
2.90395 2.90395 3.04793 2.7263 2.7263 2.72279 2.67059 2.57226 2.29402 
2.36625 2.43879 3.11525 3.47772 3.47772 1.72859 2.78473 4.34554 4.96053 
2.70752 3.90703 4.92438 4.30058 3.88903 4.11055 5.13654 6.66478 4.78405 
4.90731 4.09146 3.70032 3.70032 3.98206 3.94809 3.94809 4.00053 3.77535 
3.87548 4.27347 4.17179 4.51197 3.73632 4.30565 5.47064 4.65783 4.64793 
4.24737 4.22594 3.94147 4.02437 4.02468 4.19501 4.4734 5.28723 5.26837 
6.38007 7.0422 5.9972 6.01309 5.45514 5.23331 5.31808 4.78202 6.01473 
6.07355 7.08497 6.79302 6.14181 7.1664 7.46326 7.95919 7.03215 6.24279 
5.51498 5.07078 5.04772 5.39927 5.02403 5.10561 3.44024 3.74988 3.68785 
3.62895 3.44491 3.72783 4.15208 6.3588 7.03713 6.76116 6.25907 5.73283 
6.01262 5.79578 6.03974 6.04916 5.42919 6.04675 5.79002 5.1314 5.30203 
5.06906 4.76652 4.87895 4.69141 4.80789 3.93617 2.95366 5.47384 5.34068 
5.13919 4.85589 4.9684 4.70722 5.21975 5.31536 5.31536 5.4193 4.94175 
5.18921 5.28575 5.28575 5.13685 4.2155 3.92534 3.75471 2.89296 5.16763 
3.35141 3.29243 4.66484 6.36737 3.73967 2.89896 2.09721 3.3645 3.65108 
3.7413 3.55571 3.92721 4.11997 4.01494 3.61578 3.58275 3.97131 4.25407 
4.25407 4.67512 4.67512 4.70247 4.20599 4.20599 3.75907 2.94789 3.23665 
3.54332 3.53304 4.49389 5.32268 3.24849 5.83077 5.97398 5.74116 5.38961 
5.52916 4.75748 5.40862 5.68179 5.5625 4.69717 5.04164 5.18383 5.15352 
5.15352 4.98234 4.86781 4.86781 4.89664 4.89664 4.623 4.73707 4.73707 
4.60773 4.56924 4.56924 4.14101 3.95456 4.03824 3.81673 3.84462 3.72572 
3.51426 4.21043 2.58075 5.65647 5.12197 4.00941 4.24705 3.63129 4.00209 
3.97677 5.17581 5.34902 4.84989 4.60858 4.28313 4.13977 3.54893 3.38235 
3.26812 3.26812 3.31043 3.20953 3.20953 3.132 3.132 2.81458 2.71531 
2.70682 2.69646 2.83585 2.78209 2.78209 2.96043 2.71087 2.71087 2.44191 
2.49536 2.92272 3.42886 3.42886 3.54153 3.35625 3.62443 3.75323 3.83426 
3.78494 4.09878 4.02126 3.29921 5.57676 4.68673 3.98051 3.2788 2.86577 
2.26286 2.70947 2.88673 3.40627 4.56472 4.02336 3.3857 2.88057 2.49894 
2.53852 2.81863 3.06757 3.33287 3.37978 3.5187 2.47245 2.32831 2.25226 
2.5312 2.43676 2.89958 2.72427 2.6367 2.32044 2.19374 2.54343 3.14213 
3.70765 3.84478 3.79982 3.58602 3.34136 2.57802 3.13403 3.14595 2.93215 
2.6508 2.29246 2.42687 2.35822 2.86164 3.26111 4.09808 4.12153 4.40951 
4.74369 4.3485 4.24854 3.98043 3.82187 3.3169 3.16356 3.03555 2.78598 
2.68126 2.36228 2.16819 2.04859 1.91153 3.05643 3.87158 3.94669 3.95775 
3.55626 3.2749 3.19956 3.60729 2.95724 2.76097 2.03339 2.28257 3.59771 
3.22215 2.92779 2.68235 2.47424 2.14076 2.2246 2.23457 2.94734 2.55901 

rRFP 1 405 double
2459.77 2385.02 2509.3 2626.84 2674.47 2474.42 2457.42 2825.91 2636.93 
2510.89 2706.37 2576.6 2590.69 2644.57 2518.94 2845.6 2906.96 2881.37 
2946.52 2743.12 2345.43 2933.41 2464.42 2479.33 2698.98 2646.93 3184.63 
2718.07 2496.56 2872.06 2891.44 3116.63 2591.94 2840.52 2923.67 2581.85 
2868.94 2713.9 2413.41 2791.35 2454.58 2649.06 2802.05 2798.57 2755.67 
2634.57 2642.74 2711.85 2798.3 2846.15 2802.05 2740.2 2644.38 2644.38 
2601.74 2641.57 2683.41 2681.94 2638.07 2679.94 2650.7 2645.26 2850.28 
2850.8 2847.1 2841.89 2863.51 2898.3 2909.84 2909.59 2920.16 2827.05 
2789.3 2666.67 2649.65 2647.25 2637 2611.53 2605.16 2583.64 2559.17 
2589.79 2589.79 2608.27 2566.99 2566.99 2566.54 2559.84 2547.22 2511.51 
2520.78 2530.09 2616.91 2663.43 2663.43 2438.94 2574.49 2774.81 2853.74 
2564.58 2718.53 2849.1 2769.04 2716.22 2744.65 2876.33 3072.47 2831.09 
2846.91 2742.2 2692 2692 2728.16 2723.8 2723.8 2730.53 2701.63 
2714.48 2765.56 2752.51 2796.17 2696.62 2769.69 2919.21 2814.89 2813.62 
2762.21 2759.46 2722.95 2733.59 2733.63 2755.49 2791.22 2895.67 2893.25 
3035.93 3120.91 2986.79 2988.83 2917.22 2888.75 2899.63 2830.83 2989.04 
2996.59 3126.4 3088.93 3005.35 3136.85 3174.95 3238.6 3119.62 3018.31 
2924.9 2867.89 2864.93 2910.05 2861.89 2872.36 2658.62 2698.36 2690.4 
2682.84 2659.22 2695.53 2749.98 3033.2 3120.26 3084.84 3020.4 2952.86 
2988.77 2960.94 2992.25 2993.46 2913.89 2993.15 2960.2 2875.67 2897.57 
2867.67 2828.84 2843.27 2819.2 2834.15 2722.27 2596.17 2919.62 2902.53 
2876.67 2840.31 2854.75 2821.23 2887.01 2899.28 2899.28 2912.62 2851.33 
2883.09 2895.48 2895.48 2876.37 2758.12 2720.88 2698.98 2588.38 2880.32 
2647.22 2639.65 2815.79 3034.3 2697.05 2589.15 2486.25 2648.9 2685.68 
2697.26 2673.44 2721.12 2745.86 2732.38 2681.15 2676.91 2726.78 2763.07 
2763.07 2817.11 2817.11 2820.62 2756.9 2756.9 2699.54 2595.43 2632.49 
2671.85 2670.53 2793.85 2900.22 2634.01 2965.43 2983.81 2953.93 2908.81 
2926.72 2827.68 2911.25 2946.31 2931 2819.94 2864.15 2882.4 2878.51 
2878.51 2856.54 2841.84 2841.84 2845.54 2845.54 2810.42 2825.06 2825.06 
2808.46 2803.52 2803.52 2748.56 2724.63 2735.37 2706.94 2710.52 2695.26 
2668.12 2757.47 2548.31 2943.06 2874.46 2731.67 2762.17 2683.14 2730.73 
2727.48 2881.37 2903.6 2839.54 2808.57 2766.8 2748.4 2672.57 2651.19 
2636.53 2636.53 2641.96 2629.01 2629.01 2619.06 2619.06 2578.32 2565.58 
2564.49 2563.16 2581.05 2574.15 2574.15 2597.04 2565.01 2565.01 2530.49 
2537.35 2592.2 2657.16 2657.16 2671.62 2647.84 2682.26 2698.79 2709.19 
2702.86 2743.14 2733.19 2640.52 2932.83 2818.6 2727.96 2637.9 2584.89 
2507.51 2564.83 2587.58 2654.26 2802.94 2733.46 2651.62 2586.79 2537.81 
2542.89 2578.84 2610.79 2644.84 2650.86 2668.69 2534.41 2515.91 2506.15 
2541.95 2529.83 2589.23 2566.73 2555.49 2514.9 2498.64 2543.52 2620.36 
2692.94 2710.54 2704.77 2677.33 2645.93 2547.96 2619.32 2620.85 2593.41 
2557.3 2511.31 2528.56 2519.75 2584.36 2635.63 2743.05 2746.06 2783.02 
2825.91 2775.19 2762.36 2727.95 2707.6 2642.79 2623.11 2606.68 2574.65 
2561.21 2520.27 2495.36 2480.01 2462.42 2609.36 2713.98 2723.62 2725.04 
2673.51 2637.4 2627.73 2680.06 2596.63 2571.44 2478.06 2510.04 2678.83 
2630.63 2592.85 2561.35 2534.64 2491.84 2502.6 2503.88 2595.36 2545.52 

rGFP 1 405 double
2565.37 2469.83 2720.05 2700.91 2711.46 2706.47 2496.53 2919.86 2722.79 
2648.23 2902.51 2722.25 2636.23 2877.25 2673.65 3073.12 3064.89 2883.31 
3058.6 2785.23 2483.79 2984.8 2669.6 2630.72 2814.75 2864.51 3136.49 
2949.01 2636.9 2925.01 2866.49 3081.36 2619.73 3013.72 2995.89 2619.94 
2937.56 2761.62 2702.07 2937.72 2837.1 2842.35 2938.84 2907.35 2870.47 
2786.88 2789.64 2871.41 2898.48 2939.32 2938.84 2931.47 2918.6 2918.6 
2896.59 2910.58 2910.8 2875.16 2876.8 2865.91 2843.3 2819.83 2960.93 
2942.88 2915.15 2870.42 2851.54 2852.57 2817.8 2806.57 2804.56 2830.06 
2848.01 2856.73 2851.57 2863.31 2851.53 2844.11 2818.17 2805.2 2813.79 
2830.44 2830.44 2839.96 2866.7 2866.7 2868.98 2901.98 2895.41 2832.8 
2814.9 2771.33 2790.72 2884.62 2884.62 2852.7 2892.96 2956.37 2939.38 
2762.26 2879.51 2951.7 2957.09 2902.19 2917.69 2904.31 2994.31 2939.22 
2921.75 2915.06 2941.6 2941.6 2950.56 2952.8 2952.8 2915.9 2958.1 
2907.67 2834.86 2787.43 2880.44 2729.2 2830.51 3022.95 2988.17 2944.6 
2921.7 2876.7 2905.06 2862.94 2856.1 2805.74 2843.47 2910.67 2940.06 
3036.86 3114.79 3012.31 3014.23 3030.04 3009.69 3048.73 3086.14 3045.57 
3109.14 3142.07 3183.65 3074.16 3099.59 3045.32 3101.31 3028.04 3132.7 
2925.47 2910.68 3030.27 2949.42 2924.15 2935.49 2707.56 2732.38 2742.04 
2740.41 2700.01 2776 2781.3 2924.01 3162.17 3201.91 3220.41 3258.57 
3225.98 3234.53 3080.01 3041.54 3132.33 3069.67 3106.26 3179.69 2978.85 
3034.62 2999.89 2942.12 2920.88 2798.21 2767.01 2726.73 2833.7 2801.12 
2774.48 2820.67 2840.99 2903.78 2931.38 2901.2 2901.2 2885.19 2894.77 
2893.25 2888.78 2888.78 2878.09 2874.25 2856.22 2865.94 2769.37 2985.54 
2835.19 2736.68 2868.84 3116.02 2823.04 2755.85 2652.86 2852.58 2825.85 
2831.54 2832.42 2819.27 2818.93 2818.12 2867.33 2851.77 2815.93 2800.56 
2800.56 2832.09 2832.09 2793.27 2806.75 2806.75 2790.02 2807.85 2779.14 
2848.25 2894.47 2932.96 3032.93 2759.98 2951.16 2984.85 2990.93 2947.09 
2882.98 2940.26 2910.67 2948.64 2909.2 2932.56 3100.14 3055 3006.6 
3006.6 3066.42 3032.98 3032.98 2976.14 2976.14 2975.6 2980.52 2980.52 
3021.88 3028.6 3028.6 3010.65 2998.48 2945.01 2960.11 2907.74 2947.72 
2919.73 2895.14 2629.31 3034.58 2957.17 2968.44 2927.54 2882.89 2879.38 
2870.28 2883.31 2956.02 2846.58 2909.86 2886.7 2889.26 2908.94 2891.99 
2883.27 2883.27 2856.93 2830.54 2830.54 2795.89 2795.89 2783.26 2781.89 
2829.17 2844.15 2867.36 2880.31 2880.31 2839.67 2877.51 2877.51 2913.85 
2928.28 2925.02 2941.01 2941.01 2940.04 2980.31 2959.73 2964.75 3038.43 
3029.01 2973.17 2929.89 2709.09 3101.28 3004.14 2936.1 2924.38 2848.85 
2835.95 2827.98 2880.09 2909.99 3031.94 2943.11 2838.8 2778.36 2762.44 
2712.06 2744.74 2821.11 2870.94 2889.27 2908.89 2650.17 2646.21 2641.14 
2659.12 2673.93 2700.58 2739.73 2710.46 2702.47 2637.3 2648.1 2654.77 
2675.26 2662.1 2655.59 2711.6 2741.42 2648.77 2727.31 2735.57 2743.65 
2756.06 2773.74 2753.4 2805.02 2816.88 2843.83 2845.14 2866.65 2894.05 
2919.86 2912.72 2944.96 2930.23 2844.7 2797.21 2788.91 2776.37 2690.35 
2672.77 2641.84 2638.28 2589.23 2558.98 2632.73 2754.7 2776.99 2745.58 
2702.14 2695.96 2709.07 2749.38 2688.07 2685.85 2715.44 2713.58 2755.91 
2723.98 2652.12 2612.25 2629.99 2595.53 2620.94 2610.79 2731.44 2757.19 

bkstRFP 1 405 double
242.684 167.934 292.214 409.754 457.384 257.334 240.334 608.824 419.844 
293.804 489.284 359.514 373.604 427.484 301.854 628.514 689.874 664.284 
729.434 526.034 128.344 716.324 247.334 262.244 481.894 429.844 967.544 