# vtk DataFile Version 3.0
vtk output
ASCII
DATASET POLYDATA
POINTS 620 float
0.352422 -0.00673535 1.46643 5.40928 0.444718 0.727908 6.36588 0.104763 1.00785 
0.727795 0.974734 0.693853 1.87707 1.38763 0.690906 5.92039 -1.23513 0.861035 
6.28862 0.47211 0.790336 3.05031 0.897487 0.52806 3.75472 -0.300807 0.590534 
4.91916 0.307203 0.479041 7.002 -0.58704 0.579813 3.43614 0.408415 0.354657 
3.62695 -0.225051 0.38526 4.55734 -1.16003 0.238874 5.12122 0.420301 0.176408 
7.39123 -0.240528 -0.0214404 -0.440018 -0.65934 -0.0502166 4.6955 0.223601 -0.0875176 
4.88586 0.473179 -0.0292894 3.50981 -0.543477 -0.269584 4.33431 -0.102881 -0.211351 
5.04992 0.498649 -0.228442 7.21232 -0.85769 -0.139507 7.28393 0.042184 -0.278514 
-0.292472 -0.945265 -0.661252 1.55075 1.09324 -0.501694 7.36997 -0.44667 -0.489293 
-0.339136 -0.329114 -0.664137 2.1566 1.15648 -0.696623 2.59026 0.967848 -0.68248 
7.27409 -0.170625 -0.56954 5.32712 -1.32427 -0.744647 6.80966 -0.977837 -0.873674 
7.19467 -0.318686 -0.964471 2.85275 -0.521174 -1.21367 6.86622 -0.532144 -1.22636 
0.170412 -0.595444 -1.4464 6.58807 -0.363583 -1.57122 0.448022 -0.836093 -1.83246 
0.470858 -0.943577 -1.82739 0.45944 -0.889835 -1.82993 6.54779 -0.428317 -1.56889 
6.51897 -0.490616 -1.56652 6.51473 -0.547688 -1.56405 6.51049 -0.60476 -1.56157 
6.48177 -0.667036 -1.5592 6.44338 -0.731369 -1.55686 6.41457 -0.793318 -1.54709 
6.41024 -0.849363 -1.52242 6.40938 -0.903511 -1.47554 6.40669 -0.955493 -1.41395 
6.44321 -0.988583 -1.34526 6.49788 -1.00177 -1.2698 6.55851 -1.02498 -1.18638 
6.6168 -1.03608 -1.09366 6.66821 -1.00839 -1.01016 6.72896 -0.986608 -0.936159 
6.57796 -0.306772 -1.51455 6.5795 -0.248531 -1.48003 6.60423 -0.186753 -1.47503 
6.61928 -0.127731 -1.48485 6.59305 -0.0767899 -1.48004 6.56181 -0.0258693 -1.45306 
6.53339 0.0260025 -1.41865 6.53829 0.0842597 -1.39892 6.5481 0.143214 -1.38657 
6.56476 0.203973 -1.36679 6.56631 0.262913 -1.31748 6.56746 0.323164 -1.23856 
6.58316 0.387792 -1.12999 6.59589 0.450277 -1.01394 6.62764 0.505682 -0.912147 
6.67359 0.543409 -0.839056 6.72292 0.574235 -0.780439 6.77887 0.574158 -0.70554 
6.83388 0.578103 -0.608577 6.88967 0.578365 -0.511441 6.95112 0.552554 -0.442746 
7.01541 0.513533 -0.410498 7.07862 0.471264 -0.400365 7.13206 0.426109 -0.40507 
7.16721 0.376367 -0.424641 7.19602 0.324232 -0.466435 7.19341 0.265426 -0.504649 
7.19769 0.20704 -0.502006 7.22415 0.138927 -0.420783 6.65237 -0.402748 -1.49695 
6.71734 -0.442078 -1.41524 6.78685 -0.484001 -1.32347 0.117767 -0.546982 -1.3751 
0.0780637 -0.49553 -1.29633 0.0236349 -0.448372 -1.20275 -0.0384787 -0.413162 -1.10873 
-0.0988469 -0.394923 -1.01396 -0.160176 -0.372417 -0.934194 -0.220032 -0.35685 -0.854115 
-0.28106 -0.335903 -0.766872 0.127122 -0.657568 -1.37748 0.0834535 -0.717915 -1.30866 
0.037688 -0.768392 -1.24029 -0.0116015 -0.802277 -1.17271 -0.0600823 -0.840864 -1.09843 
-0.113179 -0.872172 -0.997644 -0.18287 -0.911567 -0.849442 0.233164 -0.62437 -1.54068 
0.288229 -0.617668 -1.60697 0.336824 -0.581195 -1.6376 0.38589 -0.547214 -1.65329 
0.433961 -0.508411 -1.67661 0.485852 -0.487183 -1.72134 0.53994 -0.476152 -1.77303 
0.594284 -0.466464 -1.81722 0.647976 -0.454122 -1.83929 0.699395 -0.431353 -1.84703 
0.747572 -0.393462 -1.84807 0.798894 -0.370375 -1.8484 0.852389 -0.357377 -1.85568 
0.906459 -0.346813 -1.87767 0.960848 -0.33734 -1.92186 1.01526 -0.327974 -1.96604 
1.06978 -0.319511 -1.98793 1.12618 -0.320729 -1.96488 1.18788 -0.347317 -1.91839 
1.25165 -0.383667 -1.87143 1.31365 -0.411238 -1.84714 1.37025 -0.413112 -1.83888 
1.42459 -0.4041 -1.84597 1.4791 -0.395637 -1.86787 1.53599 -0.397919 -1.9115 
1.59642 -0.41689 -1.95434 1.65587 -0.431624 -1.97514 1.71789 -0.459302 -1.95084 
1.77963 -0.486096 -1.90434 1.83861 -0.499874 -1.85845 1.90106 -0.529545 -1.83406 
1.96577 -0.569634 -1.824 2.03076 -0.611525 -1.81386 2.09379 -0.653245 -1.78893 
2.14673 -0.695954 -1.74184 2.18446 -0.740036 -1.69489 2.23513 -0.771752 -1.66315 
2.29241 -0.786012 -1.66175 2.35204 -0.802712 -1.6528 2.40794 -0.801716 -1.62243 
2.46123 -0.789115 -1.55555 2.51366 -0.77261 -1.48142 2.56399 -0.746246 -1.40777 
2.61126 -0.705299 -1.34221 2.66139 -0.677694 -1.28344 2.71169 -0.650648 -1.23948 
2.75913 -0.609673 -1.21842 2.80747 -0.572715 -1.21199 6.94229 -0.500491 -1.22427 
7.00149 -0.470312 -1.20998 7.05041 -0.429947 -1.17898 7.10074 -0.402738 -1.13255 
7.15027 -0.372592 -1.05908 6.85684 -0.616744 -1.22026 6.84066 -0.685094 -1.20261 
6.84948 -0.739616 -1.17537 6.8733 -0.789554 -1.14565 6.86666 -0.845623 -1.09629 
6.85 -0.905868 -1.00486 7.25778 -0.356707 -0.84577 7.31736 -0.397594 -0.687448 
7.23438 -0.244656 -0.767006 6.88791 -1.02141 -0.7397 6.94954 -1.02667 -0.627416 
7.00356 -1.01458 -0.540718 7.05638 -0.999631 -0.461581 7.10895 -0.980795 -0.372728 
7.16099 -0.940907 -0.262571 5.27042 -1.32206 -0.745501 5.21058 -1.30505 -0.747053 
5.15181 -1.29309 -0.748367 5.09159 -1.27429 -0.750003 5.0328 -1.26222 -0.751323 
4.97256 -1.24332 -0.752964 4.91347 -1.22934 -0.754372 4.85264 -1.1984 -0.756554 
4.79949 -1.1555 -0.759164 4.76069 -1.10734 -0.754396 4.70683 -1.06158 -0.734898 
4.64301 -1.01724 -0.700635 4.57752 -0.973251 -0.666387 4.514 -0.92954 -0.646917 
4.46215 -0.883699 -0.634814 4.43508 -0.832937 -0.630005 4.41 -0.7821 -0.632592 
4.37229 -0.735343 -0.664828 4.34781 -0.686123 -0.704414 4.32303 -0.636267 -0.729197 
4.28284 -0.587599 -0.709645 4.24761 -0.536828 -0.667866 4.20912 -0.48675 -0.62611 
4.1974 -0.432024 -0.606447 4.21237 -0.371973 -0.59407 4.22578 -0.311558 -0.566906 
4.2554 -0.245602 -0.495282 4.29421 -0.17525 -0.371815 7.34723 -0.532251 -0.443792 
7.32406 -0.599996 -0.381777 7.31965 -0.654804 -0.300314 7.31332 -0.709725 -0.226279 
7.27573 -0.776166 -0.171933 7.29404 -0.0790561 -0.428735 7.33407 -0.204054 -0.3056 
2.65548 0.925545 -0.679736 2.72058 0.88322 -0.676992 2.78391 0.840516 -0.674256 
2.83736 0.795711 -0.671558 2.8742 0.747375 -0.668925 2.91599 0.700091 -0.666273 
2.95094 0.651353 -0.663648 2.99262 0.604046 -0.660997 3.02757 0.555308 -0.658372 
3.06946 0.507697 -0.663122 3.10649 0.458354 -0.682686 3.15864 0.411182 -0.724388 
3.21089 0.363682 -0.773502 3.24812 0.313335 -0.815263 3.28831 0.264665 -0.834815 
3.31159 0.213097 -0.839638 3.3249 0.159756 -0.837098 3.33653 0.10606 -0.834565 
3.34994 0.0527424 -0.832024 3.37492 0.00188269 -0.829438 3.42447 -0.0437496 -0.826756 
3.47403 -0.0893824 -0.824073 3.49889 -0.140264 -0.821488 3.51032 -0.193656 -0.811553 
3.50978 -0.248894 -0.78687 3.49234 -0.306681 -0.740055 3.48145 -0.362217 -0.673473 
3.47453 -0.416831 -0.577216 3.49638 -0.471512 -0.441029 2.09227 1.19458 -0.699169 
2.03283 1.2097 -0.700632 1.98423 1.1738 -0.69969 1.93821 1.12593 -0.705602 
1.88746 1.1004 -0.719975 1.83429 1.08631 -0.734896 1.78041 1.07509 -0.727701 
1.7261 1.0654 -0.690917 1.67109 1.05858 -0.632025 1.61353 1.06363 -0.566286 
-0.380795 -0.38926 -0.558219 -0.410802 -0.447627 -0.467049 -0.416022 -0.501071 -0.383184 
-0.419454 -0.553786 -0.291911 -0.436201 -0.608286 -0.178491 -0.338579 -0.266897 -0.540821 
-0.322996 -0.202182 -0.43225 -0.312074 -0.139854 -0.353298 -0.293813 -0.0773595 -0.303916 
-0.280204 -0.0169004 -0.276751 -0.249987 0.0470898 -0.24952 -0.209967 0.113402 -0.214843 
-0.167691 0.177985 -0.187478 -0.122837 0.23152 -0.18925 -0.0744412 0.26893 -0.219922 
-0.0292019 0.320803 -0.258696 0.0119861 0.382714 -0.283132 0.0428174 0.444979 -0.292896 
0.0586291 0.50486 -0.287919 0.0890424 0.568543 -0.26809 0.128964 0.635182 -0.226021 
0.170945 0.70075 -0.176449 0.215129 0.75647 -0.126422 0.262959 0.795174 -0.08301 
0.310021 0.837352 -0.0323446 0.360606 0.862948 0.0191125 0.413009 0.880126 0.0635387 
0.463913 0.904631 0.0927944 0.511596 0.944161 0.12876 0.561952 0.970427 0.202418 
0.614092 0.98733 0.32843 0.668472 0.992872 0.499462 -0.247852 -1.06291 -0.576662 
-0.225066 -1.13758 -0.505378 -0.210492 -1.1923 -0.454569 -0.185735 -1.24232 -0.428848 
-0.136172 -1.2876 -0.418763 -0.0846212 -1.33281 -0.416073 -0.0459819 -1.38076 -0.413433 
0.00766256 -1.42587 -0.418137 0.0712858 -1.46956 -0.437597 0.136986 -1.51385 -0.479246 
0.202892 -1.55845 -0.528306 0.268676 -1.60261 -0.56996 0.333764 -1.6439 -0.589506 
0.3962 -1.67299 -0.594802 0.453419 -1.67752 -0.601256 0.510814 -1.6826 -0.622508 
0.573342 -1.71144 -0.664884 0.636328 -1.74229 -0.714593 0.696069 -1.75801 -0.757587 
0.756205 -1.776 -0.778231 0.812621 -1.77675 -0.784863 0.867219 -1.76908 -0.784474 
0.923612 -1.76972 -0.79111 0.983348 -1.78582 -0.811844 1.04061 -1.78989 -0.855387 
1.09798 -1.79429 -0.906342 1.15793 -1.81115 -0.941865 1.21461 -1.81325 -0.941015 
1.27069 -1.81339 -0.895773 1.32914 -1.82522 -0.820309 1.38423 -1.8215 -0.730764 
1.43744 -1.80867 -0.656462 1.49057 -1.79505 -0.604451 1.54407 -1.78262 -0.582044 
1.59776 -1.77086 -0.57443 1.65166 -1.75974 -0.581621 1.70565 -1.74896 -0.596204 
1.75977 -1.73861 -0.618184 1.81394 -1.72895 -0.617888 1.86942 -1.72596 -0.587619 
1.92547 -1.72638 -0.520121 1.97526 -1.69729 -0.454003 2.02667 -1.67558 -0.402373 
2.08179 -1.67091 -0.372182 2.13871 -1.67474 -0.341591 2.19115 -1.65786 -0.289734 
2.2475 -1.65984 -0.214735 2.30231 -1.65466 -0.132665 2.3558 -1.64271 -0.0805755 
2.40939 -1.63061 -0.0655699 2.46299 -1.61794 -0.0802416 2.51439 -1.59507 -0.0879864 
2.56206 -1.55496 -0.0817087 2.61049 -1.51881 -0.0530018 2.65747 -1.47583 -0.0246166 
2.70588 -1.43957 0.00408514 2.75303 -1.39713 0.0176608 2.80133 -1.35997 0.0240775 
2.84621 -1.30654 0.0223102 2.88901 -1.24335 0.0200829 2.93181 -1.18016 0.0178556 
2.97669 -1.12674 0.0160883 3.02509 -1.0899 0.0151029 3.07252 -1.04834 0.00647731 
3.12121 -1.01249 -0.0167042 3.16668 -0.96103 -0.0628641 3.21008 -0.899808 -0.109494 
3.25318 -0.837603 -0.133917 3.29783 -0.783413 -0.120896 3.34563 -0.743765 -0.102233 
3.3918 -0.68972 -0.113901 3.44345 -0.62262 -0.175506 7.39866 -0.346145 -0.258902 
-0.356542 -0.808104 -0.455915 -0.41032 -0.723495 -0.251827 7.38684 -0.00439285 -0.110351 
7.44816 -0.0519723 -0.00096164 7.44946 -0.124238 0.0202654 7.17622 0.0924315 -0.0411793 
7.09926 0.119411 0.167934 7.03501 0.144305 0.329109 6.97645 0.152385 0.457738 
6.91799 0.160963 0.560398 6.85477 0.192096 0.654568 6.79147 0.224026 0.726469 
6.73113 0.242294 0.784178 6.6682 0.27302 0.826464 6.60517 0.304073 0.876153 
6.545 0.321784 0.919063 6.48197 0.353422 0.939064 6.41745 0.392856 0.914213 
6.35295 0.432757 0.859679 7.14536 -0.795902 -0.00471963 7.10982 -0.733626 0.15272 
7.07294 -0.665761 0.349435 4.99563 0.488848 -0.191653 4.94094 0.480358 -0.125275 
5.09403 0.557469 -0.326861 5.14019 0.606061 -0.395128 5.19156 0.62961 -0.432565 
5.24505 0.643192 -0.469532 5.29766 0.661445 -0.53637 5.35 0.681531 -0.632964 
5.4107 0.662259 -0.727703 5.47306 0.634645 -0.792379 5.5297 0.633224 -0.821222 
5.58155 0.65399 -0.828867 5.62977 0.691675 -0.829893 5.68151 0.712769 -0.830136 
5.73778 0.712561 -0.829376 5.79965 0.686 -0.827374 5.86157 0.659234 -0.825362 
5.91864 0.655245 -0.824424 5.97534 0.653033 -0.823569 6.03476 0.638022 -0.822111 
6.09053 0.640028 -0.814037 6.14186 0.66254 -0.784688 6.18905 0.703708 -0.711732 
6.23818 0.734239 -0.586364 6.28485 0.766227 -0.416605 6.31721 0.807849 -0.225221 
6.32861 0.817257 -0.0326896 6.33447 0.78693 0.146702 6.33191 0.739387 0.297082 
6.31514 0.685691 0.425291 6.31341 0.634035 0.531377 6.31966 0.583727 0.630081 
6.31633 0.530684 0.713963 5.09691 0.461888 -0.0259723 4.74677 0.311075 -0.17722 
4.79452 0.373604 -0.201596 4.84209 0.416438 -0.141062 4.37669 -0.0377 -0.213673 
4.41909 0.0273745 -0.215989 4.46187 0.0906703 -0.218221 4.50676 0.144262 -0.21505 
4.55654 0.180817 -0.196234 4.61463 0.215668 -0.152504 4.38419 -0.142168 -0.0754729 
4.42095 -0.183895 0.0677562 4.4724 -0.221689 0.225843 4.53303 -0.254862 0.398674 
4.59305 -0.276229 0.563556 4.64766 -0.270973 0.690116 4.6983 -0.246167 0.771261 
4.74538 -0.204097 0.821931 4.79321 -0.165393 0.865353 4.83772 -0.110763 0.893189 
4.8809 -0.0493525 0.891046 4.92606 0.00274021 0.85968 4.97266 0.0390706 0.814195 
5.00436 0.0877046 0.764263 5.00525 0.142081 0.695135 4.97923 0.209477 0.599104 
3.56339 -0.48174 -0.113404 3.59581 -0.416767 0.0250418 3.59924 -0.354868 0.143465 
3.6018 -0.292496 0.261847 4.89892 0.407111 0.222227 4.7613 0.247434 0.126113 
4.82739 0.286454 0.314359 -0.426927 -0.647489 0.142229 -0.388981 -0.631287 0.31257 
-0.339359 -0.612487 0.445883 -0.28945 -0.585055 0.541727 -0.242784 -0.541566 0.621991 
-0.195546 -0.500896 0.709805 -0.152129 -0.442661 0.819034 -0.110506 -0.376115 0.935289 
-0.066688 -0.319766 1.04461 -0.0169971 -0.290645 1.13297 0.0349881 -0.272049 1.20699 
0.0854739 -0.246125 1.26584 0.132656 -0.204373 1.30911 0.181179 -0.168276 1.33535 
0.229359 -0.124357 1.36124 0.285266 -0.079217 1.40448 7.26583 -0.267482 0.198415 
7.19286 -0.31548 0.359528 7.14509 -0.375341 0.449115 7.10128 -0.438974 0.502903 
7.05485 -0.507992 0.54242 5.0725 0.37303 0.263132 5.00813 0.342827 0.363708 
5.16526 0.475313 0.300624 5.21504 0.503458 0.418679 5.2703 0.50663 0.523097 
5.33425 0.477632 0.629045 4.61024 -1.14564 0.305684 4.66325 -1.13158 0.365092 
4.71648 -1.11828 0.409701 4.7704 -1.10785 0.432203 4.82698 -1.10962 0.440455 
4.88889 -1.13639 0.442466 4.95109 -1.16462 0.451965 5.00994 -1.17738 0.475559 
5.06919 -1.19242 0.521504 5.12489 -1.19077 0.566672 5.17871 -1.18001 0.596575 
5.23296 -1.17068 0.596886 5.28963 -1.17278 0.597735 5.35142 -1.19911 0.607144 
5.41304 -1.22489 0.631352 5.46982 -1.2279 0.654487 5.52612 -1.2288 0.68494 
5.58509 -1.24238 0.723408 5.64134 -1.24306 0.753851 5.69764 -1.24338 0.754616 
5.7553 -1.24972 0.733413 5.80853 -1.23546 0.726084 5.8653 -1.23885 0.77148 
3.5613 -0.181899 0.449214 3.49811 -0.150396 0.513706 3.44085 -0.14691 0.586947 
3.38832 -0.165957 0.676074 3.34122 -0.210809 0.781243 3.29423 -0.256087 0.879024 
3.24235 -0.2779 0.953447 3.18868 -0.290925 1.00521 3.13669 -0.311825 1.05735 
3.08773 -0.347103 1.11758 3.03552 -0.367241 1.18452 2.98113 -0.377289 1.25839 
2.92625 -0.385123 1.33958 2.87084 -0.390637 1.42806 2.81308 -0.384928 1.50861 
2.7502 -0.354993 1.5806 2.6874 -0.325277 1.64518 2.62954 -0.318666 1.70344 
2.57225 -0.314489 1.74698 2.51249 -0.298289 1.76771 2.4557 -0.295751 1.77425 
2.39862 -0.291761 1.77332 2.33661 -0.264667 1.77871 2.2744 -0.236918 1.79889 
2.21673 -0.230962 1.84234 2.15934 -0.226457 1.8933 2.09929 -0.209275 1.93622 
2.04232 -0.206188 1.95757 1.98555 -0.203757 1.96412 1.92611 -0.188638 1.96266 
1.86986 -0.188538 1.9619 1.81614 -0.200198 1.95428 1.76469 -0.222274 1.93233 
1.71463 -0.250484 1.88842 1.65838 -0.249414 1.83571 1.6031 -0.253058 1.79065 
1.5492 -0.263595 1.76815 1.49508 -0.273369 1.76044 1.43878 -0.273054 1.75968 
1.37896 -0.256147 1.75813 1.32022 -0.244291 1.75682 1.2604 -0.227385 1.75527 
1.2042 -0.227397 1.74711 1.15018 -0.237499 1.73201 1.09626 -0.247928 1.7095 
1.04008 -0.248048 1.70134 0.980567 -0.232699 1.70729 0.923977 -0.231401 1.72872 
0.86928 -0.238741 1.73573 0.81316 -0.238974 1.72016 0.753913 -0.223935 1.67421 
0.695433 -0.212371 1.621 0.633308 -0.18379 1.57442 0.568777 -0.144445 1.5471 
0.503008 -0.102481 1.52705 0.432614 -0.0576183 1.50188 3.69078 -0.262765 0.491593 
3.38648 0.454025 0.351974 3.35961 0.504483 0.349381 3.33443 0.555647 0.354197 
3.29623 0.604391 0.366353 3.27275 0.656614 0.385971 3.25735 0.709858 0.390825 
3.23217 0.760674 0.388238 3.18051 0.806208 0.39295 3.1166 0.851229 0.442009 
6.91576 -0.572846 0.684327 6.84452 -0.548554 0.786111 6.78267 -0.529921 0.883325 
6.72074 -0.495571 0.957609 6.667 -0.450358 1.0068 6.62989 -0.401146 1.02636 
6.588 -0.353534 1.03111 6.55305 -0.304797 1.02849 6.51137 -0.257489 1.02584 
6.47632 -0.208424 1.03061 6.43434 -0.160134 1.05016 6.39891 -0.109407 1.09193 
6.35863 -0.0597095 1.13369 6.33724 -0.00739014 1.14591 6.33807 0.0468654 1.09903 
6.23443 0.461981 0.819724 6.18002 0.452615 0.8639 6.12513 0.445356 0.915404 
6.06824 0.447637 0.959031 6.00813 0.465527 0.97968 5.94928 0.47771 0.985773 
5.88946 0.494617 0.984226 5.83317 0.494932 0.98346 5.77897 0.485379 0.98316 
5.72515 0.474047 0.982944 5.67143 0.462387 0.975325 5.61744 0.451749 0.952832 
5.56023 0.44803 0.900328 5.49128 0.451959 0.825074 1.82615 1.36265 0.691333 
1.77799 1.32466 0.692372 1.72667 1.30156 0.69271 1.6733 1.28813 0.692593 
1.61993 1.2747 0.692475 1.56858 1.25171 0.692808 1.52001 1.21571 0.693754 
1.46611 1.2046 0.700945 1.4068 1.2187 0.721773 1.34996 1.22078 0.765409 
1.29507 1.21352 0.816914 1.24075 1.20382 0.853688 1.18696 1.19238 0.853476 
1.13365 1.17931 0.816275 1.08067 1.16514 0.756872 1.02806 1.14919 0.697552 
0.977335 1.12414 0.653487 0.929358 1.08558 0.639729 0.877959 1.06271 0.647474 
0.82469 1.04838 0.669641 0.773597 1.02394 0.684867 0.683244 0.916762 0.85896 
0.639186 0.857152 0.987077 0.595927 0.79527 1.06339 0.554942 0.732128 1.10272 
0.523935 0.67076 1.13468 0.509241 0.613906 1.18891 0.489193 0.55696 1.26533 
0.474112 0.501768 1.35654 0.4444 0.442767 1.43292 0.414985 0.382783 1.48709 
0.400694 0.324969 1.51912 0.381552 0.265774 1.54373 0.371036 0.208227 1.56592 
0.363403 0.148929 1.56597 0.373975 0.0838264 1.53192 
LINES 46 719
3 39 40 38 
18 37 41 42 43 44 45 46 47 48 49 50 51 52 53 54 55 56 32 
31 37 57 58 59 60 61 62 63 64 65 66 67 68 69 70 71 72 73 74 75 76 77 78 79 80 81 82 83 84 85 23 
5 37 86 87 88 35 
10 36 89 90 91 92 93 94 95 96 27 
9 36 97 98 99 100 101 102 103 24 
50 36 104 105 106 107 108 109 110 111 112 113 114 115 116 117 118 119 120 121 122 123 124 125 126 127 128 129 130 131 132 133 134 135 136 137 138 139 140 141 142 143 144 145 146 147 148 149 150 151 34 
7 35 152 153 154 155 156 33 
8 35 157 158 159 160 161 162 32 
4 33 163 164 26 
3 33 165 30 
8 32 166 167 168 169 170 171 22 
30 31 172 173 174 175 176 177 178 179 180 181 182 183 184 185 186 187 188 189 190 191 192 193 194 195 196 197 198 199 20 
7 26 200 201 202 203 204 22 
3 30 205 23 
3 30 206 15 
31 29 207 208 209 210 211 212 213 214 215 216 217 218 219 220 221 222 223 224 225 226 227 228 229 230 231 232 233 234 235 19 
12 28 236 237 238 239 240 241 242 243 244 245 25 
7 27 246 247 248 249 250 16 
29 27 251 252 253 254 255 256 257 258 259 260 261 262 263 264 265 266 267 268 269 270 271 272 273 274 275 276 277 3 
74 24 278 279 280 281 282 283 284 285 286 287 288 289 290 291 292 293 294 295 296 297 298 299 300 301 302 303 304 305 306 307 308 309 310 311 312 313 314 315 316 317 318 319 320 321 322 323 324 325 326 327 328 329 330 331 332 333 334 335 336 337 338 339 340 341 342 343 344 345 346 347 348 349 19 
3 26 350 15 
4 24 351 352 16 
5 23 353 354 355 15 
16 23 356 357 358 359 360 361 362 363 364 365 366 367 368 369 6 
5 22 370 371 372 10 
4 21 373 374 18 
33 21 375 376 377 378 379 380 381 382 383 384 385 386 387 388 389 390 391 392 393 394 395 396 397 398 399 400 401 402 403 404 405 6 
3 21 406 14 
5 17 407 408 409 18 
8 20 410 411 412 413 414 415 17 
18 20 416 417 418 419 420 421 422 423 424 425 426 427 428 429 430 431 9 
6 19 432 433 434 435 12 
3 18 436 9 
4 17 437 438 9 
18 16 439 440 441 442 443 444 445 446 447 448 449 450 451 452 453 454 0 
7 15 455 456 457 458 459 10 
4 14 460 461 9 
25 13 466 467 468 469 470 471 472 473 474 475 476 477 478 479 480 481 482 483 484 485 486 487 488 5 
58 12 489 490 491 492 493 494 495 496 497 498 499 500 501 502 503 504 505 506 507 508 509 510 511 512 513 514 515 516 517 518 519 520 521 522 523 524 525 526 527 528 529 530 531 532 533 534 535 536 537 538 539 540 541 542 543 544 0 
3 12 545 8 
11 11 546 547 548 549 550 551 552 553 554 7 
17 10 555 556 557 558 559 560 561 562 563 564 565 566 567 568 569 2 
23 4 584 585 586 587 588 589 590 591 592 593 594 595 596 597 598 599 600 601 602 603 604 3 
17 3 605 606 607 608 609 610 611 612 613 614 615 616 617 618 619 0 
21 14 462 463 464 465 1 583 582 581 580 579 578 577 576 575 574 573 572 571 570 6 

POINT_DATA 620
SCALARS DY_raw double
LOOKUP_TABLE default
107.857 63.0886 134.964 77.6699 133.998 58.1437 96.3973 149.829 61.4735 
117.681 81.1451 82.768 79.8461 103.948 61.4173 83.3177 92.7766 100.018 
157.726 82.153 78.6991 85.6594 69.1445 100.304 100.536 136.359 68.014 
87.0126 64.4517 89.0685 131.655 35.2805 42.3054 92.1599 94.2627 77.8024 
77.5506 78.1296 51.4331 105.842 51.4331 75.6909 95.4104 118.468 87.8887 
130.509 107.365 84.2333 94.2145 87.828 72.7353 64.5319 58.2979 72.3031 
62.4355 51.859 45.5142 88.9563 111.989 109.233 92.9532 87.0596 95.8804 
95.8804 89.4268 66.7696 66.7696 63.9879 60.2963 72.9487 59.169 51.2297 
54.4596 62.5762 74.3934 94.5877 91.7821 90.5257 96.9462 105.801 110.035 
100.902 93.9857 92.0204 91.6457 106.229 89.6325 85.7973 91.5999 81.6834 
87.7554 84.2856 82.8873 83.3981 74.7943 77.909 86.0709 78.1113 79.9298 
84.6208 85.423 89.2158 77.8673 86.9745 66.4499 61.3101 55.8952 72.0721 
76.3991 71.8006 72.5929 77.4362 77.4362 69.2609 64.8194 66.8493 66.8493 
97.9699 114.531 115.309 119.129 128.196 120.242 93.5164 101.514 99.6587 
107.91 91.0722 87.6512 96.7091 77.8664 115.579 101.262 105.549 103.034 
107.369 104.003 101.819 107.914 113.441 95.3389 78.478 89.2398 75.803 
71.0546 79.4087 65.051 64.8669 90.8202 83.0022 83.0022 95.2586 69.6442 
71.8384 66.8225 75.2794 69.0969 81.718 82.9172 73.9052 61.588 46.4996 
42.9076 58.9302 59.4072 73.6775 53.6147 66.9734 65.7161 54.1839 50.2508 
52.9548 38.1755 38.1755 45.9838 53.5845 58.067 66.559 72.0511 79.9995 
79.1746 72.3146 65.7261 66.8996 77.2653 79.3968 90.7822 105.09 141.739 
122.061 118.621 100.589 100.589 112.541 99.4662 99.4662 110.561 83.0261 
77.817 84.1517 71.4019 80.5519 91.62 81.5976 71.5075 104.849 93.7261 
79.089 76.3361 73.7592 71.6441 78.044 104.257 103.583 135.432 141.548 
123.668 102.563 91.741 77.863 71.1163 71.1163 67.3756 68.7783 64.3239 
68.8043 83.4155 83.4155 66.5532 66.0984 66.0984 65.4674 65.2612 66.7634 
67.589 75.5012 63.2461 67.2724 62.7706 60.5383 60.5383 63.7452 56.5041 
69.0115 85.2809 93.0704 99.4769 88.0236 88.5006 87.0649 86.2143 95.4587 
118.624 103.593 114.86 139.435 121.423 116.525 138.635 107.082 92.402 
94.7849 96.372 81.138 95.3493 78.0389 82.8912 96.0906 117.317 102.525 
102.131 113.473 129.71 103.579 93.734 96.6675 74.8299 65.4066 99.6603 
104.677 96.4907 99.4143 96.0292 109.589 91.7405 95.6419 112.101 105.01 
96.8382 80.4802 83.9687 80.8382 73.3964 74.6544 65.9847 69.4669 58.4846 
58.4846 56.8832 55.2548 55.2548 50.425 69.4836 63.3471 52.0703 72.2459 
82.0671 99.7275 117.861 122.511 125.571 101.752 122.298 85.5638 76.0756 
76.0756 76.3916 71.7465 84.0435 92.6633 81.6824 81.6824 57.5559 61.9057 
70.7641 71.157 78.8655 80.9791 67.0408 67.0408 61.5924 76.152 76.152 
92.7463 83.6771 104.643 103.512 130.346 112.848 99.5044 111.431 92.0728 
74.7525 78.7583 59.8678 68.8937 82.1962 81.1707 84.4715 85.1006 74.2779 
90.7704 92.9119 85.9073 71.4262 69.523 109.401 97.6312 87.735 94.5562 
91.0882 100.853 98.2196 101.863 109.905 96.4145 81.27 93.4994 93.5547 
78.4154 87.1411 80.6374 79.5628 85.6594 122.486 69.0313 80.2861 76.1247 
87.0401 83.2723 86.5589 72.3911 64.9004 67.6377 72.9014 72.9014 80.2973 
93.36 83.9214 83.9214 96.1189 74.8829 74.8829 72.6037 72.6143 63.3185 
89.2508 90.7053 80.5864 100.621 96.1213 89.2716 74.5337 88.7065 77.0212 
86.3482 73.0792 99.0381 94.8535 122.281 94.6799 71.7304 76.6323 84.3872 
96.3618 98.6208 98.0269 68.3496 73.876 70.5067 72.0166 70.9166 80.0275 
94.3956 113.6 157.254 116.026 122.467 104.566 86.6864 91.3031 97.5726 
94.3673 80.3236 69.1786 61.8561 135.032 107.045 118.466 104.994 96.4702 
85.2898 80.5384 85.8924 85.538 74.9767 74.7761 96.5626 104.808 125.196 
151.03 98.1301 94.3807 85.3996 94.8429 86.3054 74.7485 81.1135 92.0533 
84.4166 74.7225 70.7778 73.194 76.0567 76.6395 65.3149 120.435 77.4126 
64.8713 72.3755 63.0518 62.3894 62.3894 65.1611 74.8293 76.3798 70.0258 
70.8715 70.0566 77.3949 77.3949 74.6745 67.1789 73.1813 73.1813 63.3985 
52.5956 47.3879 47.3879 76.2427 78.1635 82.1273 80.6391 80.7897 90.0314 
90.9082 79.1613 83.6631 88.0527 75.4166 81.9376 73.8577 78.8629 84.9864 
81.5196 90.6553 92.8091 87.5718 87.5718 88.7851 86.2889 86.2889 95.4157 
97.6298 108.867 89.6214 98.9528 98.9528 105.533 105.533 113.156 131.062 
114.254 99.5853 90.3308 72.721 71.2302 70.1921 70.1921 77.1097 83.2949 
83.2949 107.439 96.5549 97.7466 92.8101 108.14 129.823 170.02 142.99 
123.957 86.0507 84.816 78.1667 90.4858 80.3259 100.526 100.526 100.772 
78.5268 78.5268 80.0363 73.3485 82.1811 123.204 85.9877 90.6983 99.1984 
116.426 119.399 112.135 113.519 107.789 94.5947 98.8303 100.729 151.804 
158.519 166.959 151.004 96.3973 109.031 112.139 107.404 107.404 103.03 
102.056 102.056 98.7138 91.9578 94.5482 89.1883 79.3246 76.1232 108.894 
131.742 137.698 112.954 107.856 107.856 104.662 102.099 102.099 103.116 
103.985 112.419 114.96 111.683 103.329 91.5042 78.5098 78.5098 72.6788 
65.059 63.9682 76.9281 102.999 85.0723 79.3714 102.791 92.9269 92.7034 
133.797 136.93 148.299 180.298 152.248 181.676 157.899 132.212 
FIELD FieldData 7
DY_minmax 1 620 double
0.495755 0.189952 0.68092 0.289554 0.674318 0.156174 0.417478 0.782461 0.17892 
0.562862 0.313293 0.324379 0.30442 0.469056 0.178535 0.328133 0.392745 0.442208 
0.836399 0.320177 0.296584 0.344129 0.231319 0.444164 0.445747 0.690449 0.223596 
0.353373 0.199263 0.367416 0.658316 0 0.0479862 0.388533 0.402896 0.290459 
0.288739 0.292695 0.110335 0.481992 0.110335 0.276036 0.410736 0.568235 0.359357 
0.650489 0.492394 0.334387 0.402567 0.358942 0.255847 0.199811 0.157227 0.252895 
0.185491 0.113245 0.0699045 0.366649 0.523982 0.505155 0.393951 0.353693 0.413947 
0.413947 0.369863 0.215096 0.215096 0.196095 0.170879 0.257305 0.163178 0.108946 
0.131009 0.186452 0.267173 0.405117 0.385952 0.37737 0.421227 0.481715 0.510632 
0.448248 0.401004 0.38758 0.38502 0.484634 0.371268 0.345071 0.384707 0.316969 
0.358446 0.334745 0.325193 0.328682 0.269912 0.291187 0.346939 0.292569 0.304991 
0.337035 0.342514 0.368422 0.290903 0.353112 0.212912 0.177803 0.140815 0.251317 
0.280873 0.249462 0.254874 0.287958 0.287958 0.232114 0.201775 0.215641 0.215641 
0.428219 0.541342 0.546659 0.572752 0.634689 0.580359 0.397798 0.452432 0.439756 
0.49612 0.381102 0.357735 0.419607 0.290896 0.548504 0.450709 0.479994 0.462814 
0.492421 0.469432 0.454514 0.496148 0.533901 0.410248 0.295074 0.368586 0.276801 
0.244366 0.301431 0.203357 0.202099 0.379381 0.325978 0.325978 0.409699 0.234732 
0.24972 0.215458 0.273225 0.230994 0.317206 0.325397 0.263838 0.179701 0.0766354 
0.0520996 0.161547 0.164805 0.262283 0.125238 0.216488 0.2079 0.129125 0.10226 
0.12073 0.0197752 0.0197752 0.0731126 0.125031 0.155651 0.213657 0.251173 0.305467 
0.299832 0.252973 0.207968 0.215984 0.286791 0.30135 0.379121 0.476855 0.727196 
0.592783 0.56928 0.446113 0.446113 0.527755 0.438441 0.438441 0.514225 0.326141 
0.290559 0.33383 0.246738 0.309241 0.384844 0.316383 0.24746 0.47521 0.399231 
0.299247 0.280443 0.262841 0.248393 0.29211 0.471168 0.466559 0.684115 0.72589 
0.603759 0.459594 0.385671 0.290873 0.244788 0.244788 0.219236 0.228817 0.19839 
0.228995 0.328801 0.328801 0.213618 0.210512 0.210512 0.206201 0.204792 0.215054 
0.220694 0.27474 0.191028 0.218531 0.18778 0.172531 0.172531 0.194437 0.144975 
0.23041 0.341544 0.394752 0.438514 0.360278 0.363536 0.35373 0.347919 0.411066 
0.569304 0.46663 0.543592 0.711458 0.588425 0.554968 0.705992 0.49046 0.390186 
0.406464 0.417305 0.313244 0.410318 0.292074 0.32522 0.415383 0.560379 0.459335 
0.456644 0.534116 0.645033 0.466537 0.399285 0.419323 0.270154 0.205786 0.439766 
0.474034 0.418115 0.438086 0.414963 0.507588 0.385668 0.412318 0.524747 0.47631 
0.420489 0.308751 0.33258 0.311196 0.260363 0.268956 0.209735 0.233521 0.158503 
0.158503 0.147564 0.136441 0.136441 0.103449 0.233635 0.191718 0.114688 0.252504 
0.319591 0.440226 0.564094 0.595855 0.616757 0.454052 0.594403 0.343476 0.278664 
0.278664 0.280822 0.249092 0.333091 0.391971 0.316963 0.316963 0.152159 0.181872 
0.242382 0.245066 0.297721 0.312159 0.216949 0.216949 0.179732 0.279186 0.279186 
0.392538 0.330588 0.4738 0.466079 0.649372 0.529851 0.438701 0.520168 0.387938 
0.269626 0.296988 0.167952 0.229606 0.320472 0.313467 0.336015 0.340312 0.266384 
0.379041 0.393669 0.345823 0.246905 0.233904 0.506303 0.425906 0.358307 0.404901 
0.381212 0.447914 0.429925 0.454813 0.509745 0.417595 0.314146 0.397682 0.39806 
0.294646 0.35425 0.309824 0.302484 0.344129 0.595686 0.230546 0.307425 0.278999 
0.35356 0.327823 0.350273 0.253495 0.202328 0.221026 0.256982 0.256982 0.307502 
0.39673 0.332257 0.332257 0.415576 0.270517 0.270517 0.254948 0.255021 0.191523 
0.368661 0.378597 0.309476 0.446328 0.415592 0.368803 0.268131 0.364943 0.285123 
0.348834 0.258196 0.435516 0.406932 0.594285 0.405746 0.248982 0.282466 0.335438 
0.417235 0.432666 0.428609 0.225889 0.263639 0.240624 0.250937 0.243424 0.305658 
0.403804 0.534985 0.833178 0.551557 0.595554 0.473277 0.351144 0.38268 0.425506 
0.403611 0.307681 0.231552 0.181533 0.681381 0.490208 0.568227 0.476197 0.417976 
0.341605 0.309148 0.345721 0.343299 0.271158 0.269787 0.418607 0.47493 0.614194 
0.790663 0.429314 0.403702 0.342354 0.40686 0.348541 0.269598 0.313077 0.387804 
0.335639 0.269421 0.242475 0.25898 0.278535 0.282515 0.205159 0.581677 0.287797 
0.202129 0.253389 0.189701 0.185176 0.185176 0.204109 0.27015 0.280741 0.237338 
0.243116 0.237549 0.287676 0.287676 0.269093 0.217892 0.258894 0.258894 0.192069 
0.118276 0.0827035 0.0827035 0.279805 0.292926 0.320002 0.309836 0.310865 0.373993 
0.379982 0.299742 0.330492 0.360477 0.274162 0.318706 0.263514 0.297703 0.339532 
0.31585 0.378255 0.392967 0.357192 0.357192 0.36548 0.348429 0.348429 0.410772 
0.425896 0.502654 0.371192 0.434934 0.434934 0.479885 0.479885 0.53195 0.654266 
0.539454 0.439254 0.376038 0.255749 0.245566 0.238474 0.238474 0.285728 0.327977 
0.327977 0.492903 0.418554 0.426694 0.392974 0.497688 0.645799 0.920381 0.735745 
0.605735 0.346801 0.338368 0.292948 0.377097 0.307697 0.445678 0.445678 0.447358 
0.295408 0.295408 0.305718 0.260036 0.320369 0.600589 0.346371 0.378549 0.436611 
0.554292 0.574601 0.524981 0.534432 0.495291 0.405164 0.434097 0.447065 0.795947 
0.841818 0.899472 0.790485 0.417478 0.503777 0.525008 0.492664 0.492664 0.462786 
0.45613 0.45613 0.433301 0.387152 0.404846 0.368234 0.300857 0.278989 0.502839 