# vtk DataFile Version 3.0
vtk output
ASCII
DATASET POLYDATA
POINTS 412 float
1.85659 1.4011 -0.170141 2.63437 1.19522 -0.298521 1.82586 1.28328 -0.437012 
3.3547 0.809429 0.0999643 -0.0884475 0.721857 0.63999 0.154786 0.836222 0.275588 
3.23901 0.448541 0.545919 3.31785 0.557536 0.220452 -0.24452 0.380508 0.831748 
1.46617 0.987007 -0.753482 3.56146 0.34167 -0.0065902 2.78603 0.789456 -0.983212 
-0.2079 0.468811 0.368302 2.6653 -0.210586 0.898772 3.11765 -0.0206585 0.693987 
3.44584 0.156717 0.135815 -0.275926 0.0733364 0.907164 -0.517524 -0.595419 0.566769 
-0.400756 0.0514913 0.377008 -0.446584 0.126296 0.167893 -0.770472 0.222811 -0.0641383 
2.96123 -0.607399 0.371311 3.10631 -0.237281 0.0982129 4.29619 -0.0618871 -0.577181 
3.82684 -0.0952846 -0.41394 3.75534 -0.043405 -0.553301 -0.576924 -0.0162052 -0.0136414 
1.95133 0.35148 -1.43433 1.85417 0.380434 -1.50394 0.00367454 0.296581 -0.998194 
-0.0928842 0.338942 -1.10654 1.78525 -0.912216 0.806889 0.121206 -0.87228 1.13282 
0.568558 -0.78137 0.806918 3.0565 -0.218224 -1.1715 2.57476 -0.327355 -1.39911 
-0.90563 -0.696683 0.162151 1.77073 -1.36768 0.492843 2.95877 -1.23251 -0.0663442 
0.288145 -1.30298 0.517831 2.61781 -0.611142 -1.80902 3.0246 -1.3927 -0.224869 
0.412032 -1.4499 0.312759 1.03172 -1.35939 -0.0365877 -0.543149 -1.33853 0.127959 
2.22388 -1.59106 -0.189338 2.3107 -1.59023 -0.198435 2.37995 -1.5845 -0.207887 
2.44889 -1.58065 -0.194869 2.51652 -1.56456 -0.177377 2.57416 -1.52137 -0.174328 
2.6278 -1.46805 -0.1773 2.68464 -1.42429 -0.175796 2.74814 -1.39985 -0.164809 
2.81059 -1.3674 -0.154116 2.88182 -1.31237 -0.1193 2.14182 -1.58026 -0.203094 
2.08075 -1.57353 -0.196822 2.02468 -1.57085 -0.185219 1.96345 -1.56617 -0.18433 
1.90874 -1.56802 -0.171199 1.85756 -1.57243 -0.15116 1.80285 -1.57428 -0.138021 
1.74161 -1.5714 -0.137594 1.68699 -1.57332 -0.124269 1.63744 -1.57892 -0.101063 
1.59218 -1.58763 -0.0695032 1.5484 -1.59741 -0.035046 1.48717 -1.59453 -0.0346104 
1.42156 -1.58848 -0.0427051 1.36527 -1.58918 -0.0326495 1.30967 -1.59039 -0.0212339 
1.2476 -1.58682 -0.0226607 1.18897 -1.57713 -0.019621 1.13296 -1.54006 -0.0279644 
1.08804 -1.46331 -0.0391785 -0.518082 -0.977358 0.327703 0.364851 -1.42155 0.350904 
0.322313 -1.37055 0.413592 2.98648 -1.31245 -0.156616 2.62895 -0.595134 -1.74361 
2.6189 -0.547021 -1.65461 2.59879 -0.452817 -1.53864 -0.364469 -0.922135 0.445947 
-0.269284 -1.17669 0.372513 -0.197489 -1.3203 0.348085 -0.126046 -1.37549 0.356038 
-0.0516735 -1.36618 0.386466 0.023817 -1.3359 0.424177 0.100745 -1.30569 0.461877 
0.185435 -1.29689 0.492293 0.379881 -1.16208 0.618989 0.443296 -1.03151 0.708706 
0.50767 -0.90757 0.772138 2.97853 -1.03954 0.0608994 2.97566 -0.831312 0.207739 
1.76924 -1.14185 0.649071 -0.880315 -0.686002 0.218259 -0.852182 -0.659642 0.27923 
-0.807162 -0.622187 0.34411 -0.703677 -0.592883 0.42763 -0.900046 -0.828969 0.0449226 
-0.904712 -0.927672 -0.0545453 -0.893685 -0.982875 -0.145872 -0.873912 -1.00928 -0.230964 
-0.861444 -1.03655 -0.312502 -0.861724 -1.06595 -0.386134 -0.843655 -1.08997 -0.455221 
-0.80819 -1.09733 -0.506928 -0.772588 -1.08894 -0.558832 -0.733464 -1.07578 -0.60236 
-0.696581 -1.06099 -0.650255 -0.653129 -1.05097 -0.685345 -0.609632 -1.04098 -0.720351 
-0.571952 -1.02677 -0.766692 -0.528456 -1.01678 -0.801697 -0.48496 -1.00679 -0.836703 
-0.447236 -0.992609 -0.882959 -0.402947 -0.983194 -0.916419 -0.355118 -0.976348 -0.942979 
-0.31083 -0.966933 -0.976439 -0.273062 -0.952786 -1.02261 -0.228726 -0.943406 -1.05598 
-0.18006 -0.937167 -1.08091 -0.13026 -0.924507 -1.10187 -0.0793749 -0.890911 -1.11547 
-0.0263663 -0.81541 -1.11443 0.0294597 -0.698498 -1.0974 0.0897205 -0.563164 -1.06622 
0.148944 -0.443014 -1.03637 0.178012 -0.331803 -1.04435 0.171431 -0.216665 -1.05856 
0.142273 -0.0746767 -1.05642 0.0834083 0.100191 -1.03171 -0.93398 -0.520023 0.177342 
-0.975356 -0.365698 0.190901 -1.00438 -0.237773 0.188296 -1.02606 -0.143771 0.169291 
-1.04567 -0.0773803 0.139082 -1.05507 -0.0382944 0.0956186 -1.0364 -0.0135879 0.0443657 
-1 7.32722e-006 -2.10425e-005 -0.963582 0.0223475 -0.0469847 -0.920672 0.0627574 -0.079092 
-0.864346 0.135588 -0.0934617 2.4724 -0.314272 -1.42222 2.38879 -0.302136 -1.44528 
2.31478 -0.291011 -1.46679 2.24658 -0.283127 -1.47979 2.18581 -0.280587 -1.47844 
2.12286 -0.276457 -1.48137 2.06328 -0.267531 -1.47596 2.00106 -0.249458 -1.47395 
1.94217 -0.226556 -1.4637 1.87961 -0.215467 -1.4641 1.81938 -0.220562 -1.46346 
1.75622 -0.238008 -1.47203 1.69998 -0.253228 -1.46537 1.64413 -0.261495 -1.4562 
1.5828 -0.25855 -1.45594 1.52725 -0.25979 -1.44444 1.47091 -0.260458 -1.43448 
1.40446 -0.253796 -1.4442 1.33802 -0.247135 -1.45393 1.28197 -0.240775 -1.44163 
1.22702 -0.213398 -1.4222 1.16508 -0.135972 -1.41031 1.11296 -0.00450333 -1.39721 
1.09772 0.165872 -1.3884 1.12388 0.342914 -1.38209 1.17861 0.495123 -1.35351 
1.24999 0.628079 -1.29446 1.31665 0.755469 -1.21867 1.35828 0.879269 -1.12895 
1.3805 0.973014 -1.04033 1.39425 1.02408 -0.963255 1.433 1.03629 -0.913473 
1.46434 1.02681 -0.867961 1.47734 1.00828 -0.816411 2.66505 -0.341502 -1.3712 
2.73468 -0.34706 -1.36512 2.8023 -0.355529 -1.35035 2.86448 -0.360829 -1.32131 
2.91478 -0.347265 -1.27707 2.9805 -0.297237 -1.22705 0.644612 -0.73707 0.849379 
0.718839 -0.713168 0.883029 0.787009 -0.721081 0.896116 0.84757 -0.745207 0.889121 
0.914653 -0.774055 0.89484 0.986315 -0.784503 0.914735 1.05478 -0.785388 0.930154 
1.11707 -0.774557 0.935284 1.18628 -0.761491 0.955648 1.26046 -0.737563 0.989202 
1.33459 -0.713592 1.02267 1.40292 -0.699894 1.0413 1.45886 -0.691692 1.03231 
1.50974 -0.694301 1.00994 1.56337 -0.71339 0.989444 1.62165 -0.759935 0.972017 
1.66979 -0.812635 0.928508 1.71556 -0.862492 0.862053 0.534865 -0.592477 0.878113 
0.507 -0.404993 0.929904 0.470229 -0.244215 0.992081 0.423193 -0.125607 1.04154 
0.370161 -0.0471681 1.04924 0.323506 -0.00544766 1.02613 0.26213 0.0137854 1.00208 
0.195699 0.021896 0.988174 0.134241 0.0250222 0.98793 0.0669125 0.0323252 0.976482 
-7.00709e-005 0.0466214 0.967459 -0.0609348 0.0637133 0.97211 -0.128411 0.0856124 0.963875 
-0.201256 0.0896735 0.939925 0.0941608 -0.917917 1.06459 0.0657244 -0.956759 0.999599 
0.0272522 -0.982836 0.944511 -0.0345552 -0.990715 0.908169 -0.106006 -0.97888 0.884243 
-0.177367 -0.946845 0.869946 -0.243114 -0.889998 0.873833 -0.301255 -0.81694 0.897802 
-0.364827 -0.718142 0.916191 -0.431521 -0.628233 0.92063 -0.488668 -0.571133 0.898213 
-0.516413 -0.57184 0.792804 1.8835 -0.871787 0.864889 1.96244 -0.811611 0.906439 
2.02395 -0.732108 0.924911 2.08384 -0.644675 0.943358 2.14858 -0.577677 0.967266 
2.20567 -0.526859 0.971009 2.25705 -0.500864 0.956614 2.30733 -0.481314 0.938351 
2.35871 -0.455319 0.923956 2.4155 -0.411529 0.925365 2.48011 -0.36369 0.944197 
2.54253 -0.313298 0.955951 2.60703 -0.268122 0.952263 2.98509 -0.452718 0.314207 
3.02259 -0.349735 0.283504 3.05962 -0.296258 0.244718 3.09644 -0.273296 0.203447 
3.11485 -0.255572 0.149726 3.03404 -0.398946 0.468981 3.0818 -0.204139 0.579385 
-0.0549181 0.319401 -1.05562 -0.042202 0.362822 -0.888444 -0.0885094 0.420304 -0.821289 
-0.134746 0.461966 -0.776411 -0.175823 0.500858 -0.724283 -0.206008 0.531909 -0.651076 
-0.236491 0.555922 -0.580204 -0.278065 0.566261 -0.536201 -0.320677 0.555629 -0.499472 
-0.35388 0.523692 -0.447903 -0.386731 0.484255 -0.397401 -0.42659 0.457137 -0.358809 
-0.469339 0.432126 -0.325847 -0.526396 0.410243 -0.322528 -0.581908 0.372771 -0.319695 
-0.633045 0.332113 -0.308336 -0.677602 0.301139 -0.280562 -0.709987 0.27533 -0.224171 
-0.738697 0.25112 -0.150281 1.91319 0.367145 -1.47405 -0.64371 0.114897 0.00261572 
-0.709618 0.19332 -0.0104353 -0.411415 -0.317443 0.768521 -0.335593 -0.0896769 0.868673 
3.77918 -0.0606983 -0.506847 3.80301 -0.0779914 -0.460393 3.89324 -0.101912 -0.404308 
3.94879 -0.100672 -0.415808 4.00006 -0.0963223 -0.435661 4.05562 -0.0950824 -0.447161 
4.12197 -0.101675 -0.437622 4.18748 -0.107664 -0.429705 4.23694 -0.101997 -0.453097 
4.26954 -0.0841018 -0.509337 3.80785 0.0362584 -0.292655 3.78202 0.136568 -0.193468 
3.74218 0.201114 -0.132508 3.69435 0.241517 -0.0913191 3.637 0.285299 -0.0509374 
2.87457 -0.50681 0.41804 2.82694 -0.457353 0.485884 2.78899 -0.44127 0.542989 
2.74094 -0.421503 0.575826 2.7078 -0.37917 0.64708 2.68515 -0.306394 0.757282 
-0.403579 0.143886 0.133683 -0.3688 0.189169 0.0886891 -0.327867 0.266188 0.064441 
-0.267308 0.357942 0.0854538 -0.20381 0.447565 0.112193 -0.13749 0.513407 0.139181 
-0.0748568 0.565061 0.154811 -0.00765369 0.628371 0.181457 0.0640697 0.72275 0.215917 
-0.447397 0.081621 0.415172 -0.491093 0.0196273 0.439967 -0.517494 -0.211007 0.476816 
-0.480276 -0.188082 0.593983 -0.430581 0.102712 0.682092 -0.35085 0.274108 0.766654 
-0.253278 0.227213 0.875159 3.41928 0.134433 0.203846 3.38875 0.122283 0.265864 
3.35185 0.136473 0.32073 3.31842 0.191592 0.392864 3.28001 0.301022 0.467549 
3.48989 0.190981 0.106171 3.52579 0.253423 0.0568211 3.38184 0.357127 0.178133 
3.07869 0.0602024 0.760602 3.04492 0.108324 0.830319 3.00714 0.123159 0.883454 
2.9702 0.108405 0.931255 2.92488 0.0780206 0.957441 2.87381 0.0252192 0.966105 
2.81922 -0.0472434 0.964045 2.7534 -0.131428 0.944594 3.16669 0.122819 0.703285 
3.20147 0.239055 0.680003 3.22041 0.323038 0.638848 3.22374 0.385095 0.595253 
-0.178533 0.537362 0.445566 -0.14135 0.622496 0.53424 2.80025 0.868425 -0.896121 
2.79037 0.931414 -0.80477 2.76483 0.982358 -0.721698 2.73029 1.02389 -0.655463 
2.70188 1.05364 -0.578804 2.6778 1.08025 -0.493707 2.65554 1.12727 -0.399799 
-0.208658 0.473465 0.769823 -0.172351 0.55544 0.724433 -0.129432 0.632617 0.691931 
3.47751 0.483987 0.00996806 3.41511 0.636302 0.0549251 3.29668 0.625493 0.32173 
3.27388 0.658505 0.410837 3.25004 0.635789 0.479726 3.23408 0.558356 0.524208 
3.31293 0.667351 0.198741 3.32923 0.751768 0.156681 0.200611 0.895547 0.19608 
0.238797 0.938094 0.135853 0.277241 0.955192 0.0886214 0.307251 0.955713 0.0225084 
0.33291 0.942434 -0.0560176 0.363292 0.932972 -0.123587 0.406793 0.942959 -0.158584 
0.45763 0.976589 -0.172277 0.513979 1.01346 -0.173476 0.576253 1.03155 -0.166629 
0.631266 1.04043 -0.177435 0.681604 1.04546 -0.199104 0.731153 1.05105 -0.222311 
0.780655 1.05669 -0.24561 0.83055 1.06928 -0.266391 0.881926 1.09527 -0.280786 
0.938716 1.13906 -0.279377 1.00321 1.18451 -0.261197 1.06517 1.22456 -0.24972 
1.12951 1.24839 -0.237094 1.19165 1.27381 -0.228743 1.2618 1.30791 -0.201294 
1.33589 1.3464 -0.164423 1.40603 1.3805 -0.136974 1.46779 1.39896 -0.131132 
1.5303 1.4024 -0.127326 1.58585 1.40364 -0.138835 1.64145 1.4049 -0.150398 
1.70455 1.4017 -0.150169 1.77153 1.40163 -0.15951 0.132959 0.890012 0.402712 
0.109856 0.919669 0.501534 0.0835372 0.903885 0.573427 0.0485732 0.850442 0.619337 
-0.00796071 0.784997 0.635048 3.33031 0.854465 0.0641212 3.29608 0.912279 0.0380866 
3.23948 0.974511 0.0251738 3.18089 1.02955 0.010607 3.1348 1.06517 -0.0176094 
3.08327 1.08626 -0.0484372 3.03614 1.1009 -0.0839278 2.97512 1.10701 -0.115468 
2.91531 1.10631 -0.15016 2.87613 1.10101 -0.197152 2.83754 1.10967 -0.239249 
2.77703 1.12974 -0.265849 2.70657 1.16258 -0.282594 1.83893 1.299 -0.371052 
1.84116 1.33844 -0.281454 2.56896 1.22286 -0.300972 2.51366 1.24316 -0.283735 
2.45879 1.2559 -0.267383 2.39782 1.26584 -0.264699 2.34266 1.27155 -0.250683 
2.28784 1.28426 -0.234239 2.22794 1.31514 -0.224196 2.17461 1.34125 -0.201358 
2.12482 1.3648 -0.171619 2.0707 1.37697 -0.153742 2.00802 1.38763 -0.152889 
1.9412 1.39108 -0.153313 
LINES 49 514
3 44 76 17 
4 42 77 78 39 
3 41 79 38 
5 40 80 81 82 35 
10 17 83 84 85 86 87 88 89 90 39 
5 39 91 92 93 33 
4 38 94 95 21 
3 37 96 31 
6 36 97 98 99 100 17 
35 36 101 102 103 104 105 106 107 108 109 110 111 112 113 114 115 116 117 118 119 120 121 122 123 124 125 126 127 128 129 130 131 132 133 29 
13 36 134 135 136 137 138 139 140 141 142 143 144 20 
36 35 145 146 147 148 149 150 151 152 153 154 155 156 157 158 159 160 161 162 163 164 165 166 167 168 169 170 171 172 173 174 175 176 177 178 9 
8 35 179 180 181 182 183 184 34 
20 33 185 186 187 188 189 190 191 192 193 194 195 196 197 198 199 200 201 202 31 
16 33 203 204 205 206 207 208 209 210 211 212 213 214 215 216 16 
14 32 217 218 219 220 221 222 223 224 225 226 227 228 17 
15 31 229 230 231 232 233 234 235 236 237 238 239 240 241 13 
7 21 242 243 244 245 246 22 
4 21 247 248 14 
3 30 249 29 
20 29 250 251 252 253 254 255 256 257 258 259 260 261 262 263 264 265 266 267 20 
3 28 268 27 
4 26 269 270 20 
4 17 271 272 16 
4 25 273 274 24 
10 24 275 276 277 278 279 280 281 282 23 
7 24 283 284 285 286 287 10 
8 21 288 289 290 291 292 293 13 
11 19 294 295 296 297 298 299 300 301 302 5 
5 18 303 304 305 17 
5 17 306 307 308 8 
3 16 309 8 
7 15 310 311 312 313 314 6 
4 15 315 316 10 
3 15 317 7 
10 14 318 319 320 321 322 323 324 325 13 
6 14 326 327 328 329 6 
4 12 330 331 4 
9 11 332 333 334 335 336 337 338 1 
5 8 339 340 341 4 
4 10 342 343 3 
6 7 344 345 346 347 6 
4 7 348 349 3 
32 5 350 351 352 353 354 355 356 357 358 359 360 361 362 363 364 365 366 367 368 369 370 371 372 373 374 375 376 377 378 379 0 
7 5 380 381 382 383 384 4 
15 3 385 386 387 388 389 390 391 392 393 394 395 396 397 1 
4 2 398 399 0 
14 1 400 401 402 403 404 405 406 407 408 409 410 411 0 
33 38 55 54 53 52 51 50 49 48 47 46 45 56 57 58 59 60 61 62 63 64 65 66 67 68 69 70 71 72 73 74 75 43 

POINT_DATA 412
SCALARS DY_raw double
LOOKUP_TABLE default
910.343 1017.3 557.287 845.818 696.565 835.984 810.195 655.937 875.48 
959.6 596.727 516.092 983.541 918.246 689.347 828.925 897.988 758.187 
659.913 795.775 730.714 712.571 565.555 942.931 591.93 591.894 729.356 
1258.69 1343.62 698.444 663.947 889.175 2498.86 650.756 869.567 904.385 
693.674 595.446 592.943 726.825 470.027 469.853 543.916 1455.78 598.166 
653.471 625.133 719.069 653.368 746.551 607.262 724.922 743.679 704.849 
680.931 686.505 568.4 606.344 566.349 603.57 603.57 553.637 553.637 
589.231 746.118 746.118 824.065 928.909 760.904 848.651 894.526 780.013 
860.395 811.092 900.28 1088.33 739.186 556.856 594.882 560.495 511.921 
627.646 740.401 798.994 729.179 731.678 696.801 649.499 675.387 694.391 
712.673 748.564 743.605 702.405 745.632 641.616 738.818 718.601 764.406 
825.858 768.255 663.97 554.168 577.561 528.417 541.167 580.295 592.981 
639.37 639.37 664.083 664.083 717.097 743.745 743.745 736.489 730.814 
730.814 731.012 672.812 672.812 636.55 615.674 615.674 542.094 542.094 
605.079 666.816 769.233 760.596 648.619 600.45 537.688 526.756 706.633 
736.226 819.388 900.646 933.901 844.399 803.069 747.331 729.64 715.605 
693.252 889.044 812.706 732.92 665.914 625.644 662.969 654.648 654.648 
670.089 826.206 679.573 761.681 761.681 727.844 651.728 617.422 589.952 
573.687 573.687 602.47 589.114 738.198 782.505 874.719 1115.55 1126.02 
816.61 544.233 542.598 618.992 655.658 682.766 744.785 744.785 854.213 
768.555 685.262 618.887 573.336 660.567 653.301 747.726 721.973 829.439 
778.802 735.506 815.827 947.652 1005.96 1014.43 996.496 960.508 960.508 
947.105 1009 964.062 941.559 912.404 775.837 1034.43 876.328 874.368 
842.675 851.872 901.111 926.313 944.752 863.373 1024.27 980.905 895.636 
897.988 1831.4 1221.11 1080.4 1074.07 1084.07 1035.62 1105.73 1077.39 
1071.33 989.208 884.515 805.623 956.868 995.654 921.546 930.207 876.883 
855.5 855.5 857.903 857.903 817.351 774.043 862.325 917.286 551.41 
614.873 608.04 625.986 600.637 692.222 663.551 685.636 747.165 734.056 
760.114 718.511 754.395 785.385 842.011 842.011 868.005 920.28 951.255 
981.468 1010.84 949.3 852.977 789.283 736.251 729.681 1271.65 706.976 
732.304 786.082 754.817 578.403 591.93 624.974 699.888 778.065 778.065 
797.582 849.48 849.48 823.166 653.338 782.917 638.227 613.123 591.856 
638.455 741.878 742.628 673.951 667.755 823.745 790.336 766.216 850.047 
908.295 838.116 873.546 833.658 847.983 846.958 686.346 678.498 780.672 
849.768 751.541 766.57 844.155 828.925 876.029 882.947 888.06 685.02 
650.349 599.902 628.057 696.644 708.59 810.221 866.708 866.708 920.321 
937.35 976.233 700.635 713.135 712.798 727.43 839.776 735.942 643.093 
647.163 613.176 658.395 634.477 730.912 831.404 740.879 708.879 691.616 
651.975 652.327 763.039 821.974 746.584 714.285 779.436 778.042 890.363 
921.785 920.445 806.862 705.311 608.244 563.6 549.012 612.497 663.037 
681.752 681.752 652.225 652.225 780.898 755.999 841.537 925.235 991.794 
991.794 970.336 1029.62 1092.17 1045.22 1093.44 1093.44 1007.16 1013.35 
940.746 956.298 843.624 841.142 810.973 826.861 771.453 839.311 917.63 
1095.42 1185.33 1268.54 1268.54 1171.17 1108.83 1167.97 1096.46 998.424 
1101.05 954.091 610.909 703.553 960.472 1104.38 1083.59 1119.73 1001.86 
996.106 996.106 1046.17 999.279 1028.19 1060.34 971.62 
FIELD FieldData 7
DY_minmax 1 412 double
0.217097 0.26981 0.0430922 0.185295 0.111736 0.180448 0.167738 0.091712 0.199914 
0.241373 0.06253 0.022789 0.253172 0.220992 0.108178 0.17697 0.211007 0.142106 
0.0936716 0.160631 0.128566 0.119624 0.0471671 0.233158 0.0601659 0.0601481 0.127897 
0.388782 0.430641 0.112662 0.0956596 0.206664 1 0.0891583 0.197 0.21416 
0.110311 0.0618987 0.0606649 0.126649 8.57079e-005 0 0.0365023 0.485918 0.0632392 
0.0904965 0.0765299 0.122827 0.0904457 0.136371 0.0677224 0.125711 0.134956 0.115819 
0.10403 0.106778 0.0485691 0.0672698 0.0475583 0.0659028 0.0659028 0.041293 0.041293 
0.0588357 0.136158 0.136158 0.174574 0.226247 0.143445 0.186692 0.209301 0.152863 
0.19248 0.16818 0.212137 0.304817 0.132741 0.0428795 0.061621 0.0446729 0.0207334 
0.0777686 0.13334 0.162218 0.127809 0.129041 0.111852 0.0885388 0.101298 0.110664 
0.119674 0.137363 0.134919 0.114614 0.135918 0.0846536 0.13256 0.122596 0.145171 
0.175458 0.147068 0.0956711 0.0415547 0.0530841 0.0288633 0.0351473 0.0544314 0.060684 
0.0835467 0.0835467 0.0957269 0.0957269 0.121855 0.134988 0.134988 0.131412 0.128615 
0.128615 0.128713 0.100029 0.100029 0.0821571 0.0718679 0.0718679 0.035604 0.035604 
0.0666462 0.0970739 0.14755 0.143293 0.0881052 0.064365 0.0334326 0.0280446 0.116698 
0.131283 0.172269 0.212317 0.228707 0.184596 0.164226 0.136756 0.128037 0.12112 
0.110103 0.206599 0.168976 0.129653 0.096629 0.0767817 0.0951779 0.0910767 0.0910767 
0.0986866 0.17563 0.103361 0.143828 0.143828 0.127151 0.0896375 0.0727297 0.0591909 
0.0511746 0.0511746 0.0653607 0.0587781 0.132254 0.154091 0.199539 0.318233 0.323393 
0.1709 0.0366585 0.0358523 0.0735033 0.0915743 0.104935 0.135501 0.135501 0.189433 
0.147216 0.106165 0.0734517 0.0510017 0.093994 0.0904126 0.136951 0.124258 0.177223 
0.152266 0.130928 0.170514 0.235485 0.264224 0.268397 0.259557 0.24182 0.24182 
0.235215 0.265721 0.243572 0.232482 0.218113 0.150805 0.278252 0.200332 0.199366 
0.183746 0.188279 0.212547 0.224968 0.234055 0.193947 0.273248 0.251873 0.209848 
0.211007 0.671041 0.370261 0.300909 0.297788 0.302719 0.278838 0.313395 0.299426 
0.296437 0.255965 0.204367 0.165485 0.240027 0.259142 0.222618 0.226887 0.200606 
0.190067 0.190067 0.191251 0.191251 0.171265 0.149921 0.193431 0.220518 0.0401953 
0.0714732 0.0681058 0.0769505 0.0644573 0.109595 0.0954643 0.106349 0.136674 0.130213 
0.143056 0.122552 0.140237 0.155511 0.183419 0.183419 0.19623 0.221994 0.23726 
0.252151 0.266627 0.236296 0.188823 0.157432 0.131295 0.128057 0.395165 0.116867 
0.129349 0.155854 0.140445 0.0534989 0.0601659 0.0764519 0.113373 0.151903 0.151903 
0.161522 0.1871 0.1871 0.174131 0.0904308 0.154294 0.0829834 0.0706107 0.0601294 
0.0830957 0.134068 0.134438 0.10059 0.0975362 0.174416 0.157951 0.146063 0.187379 
0.216087 0.181499 0.198961 0.179302 0.186362 0.185857 0.106699 0.102831 0.153188 
0.187242 0.13883 0.146238 0.184475 0.17697 0.200185 0.203594 0.206114 0.106046 
0.0889577 0.0640949 0.0779711 0.111774 0.117662 0.167751 0.195591 0.195591 0.222014 
0.230407 0.249571 0.113741 0.119902 0.119736 0.126948 0.182318 0.131142 0.0853818 
0.0873878 0.0706369 0.0929234 0.0811353 0.128664 0.178191 0.133576 0.117804 0.109297 
0.0897591 0.0899329 0.144498 0.173544 0.136387 0.120469 0.152579 0.151892 0.207249 
0.222736 0.222076 0.166096 0.116046 0.0682064 0.0462032 0.0390135 0.0703021 0.0952111 
0.104435 0.104435 0.0898826 0.0898826 0.153299 0.141028 0.183185 0.224436 0.25724 
0.25724 0.246664 0.275883 0.306709 0.283571 0.307337 0.307337 0.264813 0.267865 
0.232081 0.239746 0.184214 0.182991 0.168122 0.175952 0.148644 0.182088 0.220688 
0.308312 0.352626 0.393636 0.393636 0.345648 0.314922 0.34407 0.308827 0.260508 
0.311087 0.238658 0.0695199 0.115179 0.241803 0.312728 0.302479 0.320296 0.262203 
0.259365 0.259365 0.284037 0.260929 0.27518 0.291022 0.247297 
WidthEq 1 412 double
3.78994 3.31116 3.22668 3.80974 4.66892 4.75569 4.27908 3.71596 4.85656 
3.65891 4.51228 4.06644 3.38781 3.86421 5.39513 3.16681 4.75363 6.47261 
3.8824 3.40849 3.83623 4.60324 2.69733 1.65 2.74317 1.99596 2.85857 
1.46846 1.40483 6.42116 4.87249 3.93769 1 5.60002 3.90883 3.25686 
5.38879 2.86098 4.50873 4.66534 1.99303 3.78111 3.61643 1.42768 4.75704 
3.55492 3.5722 3.32204 3.43236 3.30218 3.58713 3.38253 3.45351 3.65841 
3.78099 3.96967 3.7355 3.70792 3.65823 3.56613 3.56613 3.3629 3.3629 
3.31873 3.08288 3.08288 3.02495 2.87377 3.04352 2.99767 2.97338 3.12298 
3.05739 3.00008 2.61892 2.11995 6.25258 4.5407 5.11215 4.46209 2.4181 
2.66647 3.57868 6.40567 6.21183 5.65846 5.41223 5.31816 5.378 5.332 
5.03336 5.3909 5.92648 5.96235 4.3877 4.65534 4.28289 5.8011 5.69852 
5.47154 5.92557 5.75033 6.00776 5.62898 5.73927 5.39648 4.76921 4.26112 
4.04147 4.04147 3.901 3.901 3.69334 3.69478 3.69478 3.74858 4.04576 
4.04576 4.1836 4.60524 4.60524 5.02846 5.29293 5.29293 5.97077 5.97077 
5.50968 5.16465 5.05248 5.74338 7.21334 7.44146 7.42251 7.26854 4.58165 
4.29706 3.95339 3.72954 3.49631 3.61904 3.73465 3.85309 3.97383 3.82828 
3.88724 3.29588 3.50406 3.71312 3.94506 4.08679 4.12147 4.23904 4.23904 
4.21375 3.76137 4.04221 3.76891 3.76891 3.93728 4.35775 4.58919 4.85985 
4.97892 4.97892 4.39981 4.451 3.57255 2.59093 2.53215 2.31543 1.86176 
2.53356 3.96805 3.89428 5.74473 5.6892 5.97711 5.58025 5.58025 3.5233 
3.9821 4.43217 4.81538 5.10027 4.45044 5.68638 5.58427 5.17199 4.91221 
4.96745 4.87639 4.73539 4.14027 3.88894 3.79173 3.67789 3.64832 3.64832 
3.52946 3.44163 3.64911 3.78545 3.88014 5.11678 4.2085 4.47482 4.56082 
4.40674 4.07216 3.95391 3.90959 3.86468 4.00302 3.63479 3.912 4.26655 
4.75363 1.5882 2.89439 3.08937 3.3243 3.33357 3.75541 3.61321 3.71353 
4.19439 4.47124 5.02045 5.77746 3.6766 3.2761 2.92704 2.61208 2.74848 
2.91228 2.91228 2.84784 2.84784 3.26252 3.82312 4.0283 4.02857 5.36905 
5.05512 4.86076 4.00422 3.35105 3.89528 5.32306 5.84546 6.17223 5.61437 
5.31487 4.62392 4.54695 4.28538 3.49429 3.49429 3.35733 2.96341 3.04067 
2.79069 2.64083 2.70008 2.79151 2.85731 3.34577 3.65102 1.38679 3.42471 
3.72142 5.45388 5.41422 2.64552 2.74317 2.80328 2.68462 2.68926 2.68926 
2.71692 2.64796 2.64796 2.42552 2.9476 3.27085 4.34159 4.54478 4.60823 
4.67044 3.9154 3.6316 3.54512 3.71259 3.71881 3.40984 3.52638 3.43389 
3.372 3.89888 3.7624 4.31102 4.4503 4.80365 4.94536 5.33394 5.15753 
5.09296 5.5464 5.38774 5.1333 3.16681 3.16857 3.30022 3.44023 4.14253 
3.94743 4.47526 3.63834 5.14582 5.0487 4.47423 4.1068 4.1068 3.58352 
3.56284 3.85829 5.30546 5.02453 4.89138 4.64381 4.00806 4.40999 4.71626 
5.34382 5.80823 5.78925 5.57867 5.25219 4.65413 5.20024 5.16295 5.03782 
4.40785 4.61489 3.66207 3.46613 3.65345 4.01261 3.84168 4.09073 4.56528 
4.36775 4.13983 4.50741 5.29833 5.36386 5.71079 5.59468 5.15609 4.48459 
4.16514 4.16514 3.63441 3.63441 3.23879 2.83053 2.77958 2.6711 2.94323 
2.94323 3.34703 3.51711 3.35598 3.79466 3.77947 3.77947 3.72253 3.77827 
3.79314 3.78504 4.64187 4.48001 4.10475 3.93895 4.15347 3.8714 3.62643 
3.17112 3.07115 2.86661 2.86661 2.86162 2.94481 2.82859 3.18045 3.56073 
3.2182 3.84227 3.84908 3.93045 3.60637 2.78066 2.73291 2.70434 2.88984 
2.99541 2.99541 3.12595 3.16115 3.43037 3.39919 3.66325 
rRFP 1 412 double
3526.79 3363.57 3334.77 3533.54 3826.44 3856.02 3693.54 3501.57 3890.41 
3482.12 3773.04 3621.05 3389.7 3552.11 4074.01 3314.36 3855.32 4441.33 
3558.31 3396.75 3542.57 3804.05 3154.31 2797.27 3169.94 2915.21 3209.28 
2735.38 2713.69 4423.79 3895.84 3577.16 2575.68 4143.86 3567.32 3345.06 
4071.85 3210.1 3771.83 3825.22 2914.21 3523.78 3467.64 2721.48 3856.48 
3446.67 3452.56 3367.28 3404.89 3360.51 3457.65 3387.9 3412.1 3481.95 
3523.74 3588.06 3508.23 3498.83 3481.89 3450.49 3450.49 3381.21 3381.21 
3366.15 3285.75 3285.75 3266 3214.46 3272.33 3256.7 3248.42 3299.42 
3277.06 3257.52 3127.58 2957.48 4366.32 3782.73 3977.54 3755.93 3059.12 
3143.79 3454.77 4418.51 4352.43 4163.78 4079.84 4047.77 4068.17 4052.49 
3950.68 4072.57 4255.15 4267.38 3730.57 3821.81 3694.84 4212.41 4177.44 
4100.06 4254.84 4195.1 4282.86 4153.73 4191.33 4074.47 3860.63 3687.42 
3612.54 3612.54 3564.65 3564.65 3493.86 3494.35 3494.35 3512.69 3614 
3614 3660.99 3804.73 3804.73 3949.01 4039.17 4039.17 4270.25 4270.25 
4113.06 3995.44 3957.2 4192.73 4693.85 4771.62 4765.16 4712.67 3796.69 
3699.67 3582.51 3506.2 3426.69 3468.53 3507.94 3548.32 3589.48 3539.86 
3559.96 3358.36 3429.33 3500.6 3579.67 3627.99 3639.81 3679.89 3679.89 
3671.27 3517.05 3612.79 3519.62 3519.62 3577.02 3720.36 3799.26 3891.53 
3932.12 3932.12 3734.7 3752.15 3452.68 3118.04 3098 3024.12 2869.46 
3098.48 3587.51 3562.36 4193.19 4174.26 4272.41 4137.12 4137.12 3435.89 
3592.3 3745.73 3876.37 3973.49 3751.96 4173.3 4138.49 3997.94 3909.38 
3928.21 3897.17 3849.1 3646.22 3560.54 3527.4 3488.59 3478.51 3478.51 
3437.99 3408.05 3478.78 3525.26 3557.54 3979.12 3669.48 3760.27 3789.59 
3737.06 3623 3582.69 3567.58 3552.27 3599.43 3473.9 3568.4 3689.27 
3855.32 2776.2 3221.49 3287.96 3368.05 3371.21 3515.02 3466.54 3500.74 
3664.67 3759.05 3946.28 4204.35 3488.15 3351.62 3232.62 3125.25 3171.75 
3227.59 3227.59 3205.62 3205.62 3346.99 3538.1 3608.05 3608.14 4065.12 
3958.1 3891.84 3599.84 3377.17 3562.7 4049.44 4227.53 4338.93 4148.75 
4046.65 3811.1 3784.86 3695.69 3426 3426 3379.31 3245.02 3271.36 
3186.14 3135.05 3155.25 3186.42 3208.85 3375.37 3479.43 2707.54 3402.28 
3503.43 4094.04 4080.52 3136.65 3169.94 3190.43 3149.98 3151.56 3151.56 
3160.99 3137.48 3137.48 3061.65 3239.63 3349.83 3714.85 3784.12 3805.75 
3826.96 3569.56 3472.81 3443.33 3500.42 3502.54 3397.21 3436.94 3405.41 
3384.31 3563.93 3517.4 3704.43 3751.91 3872.37 3920.68 4053.15 3993.01 
3971 4125.58 4071.49 3984.75 3314.36 3314.96 3359.84 3407.57 3646.99 
3580.48 3760.42 3475.11 3989.02 3955.91 3760.07 3634.81 3634.81 3456.42 
3449.37 3550.09 4043.44 3947.67 3902.28 3817.88 3601.15 3738.17 3842.58 
4056.52 4214.84 4208.37 4136.58 4025.28 3821.4 4007.57 3994.86 3952.2 
3737.44 3808.02 3483.2 3416.4 3480.26 3602.7 3544.43 3629.33 3791.11 
3723.77 3646.07 3771.38 4041.01 4063.35 4181.62 4142.04 3992.52 3763.6 
3654.7 3654.7 3473.77 3473.77 3338.9 3199.72 3182.35 3145.37 3238.14 
3238.14 3375.8 3433.78 3378.85 3528.4 3523.22 3523.22 3503.81 3522.81 
3527.88 3525.12 3817.22 3762.04 3634.11 3577.59 3650.72 3554.56 3471.05 
3315.83 3281.75 3212.02 3212.02 3210.32 3238.68 3199.06 3319.01 3448.65 
3331.88 3544.63 3546.95 3574.69 3464.21 3182.72 3166.44 3156.7 3219.94 
3255.93 3255.93 3300.43 3312.43 3404.21 3393.58 3483.6 
rGFP 1 412 double
6056.96 5975.25 4405 5829.16 5859.02 6582.49 6073.7 5044.25 6858.64 
6117.9 5299.41 4705.47 5938.86 6155.11 6325.93 5231.86 6875.52 7514.26 
5168.86 5319.2 5410 5886.95 4132.3 4162.65 4230.58 3788.21 4691.73 
4455.15 4494.38 7091.63 5841.89 6108.11 5105.67 6251.06 6005.8 5552.27 
6344.88 4310.37 5280.23 5997.7 3543.59 4383.38 4573.85 4685.21 5452.31 
4929.85 4839.91 4995.59 4849.41 5072.06 4785.14 5058.88 5175.12 5185.44 
5181.41 5332.01 4730.07 4855.09 4678.65 4759.22 4759.22 4468.64 4468.64 
4562.31 4907.01 4907.01 5099.57 5276.28 4922.64 5150.79 5266.58 5042.78 
5237.38 5040.15 4964.57 4914.02 7228.63 5135.33 5647.94 5107.79 3844.69 
4280.41 5256.47 7724.9 7136.35 6746.98 6378.06 6060.95 6239.04 6309.31 
6193.95 6642.25 7013.77 6794.8 5878.42 5593.75 5771.09 6775.49 6962.8 
7125.53 7159.16 6424.86 5936.12 5857.89 5639.54 5527.21 5374.36 5133.58 
5190.81 5190.81 5197.4 5197.4 5255.3 5354.79 5354.79 5367.6 5563.51 
5563.51 5665.07 5705.27 5705.27 5807.68 5865.53 5865.53 5843.53 5843.53 
5940.6 6050.69 6493.35 6975.2 7285.52 7075.04 6597.81 6435.56 5844.36 
5770.42 5846.17 5965.81 5872.02 5662.73 5605.99 5486.35 5506.28 5346.35 
5301.65 5536.99 5454.58 5328.23 5233.88 5163.69 5339.22 5381.89 5381.89 
5430.4 5714.48 5353.79 5477.52 5477.52 5472.54 5446.88 5440.28 5473.89 
5463.15 5463.15 5257.57 5228.96 5244.06 4634.23 4821.73 5189.79 4703.19 
4675.74 4766.36 4719.84 6162.75 6336.98 6687.78 6762.9 6762.9 5616.46 
5667.28 5644.01 5586.99 5530.98 5546.63 6321.73 6782.32 6340.85 6681.19 
6475.47 6193.43 6470.07 6530.35 6518.95 6453.26 6271.81 6111.05 6111.05 
5949.58 6079.43 6124.78 6171.04 6147.07 6576.6 6960.2 6528.22 6594.65 
6320.26 6075.77 6169.73 6228.32 6257.98 6062.91 6329.84 6444.11 6428.09 
6875.52 5515.43 6141.19 5944.56 6177.33 6220.64 6495.98 6602.05 6607.73 
7100.37 7029.8 7047.48 7261.27 6124.83 5868.68 5304.21 5036.59 5016.91 
5098.27 5098.27 5049.98 5049.98 5273.44 5566.07 6080.52 6302.16 5567.36 
5715.07 5562.35 5113.4 4619.58 5303.21 6138.93 6614.67 7218.49 6728.07 
6646.72 5929.15 6037.01 5972.49 5549.04 5549.04 5520.99 5333.98 5499.27 
5345.79 5276.27 5170 4987.91 4862.04 5070.14 5270.89 4370.32 5028 
5332.02 6894.01 6693.56 4136.99 4230.58 4358.79 4485.75 4699.23 4699.23 
4773.78 4856.2 4856.2 4603.42 4532.59 5167.62 5377.73 5393.32 5334.22 
5588.68 5511.56 5303.74 4996.05 5085.91 5670.16 5301.73 5308.78 5525.78 
5669.58 5874.53 5893.44 6200.73 6380.59 6675.3 6001.04 6225.88 6633.15 
6934.65 6775.16 6736.89 6940.11 5231.86 5382.57 5520.73 5661.94 5444.53 
5174.02 5291.53 4891.9 6191.62 6184.27 6231.93 6166.21 6166.21 5904.8 
5946.44 6373.4 6324 6189.98 6093.38 5984.86 5972.69 5852.31 5639.81 
6065.14 6168.28 6418.43 6146.35 6445.7 6476.28 6459.56 6266.72 6091.05 
5480.62 5617.23 5401.12 5455.88 5334.42 5472.96 5601.16 5789.57 6671.57 