# vtk DataFile Version 3.0
vtk output
ASCII
DATASET POLYDATA
POINTS 510 float
1.80421 0.330381 1.32432 0.395855 0.628128 1.32711 0.249289 0.420279 1.20353 
0.325821 0.245914 1.34316 2.43425 -0.617563 1.28901 2.08052 -1.2689 1.38554 
-0.476876 -0.247381 1.17115 -0.40748 -0.386524 1.176 -0.459846 -0.542845 1.18281 
2.72333 -0.337726 0.607539 2.58929 -0.910993 0.631916 0.0977159 0.654491 0.528482 
2.66872 -1.19453 0.508996 2.1457 -1.65977 0.466391 2.54691 0.342361 -0.0183904 
-0.759378 -0.521821 0.250969 5.26872 -0.766097 0.131038 2.1195 -1.85578 0.207623 
4.588 -1.06843 -0.0499025 2.90099 -1.08304 -0.0316873 -0.595375 0.0790538 -0.241898 
2.81184 -1.1778 -0.227129 -0.647954 -0.251053 -0.228118 5.32394 0.0431178 -0.822762 
5.3327 -0.234125 -0.491467 4.46254 -0.192887 -0.754628 2.36964 0.327307 -0.616449 
-0.504035 -0.473854 -0.570992 5.15597 0.014825 -0.799855 4.36732 0.113267 -0.828918 
5.99498 -0.722659 -0.99592 4.23309 -0.057181 -0.887411 -0.341298 -0.379866 -0.826674 
-0.285071 -0.674947 -0.948879 5.60236 -0.0519541 -1.74265 0.283732 0.445268 -1.06645 
2.64622 -0.122737 -1.26854 5.00354 0.389862 -1.58062 1.16638 0.306144 -1.47044 
1.66833 -1.65846 -1.39694 1.68557 -1.78014 -1.39225 5.77116 -0.408577 -1.79017 
5.57987 -1.23843 -1.65483 5.37656 -1.22873 -1.85326 2.48537 -0.260148 -1.6617 
5.57842 -0.725081 -1.87556 5.1778 -1.2284 -1.8512 5.71555 -0.663805 -2.07962 
5.33068 -0.980985 -2.06474 5.38068 -0.912292 -2.09211 5.42921 -0.859726 -2.07804 
5.47819 -0.814845 -2.03957 5.52105 -0.768013 -1.96962 5.66904 -0.207635 -1.92912 
5.71431 -0.30714 -2.00864 5.74707 -0.369591 -1.94495 5.26462 -1.21388 -1.85269 
5.34486 -1.084 -1.98291 5.73492 -0.611802 -2.07078 5.76157 -0.559762 -2.02867 
5.78832 -0.499114 -1.93129 5.75159 -0.728773 -2.01067 5.79081 -0.784278 -1.94213 
5.83555 -0.823199 -1.8669 5.88001 -0.862419 -1.76942 5.93222 -0.871734 -1.63058 
5.98405 -0.838446 -1.4434 6.00608 -0.776785 -1.22183 5.64703 -0.694294 -1.97389 
5.54637 -0.690059 -1.70611 5.53663 -0.636999 -1.55986 5.52901 -0.573483 -1.4437 
5.54893 -0.519095 -1.37196 5.60186 -0.478112 -1.35562 5.65808 -0.442962 -1.42434 
5.70459 -0.414501 -1.57795 5.547 0.143184 -1.86406 5.49698 0.233286 -1.93536 
5.45307 0.285085 -1.95329 5.40426 0.313162 -1.93759 5.3492 0.322156 -1.91514 
5.28944 0.317188 -1.88466 5.23834 0.338165 -1.84049 5.19784 0.391056 -1.78534 
5.1534 0.434273 -1.72236 5.08748 0.425756 -1.6546 2.55433 -0.219484 -1.5306 
2.61219 -0.1751 -1.39953 2.52109 -0.326392 -1.62976 2.56133 -0.379025 -1.58359 
2.6141 -0.394116 -1.52423 2.67913 -0.371895 -1.45907 2.74487 -0.335321 -1.3945 
2.78858 -0.28954 -1.33748 2.78077 -0.227257 -1.29542 2.74888 -0.161969 -1.27546 
2.70566 -0.118421 -1.26934 2.42084 -0.279623 -1.66024 2.36429 -0.27529 -1.65983 
2.31148 -0.259759 -1.6599 2.2593 -0.242399 -1.66005 2.20714 -0.224935 -1.6602 
2.15499 -0.207471 -1.66036 2.10287 -0.189902 -1.66052 2.05133 -0.17061 -1.66075 
2.00296 -0.141852 -1.6614 1.9594 -0.0987326 -1.66267 1.91103 -0.0699753 -1.66332 
1.85949 -0.0506824 -1.66355 1.80741 -0.03301 -1.66372 1.75587 -0.0137171 -1.66395 
1.7075 0.0150401 -1.6646 1.6639 0.0580557 -1.66587 1.61492 0.0849846 -1.66643 
1.55959 0.092984 -1.66618 1.49892 0.0850013 -1.66522 1.44359 0.0930007 -1.66496 
1.39461 0.11993 -1.66553 1.35109 0.163242 -1.6594 1.30299 0.192993 -1.63785 
1.25256 0.215998 -1.59376 1.20546 0.24907 -1.53529 5.4987 -1.2298 -1.75071 
5.81733 -0.336346 -1.58226 5.85455 -0.276737 -1.42564 5.88601 -0.226524 -1.33901 
5.87144 -0.177546 -1.32377 5.82252 -0.147602 -1.38229 5.74006 -0.114973 -1.52953 
1.66603 -1.71532 -1.38722 1.62852 -1.60415 -1.3987 1.58014 -1.57539 -1.39935 
1.52482 -1.56739 -1.39909 1.4635 -1.57731 -1.39805 1.40381 -1.58234 -1.39723 
1.34306 -1.59052 -1.39627 1.29088 -1.57315 -1.39642 1.2467 -1.53188 -1.39761 
1.1983 -1.50322 -1.39825 1.14676 -1.48392 -1.39849 1.09464 -1.46635 -1.39865 
1.04249 -1.44889 -1.3988 0.990331 -1.43143 -1.39896 0.938178 -1.41396 -1.39911 
0.886025 -1.3965 -1.39927 0.833906 -1.37893 -1.39943 0.782366 -1.35964 -1.39966 
0.733995 -1.33088 -1.40031 0.690436 -1.28776 -1.40158 0.642066 -1.259 -1.40223 
0.59056 -1.23961 -1.40247 0.539054 -1.22021 -1.40271 0.490729 -1.19125 -1.39595 
0.446783 -1.14909 -1.37494 0.395094 -1.12984 -1.33069 0.335506 -1.13411 -1.27799 
0.280066 -1.12606 -1.23326 0.227532 -1.10954 -1.21113 0.175421 -1.09188 -1.20388 
0.123345 -1.07412 -1.19663 0.0714234 -1.05577 -1.17458 0.0197688 -1.03642 -1.13034 
-0.0311957 -1.01495 -1.07877 -0.0784545 -0.982476 -1.03509 -0.117386 -0.925345 -1.01474 
-0.153269 -0.859098 -1.00713 -0.192111 -0.799669 -0.999218 -0.238118 -0.749114 -0.978524 
1.73852 -1.62155 -1.33985 1.80806 -1.58666 -1.29008 1.87427 -1.56182 -1.25469 
1.93559 -1.55165 -1.22608 2.00154 -1.52781 -1.21291 2.07 -1.49653 -1.20746 
2.13579 -1.47328 -1.20908 2.1968 -1.4643 -1.21008 2.26267 -1.44075 -1.20429 
2.33129 -1.40888 -1.18405 2.39751 -1.38396 -1.14126 2.45853 -1.37443 -1.08297 
2.52123 -1.3598 -1.01748 2.5818 -1.35151 -0.944315 2.64463 -1.33596 -0.856629 
2.70433 -1.32341 -0.739134 2.75843 -1.28979 -0.59277 2.79037 -1.23683 -0.417294 
5.05408 0.334263 -1.45041 5.08422 0.275277 -1.35199 5.09308 0.218197 -1.27689 
5.10688 0.158889 -1.1758 5.12001 0.0961726 -1.01403 4.92684 0.41679 -1.48204 
4.85613 0.408536 -1.37719 4.79308 0.392392 -1.25479 4.74676 0.38519 -1.10326 
4.71971 0.355951 -0.93871 4.69106 0.316076 -0.788535 4.6471 0.277798 -0.675336 
4.60559 0.236071 -0.618863 4.54575 0.196902 -0.629019 4.4669 0.156949 -0.708153 
2.61211 -0.0503523 -1.15247 2.5746 0.011678 -1.05819 2.53131 0.0561378 -1.00021 
2.4896 0.105378 -0.947367 2.4462 0.151738 -0.879583 2.40747 0.224879 -0.763488 
-0.262476 -0.59824 -0.976901 -0.276641 -0.525487 -0.972262 -0.307735 -0.453216 -0.917995 
0.266172 0.393196 -1.06418 0.246964 0.341998 -1.05451 0.218333 0.294601 -1.03007 
0.173738 0.253517 -0.98348 0.132379 0.211672 -0.929466 0.0765756 0.174341 -0.882909 
0.022276 0.13554 -0.858547 -0.00842666 0.0878681 -0.856316 -0.0298011 0.0364287 -0.868853 
-0.0588958 -0.0127482 -0.888817 -0.102107 -0.0565536 -0.894026 -0.130893 -0.104544 -0.884386 
-0.151776 -0.154535 -0.859925 -0.180484 -0.20223 -0.842891 -0.223636 -0.24541 -0.833292 
-0.254338 -0.293081 -0.831061 -0.286766 -0.340174 -0.828835 5.45423 -0.00936727 -1.32689 
5.37502 0.0252027 -1.00273 5.51118 -0.124681 -1.23761 5.45716 -0.171682 -0.851135 
5.39916 -0.203785 -0.620897 -0.364027 -0.653906 -0.764179 -0.424033 -0.628038 -0.631134 
-0.470475 -0.577796 -0.573972 -0.417198 -0.419721 -0.70381 5.96099 -0.741257 -0.800203 
5.90709 -0.765502 -0.644836 5.84874 -0.771603 -0.529064 5.78405 -0.79103 -0.429385 
5.71648 -0.818945 -0.353416 5.65191 -0.838077 -0.30008 5.5962 -0.831016 -0.277542 
5.54791 -0.801962 -0.270785 5.50875 -0.745721 -0.27263 5.47332 -0.678379 -0.282375 
5.43854 -0.60954 -0.299594 5.40536 -0.541768 -0.331619 5.38166 -0.477168 -0.363616 
5.37235 -0.417711 -0.402973 5.35059 -0.353762 -0.434964 5.33055 -0.290391 -0.46695 
4.25446 -0.00175949 -0.818194 4.2926 0.0541238 -0.798583 4.27337 -0.110063 -0.844937 
4.32294 -0.140982 -0.807144 4.38434 -0.168097 -0.77334 4.16429 -0.0887531 -0.811293 
4.09576 -0.119788 -0.764845 4.03017 -0.142239 -0.74102 3.9693 -0.150642 -0.725215 
3.90371 -0.173101 -0.70139 3.83479 -0.205619 -0.69195 3.76502 -0.240944 -0.712054 
3.69528 -0.27662 -0.784029 3.62887 -0.302784 -0.900908 3.57074 -0.304478 -1.04851 
3.5165 -0.294488 -1.1892 3.46383 -0.279967 -1.30786 3.41727 -0.252891 -1.38259 
3.39109 -0.202496 -1.42141 3.39649 -0.148502 -1.42363 3.42339 -0.0996712 -1.42587 
3.46819 -0.0573658 -1.44285 3.50973 -0.0152598 -1.48946 3.56731 0.0208302 -1.55082 
3.63455 0.0540095 -1.60475 3.70382 0.0877973 -1.62907 3.77363 0.123226 -1.60898 
3.84309 0.15782 -1.5666 3.90934 0.182846 -1.52382 3.96994 0.1908 -1.50253 
4.03141 0.201211 -1.49617 4.08746 0.195441 -1.48911 4.14054 0.180992 -1.45943 
4.19355 0.166646 -1.38281 4.24755 0.15376 -1.24694 4.30463 0.138165 -1.05414 
5.07356 0.00292001 -0.846708 4.99926 -0.0241967 -0.878203 4.92947 -0.0563051 -0.89102 
4.86357 -0.0797397 -0.893095 4.80256 -0.0887271 -0.892097 4.73684 -0.111676 -0.883074 
4.66871 -0.1417 -0.855217 4.60287 -0.164324 -0.809134 4.53872 -0.17624 -0.767211 
-0.568732 -0.401044 -0.493536 -0.613163 -0.326779 -0.379278 2.28833 0.339053 -0.677853 
2.23241 0.373778 -0.745388 2.18168 0.399206 -0.807659 2.12956 0.416576 -0.854761 
2.07721 0.433255 -0.877122 2.02498 0.450423 -0.88468 1.97282 0.467887 -0.884835 
1.92067 0.485351 -0.88499 1.86855 0.502919 -0.88515 1.81709 0.522509 -0.877981 
1.76895 0.552156 -0.856427 1.72585 0.597055 -0.813298 1.67803 0.627889 -0.762129 
1.62695 0.648962 -0.717962 1.57506 0.66742 -0.695921 1.52299 0.685181 -0.688672 
1.47083 0.702645 -0.688827 1.41876 0.720406 -0.681578 1.3668 0.738656 -0.659528 
1.3145 0.756071 -0.615201 1.2591 0.764319 -0.563048 1.19882 0.757907 -0.517683 
1.14323 0.765369 -0.487746 1.09135 0.783916 -0.458292 1.04276 0.812425 -0.414448 
0.995421 0.844778 -0.35594 0.935373 0.839266 -0.288364 0.872153 0.824289 -0.220376 
0.816255 0.831099 -0.160754 0.763883 0.848306 -0.116418 0.711314 0.864727 -0.0942881 
0.655498 0.871388 -0.0791389 0.594337 0.862163 -0.0558911 0.534431 0.856879 -0.0105751 
0.469259 0.836006 0.0502535 0.400959 0.805862 0.118903 0.332098 0.774235 0.195023 
0.262341 0.74208 0.286007 0.186579 0.704599 0.399506 5.24499 0.0276738 -0.771645 
5.20513 -0.0716953 -0.652337 5.24903 -0.134726 -0.550184 5.29346 -0.178057 -0.504424 
-0.577351 -0.548547 -0.388679 -0.643144 -0.578869 -0.19341 -0.700729 -0.562771 0.0215504 
2.46129 0.355962 -0.324483 -0.677905 -0.179846 -0.156525 -0.687666 -0.117012 -0.12187 
-0.657789 -0.0690647 -0.124104 -0.631265 -0.0212847 -0.155951 -0.61247 0.0287615 -0.195225 
-0.701298 -0.286627 -0.122345 -0.730899 -0.330763 -0.0288288 -0.748554 -0.380581 0.0573744 
-0.759356 -0.440781 0.148866 2.86738 -1.13425 -0.133072 2.7855 -1.20179 -0.00100932 
2.73733 -1.19935 0.244056 4.62063 -1.0214 -0.0521283 4.6771 -0.982361 -0.0542833 
4.74481 -0.946877 -0.0489967 4.81383 -0.913539 -0.0362313 4.87927 -0.891137 -0.0155741 
4.93658 -0.893137 -0.00867649 4.99374 -0.89573 -0.0165863 5.05879 -0.874811 -0.0329273 
5.12791 -0.841508 -0.0201616 5.1981 -0.804596 0.0369363 2.62886 0.249949 -0.0402539 
2.68732 0.193433 -0.0460162 2.72643 0.134729 -0.0243049 2.75082 0.0720983 0.0125501 
2.75856 0.0142474 0.0740985 2.76949 -0.0441367 0.150458 2.76447 -0.0965387 0.241577 
2.7515 -0.146566 0.32774 2.74525 -0.200204 0.413977 2.74719 -0.264669 0.505506 
2.14745 -1.80428 0.254689 2.17127 -1.74557 0.341053 2.21121 -1.59647 0.460697 
2.2795 -1.55068 0.480388 2.34757 -1.51194 0.527546 2.40636 -1.47113 0.582135 
2.44891 -1.42516 0.631742 2.49436 -1.38082 0.666561 2.52368 -1.33146 0.69146 
2.54631 -1.2808 0.679315 2.58662 -1.23406 0.61771 -0.712674 -0.594366 0.48815 
-0.664109 -0.635312 0.689455 -0.601182 -0.621266 0.856289 -0.531167 -0.584112 1.0147 
2.45434 0.323985 0.314457 2.38575 0.323776 0.574665 2.3245 0.31985 0.743506 
2.26954 0.330041 0.844999 2.21812 0.350367 0.918855 2.16988 0.380158 0.992299 
2.12335 0.415134 1.07294 2.06667 0.419881 1.1623 2.00769 0.417613 1.23715 
1.94247 0.396547 1.29057 1.87371 0.364623 1.31481 2.06231 -1.69295 0.658876 
1.99288 -1.71115 0.816024 1.93595 -1.70482 0.925099 1.88004 -1.69784 0.997064 
1.81907 -1.70628 1.04253 1.759 -1.71225 1.06563 1.69463 -1.73113 1.08189 
1.63412 -1.73842 1.10506 1.58712 -1.70523 1.14128 1.54177 -1.66705 1.18471 
1.49605 -1.63 1.22819 1.44287 -1.61514 1.28004 1.39347 -1.58899 1.33141 
1.33957 -1.57635 1.37595 1.28925 -1.55323 1.39779 1.23179 -1.55154 1.40573 
1.17643 -1.54365 1.406 1.12373 -1.52781 1.40591 1.07223 -1.50832 1.41309 
1.02409 -1.47867 1.43464 0.980999 -1.43377 1.47777 0.933205 -1.40283 1.52893 
0.882741 -1.37993 1.57302 0.834672 -1.35008 1.59456 0.791803 -1.30483 1.60062 
0.747216 -1.26478 1.59948 0.70427 -1.21983 1.59812 0.655934 -1.19097 1.59747 
0.604428 -1.17157 1.59723 0.553035 -1.15178 1.60439 0.5054 -1.12069 1.61847 
0.465275 -1.06712 1.63898 0.422403 -1.02189 1.64503 0.369762 -1.00594 1.63752 
0.322833 -0.973083 1.61446 0.273762 -0.946548 1.59909 0.222693 -0.925913 1.59138 
0.173741 -0.898889 1.5908 0.126431 -0.866968 1.59002 0.0700821 -0.862029 1.59041 
0.018467 -0.843023 1.58277 -0.0259078 -0.802536 1.55937 -0.0748089 -0.775758 1.51433 
-0.127469 -0.760266 1.46236 -0.183299 -0.754239 1.41081 -0.240725 -0.752907 1.36687 
-0.28858 -0.723071 1.31428 -0.337457 -0.696287 1.26182 -0.385059 -0.665633 1.21661 
-0.424388 -0.610083 1.19255 2.65483 -1.10109 0.549884 2.62646 -1.01223 0.591097 
2.66022 -0.862891 0.634181 2.69659 -0.812571 0.624378 2.71658 -0.761672 0.597418 
2.73369 -0.71145 0.548266 2.75053 -0.661716 0.486786 2.76734 -0.611651 0.432709 
2.78264 -0.559639 0.410697 2.78675 -0.500951 0.44043 2.76316 -0.427005 0.511846 
-0.000669998 0.615798 0.531061 -0.0804294 0.580009 0.540745 -0.151208 0.546008 0.565086 
-0.218497 0.512481 0.611611 -0.274327 0.475483 0.665582 -0.30466 0.429623 0.712215 
-0.325476 0.379931 0.74408 -0.35219 0.332214 0.775927 -0.383547 0.286697 0.822557 
-0.386018 0.232153 0.88408 -0.393304 0.179544 0.952992 -0.408233 0.129493 1.02188 
-0.423136 0.0791117 1.08337 -0.428824 0.0249994 1.13007 -0.420369 -0.0348169 1.15462 
-0.426444 -0.0904121 1.16433 -0.442069 -0.143132 1.16661 -0.45942 -0.195274 1.16888 
0.143963 0.575853 0.743682 0.191182 0.502029 0.968558 2.53556 -0.809638 0.880481 
2.48859 -0.716546 1.09965 2.642 -0.373856 0.80012 2.60097 -0.416162 0.957938 
2.56978 -0.459848 1.06628 2.52555 -0.501122 1.145 2.48579 -0.552594 1.2142 
-0.442391 -0.490738 1.18054 -0.424935 -0.438631 1.17827 0.32084 0.470765 1.265 
0.357746 0.523151 1.307 0.378203 0.57583 1.32444 2.09756 -1.21795 1.35366 
2.11272 -1.16701 1.30698 2.11832 -1.11319 1.25286 2.10972 -1.05397 1.21352 
2.11598 -0.998111 1.21121 2.13382 -0.944522 1.24594 2.16302 -0.894088 1.29552 
2.2066 -0.848796 1.33773 2.23571 -0.799623 1.35769 2.25703 -0.748553 1.36036 
2.28858 -0.700881 1.34824 2.35056 -0.659792 1.3237 0.288791 0.32464 1.27614 

LINES 54 627
5 34 53 54 55 41 
3 43 56 46 
5 47 58 59 60 41 
3 47 68 45 
9 45 69 70 71 72 73 74 75 41 
12 34 76 77 78 79 80 81 82 83 84 85 37 
4 44 86 87 36 
11 44 88 89 90 91 92 93 94 95 96 36 
27 44 97 98 99 100 101 102 103 104 105 106 107 108 109 110 111 112 113 114 115 116 117 118 119 120 121 38 
3 43 122 42 
8 41 123 124 125 126 127 128 34 
3 40 129 39 
40 39 130 131 132 133 134 135 136 137 138 139 140 141 142 143 144 145 146 147 148 149 150 151 152 153 154 155 156 157 158 159 160 161 162 163 164 165 166 167 33 
20 39 168 169 170 171 172 173 174 175 176 177 178 179 180 181 182 183 184 185 21 
7 37 186 187 188 189 190 28 
12 37 191 192 193 194 195 196 197 198 199 200 29 
8 36 201 202 203 204 205 206 26 
5 33 207 208 209 32 
19 35 210 211 212 213 214 215 216 217 218 219 220 221 222 223 224 225 226 32 
5 34 229 230 231 24 
5 33 232 233 234 27 
3 32 235 27 
4 31 252 253 29 
33 31 257 258 259 260 261 262 263 264 265 266 267 268 269 270 271 272 273 274 275 276 277 278 279 280 281 282 283 284 285 286 287 29 
4 27 297 298 22 
41 26 299 300 301 302 303 304 305 306 307 308 309 310 311 312 313 314 315 316 317 318 319 320 321 322 323 324 325 326 327 328 329 330 331 332 333 334 335 336 337 11 
5 28 339 340 341 24 
5 27 342 343 344 15 
3 26 345 14 
7 22 346 347 348 349 350 20 
6 22 351 352 353 354 15 
3 21 355 19 
4 21 356 357 12 
12 18 358 359 360 361 362 363 364 365 366 367 16 
12 14 368 369 370 371 372 373 374 375 376 377 9 
4 17 378 379 13 
11 13 380 381 382 383 384 385 386 387 388 12 
6 15 389 390 391 392 8 
13 14 393 394 395 396 397 398 399 400 401 402 403 0 
52 13 404 405 406 407 408 409 410 411 412 413 414 415 416 417 418 419 420 421 422 423 424 425 426 427 428 429 430 431 432 433 434 435 436 437 438 439 440 441 442 443 444 445 446 447 448 449 450 451 452 453 8 
4 12 454 455 10 
11 10 456 457 458 459 460 461 462 463 464 9 
20 11 465 466 467 468 469 470 471 472 473 474 475 476 477 478 479 480 481 482 6 
4 11 483 484 2 
4 10 485 486 4 
7 9 487 488 489 490 491 4 
4 8 492 493 7 
5 2 494 495 496 1 
14 5 497 498 499 500 501 502 503 504 505 506 507 508 4 
3 3 509 2 
8 43 57 48 49 50 51 52 45 
26 47 61 62 63 64 65 66 67 30 236 237 238 239 240 241 242 243 244 245 246 247 248 249 250 251 24 
6 34 227 228 23 338 28 
15 31 254 255 256 25 296 295 294 293 292 291 290 289 288 28 

POINT_DATA 510
SCALARS DY_raw double
LOOKUP_TABLE default
448.812 704.999 297.508 315.242 492.106 444.216 600.451 494.215 346.137 
358.769 348.342 315.557 366.325 319.885 513.798 324.284 867.813 258.058 
351.213 486.744 310.714 322.966 322.276 727.498 574.351 403.531 405.692 
256.175 655.493 500.082 655.878 422.932 345.685 334.422 625.987 507.567 
490.434 412.697 517.127 311.191 271.895 609.392 459.477 401.432 376.379 
622.369 341.658 506.769 473.422 521.584 544.091 568.702 584.123 658.124 
612.83 573.831 387.467 432.893 515.635 538.951 580.299 562.802 546.628 
496.885 516.055 567.193 718.196 697.407 555.307 563.506 496.048 515.751 
534.511 558.3 528.806 556.59 593.244 580.645 554.513 482.97 513.668 
444.78 459.547 468.222 523.782 451.212 474.518 529.882 369.141 393.996 
439.183 551.422 660.638 733.227 700.322 541.22 490.434 347.975 384.69 
381.412 348.377 316.293 288.061 329.248 312.541 312.541 300.634 289.631 
289.631 314.933 332.986 332.986 381.684 395.598 395.598 381.947 371.809 
371.809 371.07 405.32 449.606 459.813 427.969 604.398 582.616 611.189 
627.747 601.893 621.772 280.886 312.954 365.202 365.202 394.206 345.636 
345.636 336.257 339.754 339.754 354.766 363.029 363.029 379.831 406.466 
406.466 437.369 437.369 385.676 375.242 375.242 380.545 397.551 397.551 
357.466 324.272 343.036 376.569 370.374 405.548 417.408 417.408 415.971 
399.885 435.474 468.996 419.969 404.37 358.075 335.171 370.485 430.734 
456.314 449.029 490.317 455.621 397.51 387.106 330.983 352.906 351.262 
324.075 332.715 335.523 364.31 384.484 334.372 462.312 490.391 484.257 
470.929 556.321 443.257 417.672 512.45 541.332 490.602 452.504 438.222 
433.287 456.555 481.461 497.21 486.421 558.766 479.62 464.537 393.379 
345.701 311.071 292.204 507.567 457.07 400.732 450.243 390.245 387.281 
400.635 403.883 352.505 352.505 357.863 357.863 315.597 376.645 376.645 
337.957 345.685 565.814 677.16 568.615 677.685 642.567 380.154 382.634 
262.634 296.037 605.593 632.166 641.203 567.604 605.246 526.949 575.912 
575.912 621.719 639.303 588.047 617.477 559.545 513.736 593.508 540.077 
485.195 533.807 448.633 446.395 404.473 478.773 502.117 514.875 494.772 
479.665 452.124 472.624 425.262 486.696 534.84 454.305 399.302 390.092 
384.516 403.903 432.778 482.404 467.06 522.42 487.252 436.237 484.33 
456.193 474.958 522.636 402.771 402.771 375.648 384.358 397.459 441.474 
565.856 502.806 473.722 454.982 436.497 449.671 458.547 499.696 470.957 
289.179 319.458 414.457 400.359 392.561 368.452 388.838 388.838 402.034 
414.421 414.421 406.294 400.342 444.065 410.591 416.344 416.344 354.619 
354.619 302.733 283.907 331.058 365.11 387.85 387.85 394.084 347.397 
420.723 455.678 450.932 358.498 336.743 299.827 304.691 297.13 313.104 
325.522 312.307 275.142 241.298 266.173 729.17 607.437 553.611 553.57 
261.236 274.352 314.782 396.213 289.791 281.159 285.78 258.527 283.975 
314.821 324.012 346.304 327.823 378.032 346.919 340.124 342.954 375.945 
422.933 393.72 381.426 388.834 393.452 455.622 636.988 682.041 460.262 
437.613 415.874 430.967 457.586 429.918 464.105 452.026 396.743 351.899 
291.611 312.27 314.811 308.034 316.006 309.443 322.257 340.541 362.688 
382.356 361.375 344.189 313.027 322.979 315.469 508.205 457.192 463.76 
475.724 440.403 500.367 493.011 502.132 543.161 480.106 449.967 311.254 
336.505 415.089 419.588 415.797 411.771 357.791 318.284 358.6 407.791 
444.811 443.191 403.498 403.498 379.619 340.741 340.741 310.653 312.57 
312.57 320.152 324.437 375.837 359.622 391.759 417.196 383.624 383.624 
364.602 361.849 361.849 384.034 404.945 402.775 402.775 375.817 440.422 
432.427 432.427 455.739 439.59 439.59 428.79 398.451 345.237 319.157 
333.69 369.583 337.658 350.627 325.172 323.897 392.531 373.435 385.886 
449.807 428.305 372.513 400.261 422.745 384.087 312.896 339.386 346.742 
378.893 363.268 344.204 292.528 292.528 264.433 274.796 312.737 360.295 
372.845 393.924 435.569 435.569 490.037 600.451 393.289 336.721 424.255 
437.572 333.298 367.5 375.102 428.969 475.919 386.773 494.215 372.085 
442.536 564.442 375.615 372.451 380.81 378.128 396.063 377.541 381.913 
399.88 435.674 490.522 470.701 475.245 285.772 
FIELD FieldData 7
DY_minmax 1 510 double
0.33122 0.740127 0.0897198 0.118025 0.400322 0.323884 0.573256 0.403688 0.167337 
0.1875 0.170857 0.118528 0.19956 0.125437 0.434947 0.132458 1 0.0267519 
0.175439 0.391764 0.110798 0.130353 0.129253 0.776038 0.531596 0.258946 0.262395 
0.0237456 0.661109 0.413053 0.661725 0.289913 0.166616 0.148639 0.614014 0.425001 
0.397654 0.273575 0.44026 0.111558 0.0488379 0.587526 0.348243 0.255596 0.215608 
0.608239 0.160188 0.423728 0.370501 0.447373 0.483297 0.52258 0.547194 0.66531 
0.593014 0.530767 0.233306 0.305811 0.437879 0.475094 0.541091 0.513162 0.487347 
0.407951 0.438549 0.520172 0.761192 0.72801 0.501199 0.514287 0.406615 0.438064 
0.468007 0.505976 0.458901 0.503247 0.561752 0.541642 0.499932 0.38574 0.434739 
0.324785 0.348355 0.362201 0.450881 0.335051 0.37225 0.460619 0.204055 0.243727 
0.315851 0.494998 0.669323 0.785183 0.732663 0.478716 0.397654 0.170272 0.228873 
0.223641 0.170913 0.119702 0.0746408 0.14038 0.113714 0.113714 0.0947094 0.0771463 
0.0771463 0.117532 0.146347 0.146347 0.224075 0.246283 0.246283 0.224494 0.208313 
0.208313 0.207134 0.261801 0.332487 0.348779 0.297952 0.579555 0.544788 0.590395 
0.616824 0.575557 0.607287 0.0631882 0.114373 0.197767 0.197767 0.244062 0.166538 
0.166538 0.151568 0.157149 0.157149 0.181111 0.194299 0.194299 0.221117 0.26363 
0.26363 0.312955 0.312955 0.230447 0.213793 0.213793 0.222257 0.2494 0.2494 
0.185419 0.132438 0.162388 0.21591 0.206023 0.262166 0.281096 0.281096 0.278801 
0.253126 0.309931 0.363437 0.285184 0.260286 0.186392 0.149834 0.2062 0.302366 
0.343194 0.331567 0.397468 0.342089 0.249336 0.23273 0.14315 0.178142 0.175518 
0.132124 0.145914 0.150396 0.196344 0.228545 0.148558 0.352768 0.397585 0.387795 
0.366522 0.502818 0.322354 0.281517 0.432794 0.478894 0.397922 0.337113 0.314318 
0.30644 0.343579 0.383332 0.40847 0.39125 0.506721 0.380393 0.356319 0.242742 
0.166641 0.111368 0.0812535 0.425001 0.344401 0.254478 0.333504 0.237739 0.233009 
0.254324 0.259508 0.177501 0.177501 0.186054 0.186054 0.118592 0.216033 0.216033 
0.154281 0.166616 0.51797 0.695693 0.522441 0.696532 0.640477 0.221632 0.225592 
0.0340558 0.0873709 0.581463 0.623877 0.638301 0.520827 0.580909 0.455938 0.534089 
0.534089 0.607202 0.635268 0.553457 0.600431 0.507964 0.434848 0.562173 0.476892 
0.389292 0.466883 0.330934 0.327362 0.260449 0.379042 0.416302 0.436665 0.404578 
0.380465 0.336506 0.369227 0.293632 0.391688 0.468531 0.339987 0.252195 0.237495 
0.228596 0.259539 0.305628 0.384837 0.360346 0.448709 0.392575 0.311149 0.387911 
0.343002 0.372952 0.449053 0.257733 0.257733 0.21444 0.228343 0.249255 0.319507 
0.518038 0.417402 0.370979 0.341068 0.311564 0.332591 0.346759 0.412438 0.366567 
0.0764248 0.124755 0.276385 0.253883 0.241436 0.202955 0.235493 0.235493 0.256556 
0.276328 0.276328 0.263355 0.253856 0.323644 0.270215 0.279397 0.279397 0.180876 
0.180876 0.0980588 0.0680101 0.143269 0.19762 0.233916 0.233916 0.243867 0.169348 
0.286386 0.342179 0.334604 0.187068 0.152344 0.0934202 0.101184 0.0891151 0.114613 
0.134433 0.11334 0.0540207 0 0.0397039 0.778708 0.584406 0.498493 0.498427 
0.031825 0.0527595 0.11729 0.247265 0.0774015 0.0636233 0.0709997 0.0275006 0.0681183 
0.117354 0.132022 0.167604 0.138106 0.218246 0.168586 0.15774 0.162257 0.214915 
0.289914 0.243286 0.223663 0.235488 0.242859 0.34209 0.631573 0.703484 0.349496 
0.313346 0.278647 0.302736 0.345224 0.301063 0.355629 0.336349 0.248111 0.176534 
0.0803074 0.113281 0.117337 0.10652 0.119245 0.108769 0.129222 0.158405 0.193754 
0.225147 0.191659 0.164229 0.114489 0.130374 0.118387 0.426018 0.344596 0.355079 
0.374175 0.317799 0.413509 0.401768 0.416326 0.481813 0.38117 0.333064 0.11166 
0.151964 0.277394 0.284575 0.278524 0.272097 0.185938 0.122881 0.187229 0.265745 
0.324834 0.322249 0.258894 0.258894 0.220779 0.158724 0.158724 0.1107 0.11376 
0.11376 0.125862 0.132701 0.214743 0.188862 0.240156 0.280757 0.227172 0.227172 
0.19681 0.192416 0.192416 0.227826 0.261203 0.257739 0.257739 0.214711 0.317828 
0.305067 0.305067 0.342276 0.316501 0.316501 0.299263 0.250837 0.1659 0.124273 
0.147471 0.20476 0.153804 0.174503 0.133875 0.13184 0.241389 0.210909 0.230783 
0.332809 0.298489 0.209437 0.253727 0.289613 0.227911 0.11428 0.156562 0.168303 
0.21962 0.194681 0.164253 0.0817699 0.0817699 0.0369267 0.0534685 0.114027 0.189935 
0.209967 0.243611 0.310083 0.310083 0.39702 0.573256 0.242598 0.152308 0.292023 
0.313279 0.146845 0.201436 0.213569 0.299547 0.374487 0.232197 0.403688 0.208753 
0.321203 0.515781 0.214388 0.209339 0.222681 0.218399 0.247026 0.217463 0.22444 
0.253118 0.31025 0.397795 0.366158 0.373411 0.0709871 
WidthEq 1 510 double
1.86846 1.21488 3.4083 2.22175 2.24427 2.14789 1.28511 1.94156 2.92002 
3.29367 2.71118 2.89991 2.65733 3.8464 3.38346 4.28762 1.71421 4.45926 
2.75974 1.95443 1.94412 3.35294 3.67013 4.86724 5.59382 5.98627 4.3403 
4.05816 5.83107 5.2419 2.78106 5.89427 2.87689 2.50721 5.79281 1.63986 
1.95614 6.09517 2.06428 2.87668 2.21154 4.39873 3.1539 4.83109 1.97776 
4.08682 2.80926 4.81858 5.08328 4.61325 4.568 4.27726 4.13337 4.85382 
4.73291 4.65352 3.81025 5.12923 4.49148 4.48409 4.19828 3.64092 3.78235 
3.75404 3.52303 3.33399 2.73933 2.5967 4.46911 4.38193 5.12712 5.43913 
5.24597 5.27473 5.63053 4.99062 4.78756 3.60201 3.54424 3.4998 3.53399 
3.75495 3.99486 4.28917 3.84826 4.88162 1.9219 1.78626 2.0313 1.71864 
1.66137 1.47128 1.21538 1 1.26933 1.72683 1.95614 2.2036 2.20088 
2.2311 2.17011 2.37036 2.55216 2.61596 2.92354 2.92354 3.06617 3.2262 
3.2262 3.44872 3.43897 3.43897 3.1171 2.97276 2.97276 3.09438 3.2178 
3.2178 3.30619 3.23485 2.71862 2.29077 4.5217 4.57006 4.49023 4.50878 
4.80405 5.22189 4.73844 2.7787 3.24807 3.28497 3.28497 3.26245 3.29261 
3.29261 3.32102 3.24148 3.24148 3.14254 3.11052 3.11052 2.94159 2.71314 
2.71314 2.69936 2.69936 3.05481 3.12691 3.12691 3.05335 2.68569 2.68569 
2.82138 3.11006 3.11238 2.98603 2.96426 2.58504 2.49278 2.49278 2.48192 
2.48398 2.35301 2.23336 2.16136 2.13929 2.34743 3.00861 2.80464 2.70449 
2.56452 2.48469 2.32949 2.35774 2.49032 2.5511 2.60967 2.74044 2.82435 
2.92937 3.34706 3.39151 3.33399 3.22967 3.43369 6.24268 6.40819 6.74453 
7.08439 6.62035 6.00533 5.96144 4.99625 4.5501 5.05819 5.57019 5.85506 
5.94178 5.66411 5.43148 2.07218 2.28655 2.28811 2.69006 3.08844 3.99205 
2.50389 2.76216 3.04279 1.63986 2.09053 2.72525 2.58966 2.93807 2.78724 
2.80097 2.54466 2.8976 2.8976 2.77734 2.77734 3.02163 2.54934 2.54934 
2.74215 2.87689 5.77456 4.72723 6.60446 5.41826 5.48463 2.58695 2.91826 
4.1386 3.43389 3.20297 3.17411 3.29945 3.79326 3.70703 4.0382 3.77003 
3.77003 3.37683 3.28462 3.40724 3.67134 4.35398 4.72325 5.06648 5.51474 
5.48649 4.97378 5.91167 5.99874 6.05827 5.20273 5.00022 4.83346 5.28403 
5.19614 5.34722 5.01214 4.73547 3.23811 2.8975 2.89041 3.20584 3.38904 
3.5813 3.57999 3.44002 3.01374 3.2256 3.16517 3.37396 3.52358 3.54741 
4.18425 4.07168 3.755 4.45483 4.45483 4.6403 4.61642 4.76614 5.05749 
6.36425 6.27325 6.29989 5.68633 5.11611 4.64608 4.73135 5.05819 5.63721 
3.88727 3.52333 4.28787 4.21723 4.02166 3.89119 3.44706 3.44706 3.22756 
2.74355 2.74355 2.45814 2.40249 2.40716 2.51339 2.4875 2.4875 2.90866 
2.90866 3.22967 3.25204 3.05049 2.92465 2.81686 2.81686 2.79841 2.79544 
2.65939 2.60912 2.74074 3.25189 3.34827 3.54314 3.32474 3.13007 2.9804 
2.64436 2.64723 2.9437 3.23193 3.14445 5.14326 5.82987 5.75873 5.6897 
4.71621 4.34302 4.26384 4.28922 4.11944 3.838 3.56305 3.70281 2.63008 
4.17671 4.17827 4.08883 4.26751 2.7706 2.98593 2.63315 3.16878 3.11675 
3.26481 3.5912 3.77375 3.6184 3.74489 3.34294 2.45593 2.32119 3.40568 
3.16662 3.00393 2.75492 2.49137 2.56865 2.55412 2.64894 2.96824 3.26627 
4.35071 4.03775 3.82076 3.46114 3.23198 2.99634 2.85054 2.733 2.82374 
2.76532 2.92208 4.1663 4.0837 3.78396 3.42997 2.84999 2.75105 2.59067 
2.27629 2.13894 1.99123 1.96715 1.86398 1.97746 2.20174 2.1043 3.42806 
2.65603 2.16242 2.16569 2.24241 2.24734 2.38449 2.39188 2.27071 2.12949 
2.03432 2.08555 2.27735 2.27735 2.32511 2.424 2.424 2.45598 2.40832 
2.40832 2.35734 2.3136 2.18479 2.19641 2.11124 1.90732 1.94101 1.94101 
1.91295 1.8021 1.8021 1.70185 1.6391 1.71723 1.71723 1.83171 1.70718 
1.75076 1.75076 1.76399 1.77369 1.77369 1.78098 1.88068 2.05342 2.04638 
2.11144 2.17434 2.25372 2.47684 3.04355 3.09523 2.55286 2.44537 2.34205 
1.95327 1.99621 2.33527 2.35141 2.33265 2.95255 2.72294 2.19988 1.89013 
1.83085 1.93864 2.40153 2.83425 2.83425 3.30684 3.21011 2.89725 2.60525 
2.49695 2.32501 1.91014 1.91014 1.62367 1.28511 2.61369 2.85577 2.16886 
2.45346 3.22695 2.94546 2.89488 2.6607 2.37659 2.6878 1.94156 3.00122 
2.50309 1.8573 2.48192 2.8703 3.24053 3.29271 3.32459 3.37255 3.34822 
2.92475 2.51832 2.23557 2.16438 2.19505 3.39115 
rRFP 1 510 double
2606.57 2476.57 2912.85 2676.84 2681.32 2662.15 2490.54 2621.11 2815.73 
2890.05 2774.19 2811.73 2763.48 2999.99 2907.91 3087.75 2575.89 3121.89 
2783.85 2623.67 2621.62 2901.84 2964.93 3203.04 3347.56 3425.62 3098.23 
3042.11 3394.75 3277.56 2788.09 3407.32 2807.15 2733.62 3387.14 2561.1 
2624.01 3447.28 2645.52 2807.11 2674.81 3109.85 2862.25 3195.85 2628.31 
3047.81 2793.7 3193.36 3246.01 3152.52 3143.52 3085.69 3057.07 3200.37 
3176.32 3160.53 2992.8 3255.15 3128.3 3126.83 3069.98 2959.12 2987.25 
2981.62 2935.67 2898.07 2779.79 2751.42 3123.85 3106.51 3254.73 3316.79 
3278.37 3284.09 3354.86 3227.58 3187.19 2951.38 2939.89 2931.05 2937.85 
2981.8 3029.52 3088.06 3000.36 3205.9 2617.2 2590.22 2638.96 2576.77 
2565.38 2527.57 2476.67 2433.83 2487.4 2578.4 2624.01 2673.23 2672.69 