# vtk DataFile Version 3.0
vtk output
ASCII
DATASET POLYDATA
POINTS 343 float
4.51638 0.132427 -0.0287095 1.33971 -0.0404675 0.638123 1.6162 0.0515588 0.585122 
3.56564 -0.254834 -0.164746 2.63123 -0.719769 -0.291348 1.28681 -1.59154 -0.866785 
2.88264 -0.239063 -0.93224 -0.353456 1.06308 -0.000312131 -0.407423 -0.218063 -0.489703 
-0.444898 1.48925 -0.66961 0.714886 -1.35681 -1.59664 2.3688 -0.669296 -1.82002 
2.34224 0.272714 -1.99711 -1.03062 0.0351301 -1.26546 1.65078 1.72292 -1.64037 
2.27534 0.486667 -2.01267 -0.629749 1.30035 -1.77164 0.95983 -0.975116 -2.56688 
1.86516 0.0507821 -2.6834 -0.0812083 1.95088 -2.00405 0.0478259 1.81593 -2.0599 
-0.34018 1.51345 -2.43403 -0.16804 1.06092 -2.3471 1.62645 0.297788 -2.92903 
-0.360052 0.721981 -2.5675 -0.317764 0.610479 -2.59757 0.334978 0.18939 -2.83434 
-0.575933 1.74597 -2.54354 -0.376412 0.535683 -2.80509 -0.237628 0.853957 -2.7841 
-0.0945009 0.681837 -2.84998 0.0106801 0.130823 -2.97264 -0.000161625 0.0225673 -2.98886 
0.00525924 0.0766952 -2.98075 -0.0430557 0.662841 -2.86616 0.00592557 0.617983 -2.8785 
0.0476328 0.559602 -2.8759 0.0798173 0.496501 -2.84851 0.128406 0.431156 -2.81787 
0.184874 0.366461 -2.79684 0.237789 0.305376 -2.79751 0.287268 0.246763 -2.81238 
-0.2764 0.830294 -2.70885 -0.317649 0.7819 -2.63731 -0.370385 0.57507 -2.69903 
-0.325562 0.572332 -2.71071 -0.33473 0.462843 -2.71982 -0.345065 0.396574 -2.64364 
-0.373785 0.335953 -2.59286 -0.388841 0.280151 -2.58337 -0.396033 0.227263 -2.59857 
-0.393386 0.176036 -2.63142 -0.362704 0.121964 -2.66403 -0.318736 0.0659507 -2.69256 
-0.271133 0.00858336 -2.71449 -0.223414 -0.0486815 -2.73643 -0.175515 -0.104156 -2.75811 
-0.126631 -0.149798 -2.77831 -0.0762429 -0.180423 -2.79626 -0.0271681 -0.224156 -2.81617 
0.0218008 -0.267883 -2.83605 0.0703243 -0.298394 -2.85352 0.107693 -0.343333 -2.87072 
0.131215 -0.39834 -2.87847 0.174703 -0.457851 -2.86877 0.236079 -0.511384 -2.83152 
0.307013 -0.543902 -2.76974 0.37469 -0.572147 -2.7219 0.433803 -0.610248 -2.70461 
0.482802 -0.635824 -2.72908 0.527571 -0.665802 -2.76874 0.573017 -0.689009 -2.80739 
0.624869 -0.723943 -2.81871 0.684479 -0.757063 -2.80069 0.748714 -0.80078 -2.76243 
0.81699 -0.841996 -2.70925 0.887132 -0.902402 -2.64441 -0.43905 1.64229 -2.48746 
-0.513988 1.7176 -2.52526 -0.350114 0.666915 -2.57961 -0.409328 0.763706 -2.54788 
-0.460891 0.7826 -2.53169 -0.510566 0.800356 -2.50843 -0.552464 0.840258 -2.46775 
-0.576465 0.886246 -2.39949 -0.580223 0.929515 -2.31354 -0.593297 0.9712 -2.21006 
-0.609813 1.01536 -2.12076 -0.61513 1.06109 -2.04947 -0.627207 1.1095 -1.99153 
-0.621119 1.15567 -1.93076 -0.607137 1.20136 -1.87205 -0.604589 1.24888 -1.81791 
-0.294468 1.395 -2.45843 -0.253704 1.31331 -2.45967 -0.223592 1.24709 -2.43231 
-0.188496 1.1824 -2.39819 -0.171672 1.12013 -2.36682 -0.247107 1.60215 -2.33335 
-0.16387 1.65785 -2.25148 -0.0876325 1.7006 -2.18561 -0.0166753 1.74985 -2.12504 
1.70371 0.219422 -2.83555 1.78198 0.138642 -2.75308 1.80114 -0.0304112 -2.64804 
1.75227 -0.0932965 -2.63133 1.71613 -0.145008 -2.64426 1.65902 -0.189639 -2.68167 
1.59005 -0.231965 -2.72606 1.52295 -0.275539 -2.76337 1.47248 -0.323522 -2.78238 
1.44993 -0.375472 -2.79358 1.43278 -0.430014 -2.79109 1.40632 -0.48625 -2.77108 
1.39803 -0.546987 -2.73317 1.38964 -0.608852 -2.68767 1.3551 -0.667987 -2.64292 
1.30384 -0.722706 -2.61645 1.24716 -0.774834 -2.60366 1.18861 -0.825716 -2.59792 
1.13007 -0.87649 -2.59218 1.07172 -0.925364 -2.58614 1.01454 -0.962606 -2.57836 
0.150316 1.85776 -1.94653 0.240335 1.89433 -1.84647 0.320847 1.93087 -1.76727 
0.396943 1.96738 -1.70246 0.471824 1.99213 -1.6394 0.545808 1.98899 -1.57324 
0.620384 1.97289 -1.50178 0.691233 1.95736 -1.44475 0.756756 1.94544 -1.409 
0.815187 1.93836 -1.40161 0.869898 1.93198 -1.40865 0.921851 1.91699 -1.42425 
0.972304 1.88701 -1.44211 1.02407 1.87012 -1.458 1.07406 1.85448 -1.48097 
1.11919 1.8281 -1.5201 1.16209 1.8173 -1.57143 1.20658 1.80347 -1.61595 
1.25586 1.76175 -1.63556 1.31222 1.71517 -1.62681 1.37284 1.69209 -1.60728 
1.43108 1.68312 -1.60017 1.48598 1.67863 -1.60693 1.53931 1.6774 -1.62047 
1.59381 1.68779 -1.63227 -0.0237823 1.88767 -2.02945 1.96475 0.102593 -2.63469 
2.04853 0.145197 -2.57072 2.1193 0.18172 -2.48393 2.18181 0.21309 -2.35724 
2.26109 0.241256 -2.19401 0.940232 -1.05326 -2.40528 0.911783 -1.12521 -2.27909 
0.87096 -1.18827 -2.20248 0.821654 -1.24144 -2.16074 0.775645 -1.27393 -2.11103 
0.745441 -1.27479 -2.00554 0.728646 -1.29913 -1.82749 2.29233 0.360868 -2.00278 
2.27549 0.428897 -2.0099 -0.942385 -0.0337496 -1.12919 -0.858749 -0.0729428 -1.01754 
-0.782803 -0.094305 -0.939585 -0.708963 -0.11216 -0.87081 -0.628618 -0.13433 -0.781184 
-0.529833 -0.168683 -0.649244 2.46354 0.157633 -1.77134 2.55284 0.0552638 -1.55213 
2.64733 -0.0414578 -1.34742 2.75689 -0.139031 -1.14275 2.41356 -0.618703 -1.81461 
2.43414 -0.567763 -1.79536 2.43896 -0.518123 -1.7569 2.43704 -0.468071 -1.71669 
2.46782 -0.421148 -1.67745 2.50336 -0.374517 -1.63945 2.55273 -0.332121 -1.58243 
2.60358 -0.294908 -1.49181 2.67539 -0.267457 -1.35007 2.7612 -0.249344 -1.15538 
0.830929 -1.45081 -1.39943 0.93804 -1.50846 -1.21168 1.0365 -1.54574 -1.04662 
1.12544 -1.57193 -0.923708 1.20946 -1.58513 -0.854082 0.669894 -1.34792 -1.4496 
0.630008 -1.3498 -1.34703 0.585342 -1.34973 -1.29456 0.535889 -1.33433 -1.26918 
0.488575 -1.29193 -1.24219 0.445976 -1.24029 -1.19928 0.408869 -1.19056 -1.13485 
0.373365 -1.14376 -1.06357 0.335105 -1.10556 -1.00087 0.290038 -1.07855 -0.96165 
0.242914 -1.03426 -0.934379 0.194825 -0.980682 -0.91299 0.147702 -0.936388 -0.885719 
0.102635 -0.909382 -0.846503 0.0643741 -0.871174 -0.783797 0.028871 -0.824375 -0.71252 
-0.00989077 -0.773311 -0.655187 -0.0557354 -0.716052 -0.633716 -0.100781 -0.653187 -0.650177 
-0.134727 -0.588736 -0.68464 -0.181544 -0.524631 -0.70819 -0.230931 -0.464893 -0.700893 
-0.275614 -0.40952 -0.66713 -0.315582 -0.356552 -0.611734 -0.357989 -0.296009 -0.551822 
-0.414719 1.38156 -0.520449 -0.398923 1.2955 -0.392307 -0.401117 1.22098 -0.275717 
-0.385017 1.14435 -0.148583 -0.342215 -0.175462 -0.356561 -0.275322 -0.138611 -0.242932 
-0.218787 -0.103146 -0.139847 -0.146446 -0.0692776 -0.0410025 -0.0649717 -0.0356305 0.0529385 
0.0146999 0.000180408 0.132225 0.0923345 0.0335144 0.20384 0.167823 0.045392 0.272249 
0.241098 0.0162842 0.341769 0.312136 0.00265283 0.399082 0.380158 0.0156808 0.43857 
0.441737 0.0211184 0.455109 0.503505 0.0284552 0.471934 0.571112 0.0562544 0.506362 
0.64048 0.0827043 0.547872 0.705599 0.0856643 0.578578 0.764241 0.0807087 0.586286 
0.819153 0.0763317 0.579545 0.872283 0.0730859 0.565699 0.925413 0.0698401 0.551854 
0.978542 0.0665942 0.538009 1.03167 0.0633484 0.524164 1.0848 0.0601026 0.510318 
1.13969 0.0555087 0.503545 1.1997 0.0452984 0.517739 1.2674 0.0172603 0.565609 
2.90047 -0.33137 -0.701151 2.89554 -0.4155 -0.509403 2.86807 -0.487508 -0.383486 
2.82222 -0.547312 -0.326981 2.7659 -0.600889 -0.309365 2.70243 -0.656044 -0.30315 
2.9854 -0.24815 -0.831731 3.07672 -0.230634 -0.731444 3.16241 -0.202416 -0.63176 
3.24353 -0.182015 -0.543917 3.32301 -0.18706 -0.456243 3.4021 -0.195925 -0.369133 
3.48489 -0.20578 -0.267643 1.33362 -1.62114 -0.96111 1.35547 -1.62022 -1.11355 
1.37164 -1.60072 -1.27681 1.39467 -1.58309 -1.41114 1.43011 -1.57383 -1.49582 
1.47635 -1.57022 -1.53772 1.52888 -1.5605 -1.55689 1.58469 -1.537 -1.56673 
1.63918 -1.5266 -1.57853 1.69369 -1.51611 -1.59031 1.75147 -1.49184 -1.59276 
1.81245 -1.47343 -1.58155 1.88024 -1.44383 -1.54685 1.94963 -1.41716 -1.50531 
2.01672 -1.41344 -1.46722 2.08205 -1.40836 -1.43619 2.1534 -1.38103 -1.38729 
2.22935 -1.34454 -1.32244 2.30717 -1.30852 -1.24266 2.37161 -1.27044 -1.16691 
2.40646 -1.22942 -1.091 2.42014 -1.18598 -1.01712 2.42707 -1.14212 -0.941491 
2.46482 -1.10015 -0.873881 2.50548 -1.05835 -0.807029 2.54146 -1.01514 -0.746507 
2.54474 -0.968799 -0.685014 2.55114 -0.921516 -0.631881 2.56834 -0.876711 -0.568971 
2.59025 -0.833178 -0.491965 2.61337 -0.784555 -0.396304 2.57464 -0.675281 -0.197141 
2.53585 -0.666275 -0.0929371 2.50823 -0.666303 0.0249601 2.48132 -0.652798 0.137309 
2.4453 -0.648963 0.216674 2.39945 -0.648666 0.259161 2.3483 -0.644653 0.280395 
2.29635 -0.629568 0.296014 2.24608 -0.597772 0.314139 2.19531 -0.570956 0.331517 
2.14524 -0.537152 0.349942 2.09467 -0.508329 0.36762 2.04578 -0.462795 0.387804 
1.99788 -0.407321 0.409477 1.95016 -0.350055 0.431418 1.90245 -0.292682 0.453376 
1.85474 -0.235309 0.475333 1.80714 -0.177941 0.497264 1.7613 -0.120682 0.518735 
1.72509 -0.0641201 0.537676 1.70333 -0.0103519 0.552519 1.66578 0.0326775 0.569429 
3.59339 -0.322298 -0.106041 3.6472 -0.392378 -0.0465493 3.71438 -0.462493 0.0173205 
3.78108 -0.518406 0.0683226 3.84543 -0.542057 0.102314 3.90682 -0.538529 0.118567 
3.96929 -0.505211 0.132012 4.03295 -0.460054 0.147232 4.09316 -0.410514 0.148598 
4.14807 -0.358278 0.136264 4.18969 -0.302969 0.112306 4.21668 -0.247898 0.0997099 
4.25043 -0.194369 0.0928908 4.28096 -0.141776 0.0944607 4.32789 -0.0901837 0.0917563 
4.38374 -0.0385721 0.0829579 4.43931 0.014754 0.0629013 4.49079 0.0711578 0.0250571 
3.58524 -0.17669 -0.326348 3.61369 -0.104741 -0.452532 3.65275 -0.0403362 -0.536216 
3.69872 0.0173205 -0.591827 3.74369 0.0650375 -0.648929 3.78697 0.0959468 -0.708559 
3.83236 0.128882 -0.760602 3.88323 0.141979 -0.786518 3.94137 0.150776 -0.77627 
4.00298 0.177569 -0.717286 4.05996 0.210691 -0.617305 4.13707 0.240994 -0.499629 
4.22542 0.267567 -0.377654 4.31332 0.28102 -0.261742 4.39545 0.257907 -0.16241 
4.46953 0.199496 -0.0865898 
LINES 29 399
3 32 33 31 
10 30 34 35 36 37 38 39 40 41 26 
4 29 42 43 24 
3 28 44 25 
3 28 45 25 
33 28 46 47 48 49 50 51 52 53 54 55 56 57 58 59 60 61 62 63 64 65 66 67 68 69 70 71 72 73 74 75 76 17 
4 21 77 78 27 
3 25 79 24 
15 24 80 81 82 83 84 85 86 87 88 89 90 91 92 16 
7 21 93 94 95 96 97 22 
6 21 98 99 100 101 20 
4 23 102 103 18 
21 18 104 105 106 107 108 109 110 111 112 113 114 115 116 117 118 119 120 121 122 17 
27 20 123 124 125 126 127 128 129 130 131 132 133 134 135 136 137 138 139 140 141 142 143 144 145 146 147 14 
3 20 148 19 
7 18 149 150 151 152 153 12 
9 17 154 155 156 157 158 159 160 10 
4 12 161 162 15 
8 13 163 164 165 166 167 168 8 
6 12 169 170 171 172 6 
12 11 173 174 175 176 177 178 179 180 181 182 6 
27 10 188 189 190 191 192 193 194 195 196 197 198 199 200 201 202 203 204 205 206 207 208 209 210 211 212 8 
6 9 213 214 215 216 7 
28 8 217 218 219 220 221 222 223 224 225 226 227 228 229 230 231 232 233 234 235 236 237 238 239 240 241 242 1 
8 6 243 244 245 246 247 248 4 
9 6 249 250 251 252 253 254 255 3 
24 4 287 288 289 290 291 292 293 294 295 296 297 298 299 300 301 302 303 304 305 306 307 308 2 
39 10 183 184 185 186 187 5 256 257 258 259 260 261 262 263 264 265 266 267 268 269 270 271 272 273 274 275 276 277 278 279 280 281 282 283 284 285 286 4 
37 3 309 310 311 312 313 314 315 316 317 318 319 320 321 322 323 324 325 326 0 342 341 340 339 338 337 336 335 334 333 332 331 330 329 328 327 3 

POINT_DATA 343
SCALARS DY_raw double
LOOKUP_TABLE default
87.6335 140.264 162.371 133.156 154.123 95.7484 92.032 165.774 88.429 
73.1016 77.0273 109.72 100.238 133.38 125.021 245.915 148 74.3335 
105.878 222.188 119.159 114.676 195.468 145.447 143.978 187.847 201.663 
311.884 136.692 177.584 214.358 183.564 145.491 183.564 183.252 203.496 
186.757 220.663 197.05 188.053 182.24 207.986 149.93 153.608 179.897 
162.989 170.948 205.651 199.994 151.959 151.959 132.276 132.761 140.257 
171.981 175.108 171.499 158.824 135.522 130.052 128.899 123.022 122.944 
112.887 119.036 122.06 118.58 120.404 124.608 136.916 146.666 143.102 
145.101 129.677 126.688 91.4814 85.5207 142.784 208.786 144.43 160.03 
155.097 160.578 154.084 147.832 138.936 129.385 128.456 119.018 122.986 
125.395 130.796 130.796 109.079 114.928 117.268 159.629 186.227 131.391 
147.012 140.438 123.948 130.596 112.799 122.112 145.264 149.166 146.243 
130.134 119.32 111.93 101.685 110.779 85.4715 109.247 109.258 96.0711 
119.206 107.44 78.3282 76.82 74.7259 67.5188 126.997 116.286 98.3787 
98.2285 88.6464 96.1918 107.729 116.992 127.344 113.688 113.005 113.005 
125.615 132.258 117.309 128.255 116.573 119.553 111.914 113.5 108.831 
110.053 110.053 110.588 107.163 151.005 111.601 126.271 123.935 105.946 
108.431 86.4526 78.7784 102.62 94.5046 88.5763 83.0294 80.4381 120.316 
123.682 129.511 126.296 84.8383 79.5844 77.8941 80.2324 117.154 107.612 
96.8796 84.2247 95.0328 109.034 123.805 129.935 134.672 113.379 120.208 
95.1299 92.5734 83.7464 78.9544 89.8066 85.3526 97.5985 97.9542 79.3899 
90.6809 102.819 109.721 114.589 131.304 127.701 118.015 112.961 102.869 
106.629 106.629 109.342 111.835 115.829 127.987 130.985 136.502 139.2 
154.762 156.14 152.923 105.689 92.3609 82.2165 73.9199 81.7156 88.9775 
98.2796 87.6815 97.3687 99.958 95.0146 96.0921 95.3615 100.161 106.247 
90.1173 102.653 100.024 92.6722 102.758 94.4694 101.249 101.249 90.001 
90.7773 90.7773 87.645 87.645 92.0016 94.1211 81.3527 102.099 115.947 
116.62 132.238 163.669 152.5 147.694 146 91.8911 110.174 107.321 
114.692 112.843 123.717 137.263 86.4868 91.8813 99.6262 106.566 113.834 
113.834 121.673 125.37 142.741 125.113 125.113 117.841 105.276 126.41 
101.537 101.121 140.441 139.814 125.318 105.265 121.839 134.43 157.832 
176.688 170.195 151.276 151.623 151.623 153.382 171.223 164.109 163.265 
174.443 161.879 126.415 108.695 111.34 99.9571 94.2815 94.2815 94.7027 
94.7027 99.248 91.6184 91.9354 97.5901 95.5061 92.5063 95.7152 96.4987 
99.0684 110.425 140.996 111.24 143.401 139.835 143.126 152.511 139.236 
130.042 138.477 138.914 166.859 154.275 126.979 138.73 119.535 120.125 
112.122 92.4766 91.72 107.814 98.7728 104.444 116.621 124.788 102.387 
88.8198 96.2377 104.745 111.395 116.247 105.298 101.386 123.526 119.053 
96.9769 
FIELD FieldData 7
DY_minmax 1 343 double
0.0823143 0.297691 0.38816 0.268603 0.354407 0.115522 0.100314 0.402083 0.0855694 
0.0228462 0.038911 0.172697 0.133893 0.269519 0.235311 0.73004 0.329348 0.0278876 
0.156974 0.632943 0.211324 0.192977 0.523601 0.318903 0.31289 0.492412 0.548951 
1 0.283072 0.450414 0.600903 0.474886 0.31908 0.474886 0.473607 0.556453 
0.487953 0.626705 0.530074 0.493257 0.469466 0.574825 0.337245 0.352297 0.45988 
0.390686 0.423258 0.565271 0.542122 0.34555 0.34555 0.265 0.266989 0.297661 
0.427484 0.44028 0.425513 0.373642 0.278284 0.255901 0.251182 0.227132 0.226812 
0.185658 0.210822 0.223196 0.208955 0.216417 0.233624 0.283991 0.323888 0.309305 
0.317484 0.254366 0.242136 0.0980608 0.073668 0.308005 0.578099 0.31474 0.378577 
0.358391 0.380822 0.354247 0.32866 0.292255 0.253171 0.249368 0.210749 0.226987 
0.236844 0.258945 0.258945 0.170073 0.194009 0.203586 0.376936 0.485783 0.261379 
0.325305 0.298402 0.230922 0.258127 0.185298 0.223407 0.31815 0.334118 0.322156 
0.256236 0.211983 0.18174 0.139818 0.177032 0.0734669 0.170761 0.170806 0.116843 
0.211518 0.163366 0.0442349 0.0380627 0.0294933 0 0.243398 0.199568 0.126286 
0.125672 0.086459 0.117337 0.164551 0.202458 0.24482 0.188937 0.186142 0.186142 
0.237743 0.264929 0.203755 0.248545 0.20074 0.212936 0.181674 0.188166 0.16906 
0.174062 0.174062 0.176248 0.162234 0.341646 0.180396 0.240429 0.230869 0.157255 
0.167422 0.0774817 0.0460772 0.143641 0.110432 0.0861723 0.063473 0.0528689 0.21606 
0.229833 0.253689 0.240531 0.0708755 0.0493752 0.0424584 0.0520271 0.203119 0.16407 
0.120151 0.0683646 0.112594 0.16989 0.230338 0.255421 0.274807 0.187671 0.215618 
0.112991 0.10253 0.0664071 0.0467973 0.091207 0.0729802 0.123093 0.124549 0.0485793 
0.094785 0.144458 0.172701 0.192622 0.261023 0.246282 0.206642 0.185961 0.144662 
0.160047 0.160047 0.171153 0.181351 0.197695 0.247449 0.25972 0.282297 0.293338 
0.35702 0.362659 0.349495 0.156203 0.10166 0.0601464 0.026195 0.0580969 0.0878143 
0.125881 0.0825105 0.122153 0.132749 0.112519 0.116929 0.113939 0.13358 0.158486 
0.0924785 0.143779 0.133021 0.102934 0.144206 0.110288 0.138032 0.138032 0.0920024 
0.0951795 0.0951795 0.0823614 0.0823614 0.10019 0.108863 0.0566118 0.141511 0.198181 
0.200935 0.264846 0.393469 0.347762 0.328098 0.321165 0.0997371 0.174554 0.162879 
0.193045 0.185479 0.229977 0.28541 0.0776216 0.0996971 0.131391 0.15979 0.189534 
0.189534 0.221613 0.236742 0.307829 0.23569 0.23569 0.205932 0.154512 0.240999 
0.139209 0.137507 0.298415 0.295851 0.236527 0.154468 0.222291 0.273816 0.369582 
0.446745 0.420177 0.342755 0.344176 0.344176 0.351374 0.424382 0.395272 0.391816 
0.43756 0.386144 0.241018 0.168501 0.179326 0.132745 0.10952 0.10952 0.111243 
0.111243 0.129843 0.0986214 0.0999185 0.123059 0.114531 0.102255 0.115386 0.118593 
0.129108 0.175582 0.300688 0.17892 0.310526 0.295937 0.309402 0.347807 0.293483 
0.255861 0.290377 0.292168 0.406526 0.355029 0.243327 0.291413 0.212863 0.215278 
0.182526 0.102133 0.0990372 0.164899 0.127899 0.151108 0.200939 0.234361 0.14269 
0.0871689 0.117525 0.152338 0.179551 0.199408 0.154603 0.138593 0.229196 0.210889 
0.12055 
WidthEq 1 343 double
4.14037 1.94793 2.09572 3.61287 2.77748 5.59252 6.21855 2.56527 6.75067 
7.75257 5.24691 4.03195 4.82968 1.80976 3.00122 1 3.23693 5.48951 
4.03045 1.85624 3.80949 3.3215 1.89476 1.38555 2.69989 2.08412 1.48721 
1.02719 2.61724 1.82001 1.64339 2.02275 2.65931 2.02275 1.98516 1.88728 
1.98972 1.73565 1.93334 2.00908 2.04596 1.83154 2.58905 2.55303 2.28344 
2.33363 2.16876 2.10013 2.12063 2.62087 2.62087 2.84433 2.75513 2.57154 
2.39506 2.2796 2.34103 2.5652 2.92569 2.88704 3.19386 3.24654 3.29993 
3.41425 3.26476 3.21707 3.08345 3.08807 3.05433 2.90042 2.75385 2.81244 
2.58513 2.81457 3.04223 4.47943 4.74382 2.40268 1.56402 2.64415 2.54406 
2.65205 2.46967 2.41293 2.52534 2.69056 3.11285 3.39639 3.8013 3.84437 
3.99294 3.89833 3.89833 3.52915 3.3625 2.97809 2.38431 2.00994 3.33346 
3.07754 3.28028 3.62091 2.28985 3.34307 3.55941 3.06309 2.86839 2.66636 
2.62849 2.75121 2.74936 2.857 2.89644 3.33965 3.02009 2.99873 3.34976 
2.96784 3.47605 4.92421 5.31795 6.16138 6.30084 3.86494 4.17973 4.49858 
4.4627 4.68474 4.59889 4.44647 3.85362 3.61159 4.13538 4.03729 4.03729 
3.60511 3.4359 3.83426 3.54673 3.6847 3.68427 3.88367 3.85291 4.21134 
4.14912 4.14912 3.91648 3.63693 3.1147 3.96425 3.63586 3.61386 3.57478 
3.97087 4.82918 5.41512 4.12869 4.13012 3.99187 4.31492 4.81693 3.69331 
2.94477 2.35612 3.37774 5.69183 6.97769 7.2838 7.09906 4.63975 5.28748 
5.30891 6.28859 4.16756 3.88132 3.61208 3.46693 3.28832 3.74015 3.68697 
4.81053 5.49407 6.20666 5.99352 5.39398 5.68307 5.34265 5.39206 5.31888 
5.13101 4.34019 4.09744 3.50737 3.06415 3.17784 3.16659 3.33367 3.42771 
3.77567 3.77567 3.69815 4.13239 4.10905 3.95115 3.76856 3.51954 3.55563 
3.06487 2.99895 2.80268 3.91577 5.08175 6.33067 7.52605 6.93619 6.02214 
4.48043 6.44748 5.9496 5.30948 4.68944 4.97205 4.92101 4.63299 4.37842 
4.65199 4.26722 4.38048 4.545 4.33286 4.25477 3.90616 3.90616 3.83668 
3.75033 3.75033 3.71139 3.71139 3.43369 3.01511 3.36442 2.77079 2.21795 
4.42611 3.39831 2.54327 2.71847 2.93353 2.94605 5.68984 4.43359 4.5262 
3.85968 3.70926 3.56503 3.46288 5.89749 5.47549 4.45089 3.70086 3.3934 
3.3934 3.12374 3.25408 3.03041 3.52317 3.52317 3.78386 4.15816 3.99465 
4.41373 4.55589 3.89328 3.78813 3.98774 4.27078 4.18187 3.93919 3.18596 
2.78766 2.65369 2.71626 2.64507 2.64507 2.7053 2.64272 2.68458 2.46945 
2.0881 2.03977 2.48376 3.37354 3.13684 3.67573 3.87377 3.87377 3.87882 
3.87882 3.46138 3.39304 3.28149 3.23429 3.35659 3.35161 3.00229 3.22611 
3.15414 3.0077 2.5289 4.08363 3.46857 3.27167 3.15293 3.01838 3.14075 
2.86426 2.66821 2.49359 1.87304 1.89262 1.96146 1.96039 2.22834 2.43842 
2.87487 3.28099 3.96909 3.98838 3.67829 3.58397 3.41632 3.29914 3.37254 
3.5147 3.05177 3.05042 2.7772 2.66436 3.03048 3.21144 2.72302 3.05533 
3.8223 
rRFP 1 343 double
2798.7 2490.72 2511.48 2724.6 2607.25 3002.69 3090.63 2577.44 3165.38 
3306.12 2954.14 2783.47 2895.53 2471.31 2638.68 2357.56 2671.79 2988.22 
2783.26 2477.84 2752.22 2683.67 2483.25 2411.72 2596.35 2509.85 2426 
2361.38 2584.74 2472.75 2447.94 2501.23 2590.65 2501.23 2495.95 2482.2 
2496.59 2460.9 2488.67 2499.31 2504.49 2474.37 2580.78 2575.72 2537.85 
2544.9 2521.74 2512.1 2514.98 2585.25 2585.25 2616.64 2604.11 2578.32 
2553.53 2537.31 2545.94 2577.43 2628.07 2622.64 2665.74 2673.14 2680.64 
2696.7 2675.7 2669 2650.23 2650.88 2646.14 2624.52 2603.93 2612.16 
2580.23 2612.46 2644.44 2846.33 2883.47 2554.6 2436.79 2588.52 2574.46 
2589.63 2564.01 2556.04 2571.83 2595.04 2654.36 2694.19 2751.07 2757.12 
2777.99 2764.7 2764.7 2712.84 2689.43 2635.43 2552.02 2499.43 2685.35 
2649.4 2677.88 2725.73 2538.75 2686.7 2717.09 2647.37 2620.02 2591.64 
2586.32 2603.56 2603.3 2618.42 2623.96 2686.22 2641.33 2638.33 2687.64 
2633.99 2705.38 2908.81 2964.12 3082.6 3102.19 2760.01 2804.23 2849.02 
2843.98 2875.17 2863.11 2841.7 2758.42 2724.42 2798 2784.22 2784.22 
2723.51 2699.74 2755.7 2715.31 2734.69 2734.63 2762.64 2758.32 2808.67 
2799.93 2799.93 2767.25 2727.98 2654.62 2773.96 2727.83 2724.74 2719.25 
2774.89 2895.46 2977.77 2797.06 2797.26 2777.84 2823.22 2893.74 2735.9 
2630.75 2548.06 2691.57 3016.64 3197.27 3240.27 3214.32 2868.85 2959.84 
2962.85 3100.47 2802.52 2762.31 2724.49 2704.1 2679.01 2742.48 2735.01 
2892.84 2988.86 3088.96 3059.02 2974.8 3015.41 2967.59 2974.53 2964.25 
2937.86 2826.77 2792.67 2709.78 2647.52 2663.49 2661.91 2685.38 2698.59 
2747.47 2747.47 2736.58 2797.58 2794.3 2772.12 2746.47 2711.49 2716.56 
2647.62 2638.36 2610.79 2767.15 2930.94 3106.38 3274.3 3191.44 3063.04 
2846.47 3122.79 3052.85 2962.93 2875.83 2915.53 2908.36 2867.9 2832.14 
2870.57 2816.52 2832.43 2855.54 2825.74 2814.77 2765.8 2765.8 2756.04 
2743.91 2743.91 2738.44 2738.44 2699.43 2640.63 2689.7 2606.31 2528.65 
2838.84 2694.46 2574.35 2598.96 2629.17 2630.93 3016.36 2839.89 2852.9 
2759.27 2738.14 2717.88 2703.53 3045.53 2986.25 2842.32 2736.96 2693.77 
2693.77 2655.89 2674.2 2642.78 2712 2712 2748.62 2801.2 2778.23 
2837.1 2857.07 2763.99 2749.22 2777.26 2817.02 2804.53 2770.44 2664.63 
2608.68 2589.86 2598.65 2588.65 2588.65 2597.11 2588.32 2594.2 2563.98 
2510.41 2503.62 2565.99 2690.98 2657.73 2733.43 2761.25 2761.25 2761.96 
2761.96 2703.32 2693.72 2678.05 2671.42 2688.6 2687.9 2638.83 2670.27 
2660.16 2639.59 2572.33 2790.73 2704.33 2676.67 2659.99 2641.09 2658.28 
2619.44 2591.9 2567.37 2480.2 2482.95 2492.62 2492.47 2530.11 2559.62 
2620.93 2677.98 2774.64 2777.35 2733.79 2720.54 2696.99 2680.53 2690.84 
2710.81 2645.78 2645.59 2607.21 2591.36 2642.79 2668.21 2599.6 2646.28 
2754.02 
rGFP 1 343 double
2633.04 2543.43 2610.49 2751.28 2698.28 2805.68 2842.51 2695.46 2867.16 
2836.93 2674.36 2712.59 2754.32 2511.59 2645.42 2516.12 2749.27 2678.26 
2696.94 2682.64 2724.14 2651.1 2640.57 2471.73 2658.93 2661.7 2570.12 
2590.57 2627.96 2593.41 2622.48 2641.51 2657.11 2641.51 2633.99 2654.26 
2641.8 2653.2 2651.17 2648.02 2643.06 2651.14 2658.38 2662.37 2680.99 
2650.56 2640.95 2702.1 2694.32 2668.47 2668.47 2646.44 2635.98 2630.88 
2682.11 2669.38 2671.69 2677.62 2666.7 2645.67 2681.89 2669.6 2675.91 
2655.63 2658.83 2662.88 2635.84 2642.02 2650.8 2667.32 2674.1 2672.67 
2645.31 2635.19 2655.62 2679.99 2675.9 2613.27 2596.75 2652.1 2677.33 
2681.53 2666.78 2642 2643.53 2644.02 2672.96 2706.49 2722.63 2743.01 
2770.9 2780.09 2780.09 2655.16 2656.65 2619.44 2650.81 2644.51 2708.19 
2722.64 2730.88 2719.01 2569.25 2647.3 2704.85 2715.16 2698.07 2660.14 
2612.26 2598.48 2577.94 2560.72 2591.07 2555.65 2600.14 2597.84 2592.02 
2623.99 2643.67 2655.91 2678.73 2730.62 2695.63 2761.04 2756.25 2712.77 
2708.57 2685.49 2712.58 2749.22 2721.05 2730.12 2740.35 2726.44 2726.44 
2723.06 2724.63 2720 2725.09 2699.74 2710.67 2704.84 2707.51 2728.53 
2726.83 2726.83 2703.32 2659.95 2740.54 2712.62 2729.31 2718.09 2648.94 
2700.77 2687.7 2696.8 2693.89 2660.52 2623.79 2628.47 2657.67 2714.57 
2634.42 2575.35 2696.8 2753.09 2825.52 2837.57 2839.78 2813.77 2839.2 
2784.53 2799.86 2666.26 2693.4 2717.4 2720.68 2713.05 2694.26 2713.41 
2727.83 2778.81 2789.99 2743.42 2754.62 2755.27 2791.64 2798.38 2692.47 
2735.49 2716.46 2719.78 2672.11 2672.54 2676.02 2643.91 2646.78 2622.81 
2672.8 2672.8 2674.57 2732.35 2746.15 2775.9 2763.83 2750.63 2765.15 
2744.53 2738.46 2698.8 2684.06 2739.56 2790.69 2826.53 2837 2806.04 
2710.54 2835.53 2849.51 2800.93 2715.77 2747.98 2739.48 2734.25 2735.4 
2689.43 2708.25 2708.36 2691.4 2715.44 2672.15 2665.7 2665.7 2615.51 
2610.65 2610.65 2595.49 2595.49 2586.11 2553.99 2543.91 2553.1 2527.37 
2786.38 2719.59 2686.46 2684.77 2703.47 2700.33 2793.05 2758.67 2755.96 
2712.88 2688.77 2711.26 2745.53 2780.26 2773.3 2713.63 2664.59 2656.49 
2656.49 2650.28 2678.17 2702.77 2711 2711 2716.1 2707.96 2775.17 
2718.36 2730.9 2816.98 2799.84 2769.94 2719.77 2779.72 2799.75 2773.05 
2762.75 2721.85 2681.11 2671.26 2671.26 2685.15 2722.7 2710.77 2673.38 
2634.46 2600.4 2584.19 2636.89 2619.46 2637.62 2635.43 2635.43 2637.54 
2637.54 2613.74 2581.07 2571.89 2585.84 2590.78 2580.25 2557.57 2581.52 
2582.68 2602.33 2626.77 2724.47 2767.6 2727.7 2721.47 2730.54 2707.51 
2642.68 2639.69 2616.6 2582.74 2562.19 2519.27 2542.17 2536.57 2563.12 
2592.54 2573.62 2634.25 2700.21 2633.52 2644.53 2668.62 2681.9 2615.51 
2582.38 2563.9 2589.72 2579.57 2579.93 2589.31 2595.8 2606.57 2633.95 
2640.88 
bkstRFP 1 343 double
581.614 273.634 294.394 507.514 390.164 785.604 873.544 360.354 948.294 
1089.03 737.054 566.384 678.444 254.224 421.594 140.474 454.704 771.134 
566.174 260.754 535.134 466.584 266.164 194.634 379.264 292.764 208.914 
144.294 367.654 255.664 230.854 284.144 373.564 284.144 278.864 265.114 
279.504 243.814 271.584 282.224 287.404 257.284 363.694 358.634 320.764 
327.814 304.654 295.014 297.894 368.164 368.164 399.554 387.024 361.234 
336.444 320.224 328.854 360.344 410.984 405.554 448.654 456.054 463.554 
479.614 458.614 451.914 433.144 433.794 429.054 407.434 386.844 395.074 
363.144 395.374 427.354 629.244 666.384 337.514 219.704 371.434 357.374 
372.544 346.924 338.954 354.744 377.954 437.274 477.104 533.984 540.034 
560.904 547.614 547.614 495.754 472.344 418.344 334.934 282.344 468.264 
432.314 460.794 508.644 321.664 469.614 500.004 430.284 402.934 374.554 
369.234 386.474 386.214 401.334 406.874 469.134 424.244 421.244 470.554 
416.904 488.294 691.724 747.034 865.514 885.104 542.924 587.144 631.934 
626.894 658.084 646.024 624.614 541.334 507.334 580.914 567.134 567.134 
506.424 482.654 538.614 498.224 517.604 517.544 545.554 541.234 591.584 
582.844 582.844 550.164 510.894 437.534 556.874 510.744 507.654 502.164 
557.804 678.374 760.684 579.974 580.174 560.754 606.134 676.654 518.814 
413.664 330.974 474.484 799.554 980.184 1023.18 997.234 651.764 742.754 
745.764 883.384 585.434 545.224 507.404 487.014 461.924 525.394 517.924 
675.754 771.774 871.874 841.934 757.714 798.324 750.504 757.444 747.164 
720.774 609.684 575.584 492.694 430.434 446.404 444.824 468.294 481.504 
530.384 530.384 519.494 580.494 577.214 555.034 529.384 494.404 499.474 
430.534 421.274 393.704 550.064 713.854 889.294 1057.21 974.354 845.954 
629.384 905.704 835.764 745.844 658.744 698.444 691.274 650.814 615.054 
653.484 599.434 615.344 638.454 608.654 597.684 548.714 548.714 538.954 
526.824 526.824 521.354 521.354 482.344 423.544 472.614 389.224 311.564 
621.754 477.374 357.264 381.874 412.084 413.844 799.274 622.804 635.814 
542.184 521.054 500.794 486.444 828.444 769.164 625.234 519.874 476.684 
476.684 438.804 457.114 425.694 494.914 494.914 531.534 584.114 561.144 
620.014 639.984 546.904 532.134 560.174 599.934 587.444 553.354 447.544 
391.594 372.774 381.564 371.564 371.564 380.024 371.234 377.114 346.894 
293.324 286.534 348.904 473.894 440.644 516.344 544.164 544.164 544.874 
544.874 486.234 476.634 460.964 454.334 471.514 470.814 421.744 453.184 
443.074 422.504 355.244 573.644 487.244 459.584 442.904 424.004 441.194 
402.354 374.814 350.284 263.114 265.864 275.534 275.384 313.024 342.534 
403.844 460.894 557.554 560.264 516.704 503.454 479.904 463.444 473.754 
493.724 428.694 428.504 390.124 374.274 425.704 451.124 382.514 429.194 
536.934 
bkstGFP 1 343 double
362.835 273.225 340.285 481.075 428.075 535.475 572.305 425.255 596.955 
566.725 404.155 442.385 484.115 241.385 375.215 245.915 479.065 408.055 
426.735 412.435 453.935 380.895 370.365 201.525 388.725 391.495 299.915 
320.365 357.755 323.205 352.275 371.305 386.905 371.305 363.785 384.055 
371.595 382.995 380.965 377.815 372.855 380.935 388.175 392.165 410.785 
380.355 370.745 431.895 424.115 398.265 398.265 376.235 365.775 360.675 
411.905 399.175 401.485 407.415 396.495 375.465 411.685 399.395 405.705 
385.425 388.625 392.675 365.635 371.815 380.595 397.115 403.895 402.465 
375.105 364.985 385.415 409.785 405.695 343.065 326.545 381.895 407.125 
411.325 396.575 371.795 373.325 373.815 402.755 436.285 452.425 472.805 
500.695 509.885 509.885 384.955 386.445 349.235 380.605 374.305 437.985 
452.435 460.675 448.805 299.045 377.095 434.645 444.955 427.865 389.935 
342.055 328.275 307.735 290.515 320.865 285.445 329.935 327.635 321.815 
353.785 373.465 385.705 408.525 460.415 425.425 490.835 486.045 442.565 
438.365 415.285 442.375 479.015 450.845 459.915 470.145 456.235 456.235 
452.855 454.425 449.795 454.885 429.535 440.465 434.635 437.305 458.325 
456.625 456.625 433.115 389.745 470.335 442.415 459.105 447.885 378.735 
430.565 417.495 426.595 423.685 390.315 353.585 358.265 387.465 444.365 
364.215 305.145 426.595 482.885 555.315 567.365 569.575 543.565 568.995 
514.325 529.655 396.055 423.195 447.195 450.475 442.845 424.055 443.205 
457.625 508.605 519.785 473.215 484.415 485.065 521.435 528.175 422.265 
465.285 446.255 449.575 401.905 402.335 405.815 373.705 376.575 352.605 
402.595 402.595 404.365 462.145 475.945 505.695 493.625 480.425 494.945 
474.325 468.255 428.595 413.855 469.355 520.485 556.325 566.795 535.835 
440.335 565.325 579.305 530.725 445.565 477.775 469.275 464.045 465.195 
419.225 438.045 438.155 421.195 445.235 401.945 395.495 395.495 345.305 
340.445 340.445 325.285 325.285 315.905 283.785 273.705 282.895 257.165 