# vtk DataFile Version 3.0
vtk output
ASCII
DATASET POLYDATA
POINTS 410 float
2.8739 0.983582 1.88508 1.08765 -0.180277 1.17764 2.90384 -0.35475 1.06081 
0.320437 -0.205089 0.602847 3.36248 1.75479 0.768016 0.756491 -0.28143 -0.0390864 
3.68794 0.806782 -0.075774 -0.593553 0.350969 -0.480052 3.73447 0.753252 -0.627392 
5.32203 -0.0193612 -0.980969 4.254 0.335043 -1.0578 5.58374 0.313156 -1.05879 
6.07746 0.220458 -1.03021 6.13125 0.683837 -1.12758 0.193078 -0.049272 -0.988253 
-0.437378 0.753785 -0.828726 2.27595 -0.246254 -1.18934 4.24785 0.0622222 -1.16881 
3.44443 0.768551 -1.01632 5.81236 -0.0500972 -1.39856 5.99134 -0.0149193 -1.2665 
-0.522237 0.639846 -1.04562 5.63604 -0.0496524 -1.72785 0.10233 0.232709 -1.34421 
0.423204 0.377651 -1.33668 0.24857 0.912416 -1.24245 5.44924 -0.0985608 -2.26731 
5.50096 -0.127445 -2.23191 5.5576 -0.149395 -2.14306 5.61209 -0.130823 -1.97001 
5.74706 -0.0758139 -1.57223 0.297132 0.978051 -1.23431 0.332332 1.03176 -1.22743 
0.370943 1.07502 -1.22238 0.430375 1.10745 -1.22761 0.489122 1.14212 -1.24746 
0.526535 1.18944 -1.27927 0.564045 1.2367 -1.31107 0.624865 1.26935 -1.32385 
0.695646 1.29404 -1.31584 0.759928 1.31988 -1.29231 0.809289 1.35313 -1.28189 
0.866498 1.37436 -1.29631 0.924604 1.38128 -1.33559 0.991237 1.40078 -1.37329 
1.06324 1.4267 -1.39519 1.13714 1.45071 -1.39496 1.21175 1.47237 -1.38012 
1.2859 1.49127 -1.35819 1.35472 1.50359 -1.35207 1.41505 1.50319 -1.3626 
1.47618 1.50807 -1.38734 1.53076 1.49841 -1.40658 1.58648 1.4891 -1.41831 
1.65318 1.49919 -1.41996 1.71989 1.50927 -1.4216 1.77597 1.49879 -1.42603 
1.83126 1.48679 -1.43066 1.89342 1.48807 -1.43349 1.95312 1.4846 -1.43697 
2.01439 1.48416 -1.44004 2.06425 1.46165 -1.44609 2.10799 1.42729 -1.45373 
2.16931 1.42695 -1.45679 2.23597 1.43694 -1.45845 2.29656 1.43518 -1.4617 
2.35871 1.43645 -1.46453 2.41312 1.42275 -1.46939 2.46412 1.40058 -1.46793 
2.5192 1.38444 -1.45819 2.5815 1.38041 -1.43936 2.63617 1.36534 -1.43693 
2.68558 1.34381 -1.45031 2.73385 1.32194 -1.4712 2.78397 1.29806 -1.46996 
2.84043 1.27714 -1.43102 2.90518 1.26482 -1.36105 2.9629 1.23518 -1.2785 
3.01081 1.19025 -1.21294 3.0499 1.13386 -1.17131 3.09437 1.09533 -1.15713 
3.14226 1.06526 -1.14927 3.18756 1.02834 -1.13487 3.23081 0.981845 -1.09938 
3.28366 0.952081 -1.05415 3.32685 0.905487 -1.01867 3.37128 0.866868 -1.0045 
3.41337 0.827449 -1.00536 0.278054 0.822357 -1.25832 0.304753 0.74502 -1.27202 
0.334205 0.681754 -1.2836 0.368651 0.633518 -1.29302 0.387308 0.576407 -1.30308 
0.387933 0.517205 -1.3126 0.401203 0.449669 -1.32407 0.147423 0.882624 -1.20472 
0.0647983 0.858001 -1.1896 -0.00430449 0.846221 -1.18811 -0.0596806 0.858214 -1.18348 
-0.108993 0.874341 -1.14844 -0.162143 0.879313 -1.09997 -0.227229 0.859327 -1.04742 
-0.297749 0.828825 -0.996279 -0.368074 0.79311 -0.923458 0.386766 0.326876 -1.28295 
0.326921 0.290765 -1.24825 0.254782 0.265753 -1.24873 0.179141 0.247451 -1.28552 
0.489909 0.387732 -1.33833 0.546038 0.37735 -1.34274 0.602118 0.36687 -1.34717 
0.667993 0.375346 -1.34903 0.729736 0.377689 -1.35919 0.777315 0.354484 -1.38025 
0.832961 0.34875 -1.40643 0.886135 0.33451 -1.41882 0.937089 0.312248 -1.41737 
0.992527 0.29494 -1.40033 1.05411 0.293239 -1.3961 1.10771 0.281696 -1.4156 
1.15538 0.26611 -1.46549 1.20269 0.251697 -1.5227 1.25486 0.244826 -1.57141 
1.31501 0.247816 -1.5964 1.36938 0.23402 -1.60127 1.42074 0.210676 -1.59251 
1.47658 0.192294 -1.56815 1.54012 0.188793 -1.54177 1.60165 0.179561 -1.50871 
1.66519 0.176059 -1.48234 1.72093 0.157483 -1.458 1.77053 0.130735 -1.44969 
1.81439 0.0947384 -1.45009 1.85093 0.0464431 -1.45962 1.89443 0.0116173 -1.46733 
1.94367 -0.0139617 -1.46632 1.99901 -0.0314637 -1.44931 2.06233 -0.0391047 -1.40857 
2.11855 -0.0637414 -1.35769 2.16687 -0.108311 -1.3021 2.21274 -0.175309 -1.24748 
0.0356763 0.222724 -1.34254 -0.0191664 0.233736 -1.33058 -0.0679067 0.252833 -1.30261 
-0.114694 0.270121 -1.25249 -0.161432 0.287505 -1.20235 -0.208885 0.307231 -1.16682 
-0.257767 0.331638 -1.16052 -0.3067 0.35595 -1.15423 -0.355748 0.376315 -1.13355 
-0.40756 0.382015 -1.07753 -0.464496 0.368489 -0.986778 -0.512376 0.361311 -0.850386 
-0.553915 0.357093 -0.676285 0.132579 0.138716 -1.22556 0.162829 0.0447209 -1.1069 
5.90681 -0.0300342 -1.33738 5.72769 -0.0166342 -1.54678 5.5403 -0.0627574 -1.42797 
5.47802 -0.0691121 -1.20061 5.4153 -0.0563689 -1.06344 -0.49395 0.677826 -0.973317 
-0.465664 0.715806 -0.901026 6.24758 0.751462 -1.17626 6.32253 0.804726 -1.25777 
6.36254 0.84983 -1.37768 6.40047 0.865562 -1.52097 6.4429 0.862637 -1.64368 
6.48899 0.851685 -1.7228 6.54099 0.840771 -1.75713 6.59637 0.830801 -1.76895 
6.63733 0.791287 -1.77729 6.67357 0.746601 -1.78622 6.69223 0.689725 -1.79625 
6.69114 0.631378 -1.80555 6.69372 0.569181 -1.81564 6.68993 0.510037 -1.82493 
6.69101 0.447477 -1.82749 6.6777 0.390112 -1.8135 6.65649 0.333718 -1.77644 
6.63403 0.276959 -1.73186 6.61146 0.22025 -1.68726 6.58844 0.164761 -1.64997 
6.56416 0.108909 -1.60516 6.5309 0.0575374 -1.55918 6.4821 0.0149179 -1.51856 
6.4351 -0.0256187 -1.50023 6.37224 -0.0561383 -1.49453 6.30094 -0.0793021 -1.49475 
6.23376 -0.092403 -1.48605 6.17875 -0.0854433 -1.45971 6.12653 -0.0786692 -1.41101 
6.0732 -0.0759086 -1.35538 6.03341 -0.0450712 -1.30343 6.09093 0.594794 -1.32138 
6.05512 0.544364 -1.46666 6.01349 0.510928 -1.55009 5.95044 0.485312 -1.5824 
5.8783 0.4603 -1.58288 5.80607 0.430748 -1.54903 5.73575 0.393018 -1.45651 
5.66391 0.350155 -1.28711 5.98176 0.0508987 -1.25548 5.99487 0.104394 -1.24004 
6.01955 0.149131 -1.20403 6.04774 0.187161 -1.13173 4.20106 0.399163 -1.0099 
4.14 0.419997 -1.00357 4.08457 0.440892 -1.02254 4.03491 0.468283 -1.03324 
3.99337 0.501308 -1.00339 3.96476 0.551915 -0.941308 3.93691 0.600277 -0.864598 
3.89845 0.628078 -0.790661 3.85879 0.655443 -0.72425 3.82444 0.696804 -0.670882 
3.78206 0.728215 -0.641246 3.43349 0.71298 -1.02469 3.44317 0.647113 -1.03572 
3.45286 0.581247 -1.04675 3.44182 0.525724 -1.0551 3.42917 0.471009 -1.06325 
3.42826 0.410433 -1.07291 3.41378 0.356628 -1.08083 3.39034 0.307301 -1.08758 
3.36355 0.259647 -1.09391 3.32607 0.217327 -1.09885 3.26462 0.186976 -1.10071 
3.1942 0.161108 -1.10141 3.13094 0.131662 -1.10303 3.08115 0.0954931 -1.10639 
3.01951 0.0652356 -1.10822 2.95788 0.0349777 -1.11005 2.90809 -0.00119094 -1.11341 
2.84473 -0.030588 -1.11502 2.77249 -0.0555511 -1.11549 2.69864 -0.0797067 -1.11574 
2.62469 -0.103814 -1.11599 2.55084 -0.127969 -1.11624 2.47844 -0.152564 -1.11915 
2.41369 -0.180698 -1.1305 2.35661 -0.215371 -1.1558 3.52353 0.770958 -0.892122 
3.59741 0.766992 -0.783714 3.66326 0.753076 -0.699037 4.24121 0.255846 -1.10241 
4.24972 0.183289 -1.13698 4.25892 0.117478 -1.158 2.21597 -0.311358 -1.15678 
2.16909 -0.363047 -1.11771 2.11378 -0.392007 -1.06456 2.0562 -0.400497 -1.01553 
1.98973 -0.415939 -0.992225 1.92103 -0.424309 -1.01273 1.85736 -0.417328 -1.05357 
1.78799 -0.42326 -1.08867 1.72129 -0.433341 -1.08702 1.66823 -0.428182 -1.03854 
1.622 -0.41728 -0.959418 1.57735 -0.407014 -0.86547 1.53205 -0.394313 -0.786105 
1.48567 -0.378099 -0.728664 1.43786 -0.357202 -0.700447 1.38969 -0.335136 -0.679527 
1.34193 -0.314142 -0.651297 1.29602 -0.295152 -0.600948 1.25419 -0.270127 -0.542308 
1.21472 -0.240549 -0.483065 1.16108 -0.236527 -0.434736 1.1101 -0.229213 -0.378496 
1.06195 -0.216414 -0.321507 1.00921 -0.212523 -0.265729 0.944646 -0.229627 -0.220251 
0.879565 -0.249605 -0.167695 0.820907 -0.259013 -0.106246 -0.464719 0.795431 -0.723073 
-0.508361 0.807181 -0.643952 -0.561826 0.783655 -0.592532 -0.605967 0.739112 -0.537423 
-0.651469 0.691001 -0.467793 -0.670533 0.627584 -0.386903 -0.657624 0.551177 -0.332178 
-0.634648 0.475697 -0.322867 -0.613077 0.409845 -0.379534 6.04341 0.700713 -0.941571 
5.96917 0.680889 -0.817191 5.90898 0.645654 -0.764814 5.87037 0.602234 -0.756113 
5.83289 0.559919 -0.761059 5.78322 0.524682 -0.771788 5.74476 0.485829 -0.798661 
5.70511 0.450798 -0.849897 5.65289 0.4226 -0.914451 5.6139 0.37971 -0.987014 
5.4911 0.287603 -1.08589 5.41382 0.257053 -1.06447 5.3549 0.215059 -0.996341 
5.32273 0.158523 -0.933722 5.31035 0.0860591 -0.927825 4.34159 0.339411 -0.988791 
4.40581 0.319796 -0.93499 4.45808 0.288067 -0.892564 4.50418 0.249499 -0.865948 
4.54795 0.205874 -0.837524 4.60517 0.190147 -0.812801 4.66003 0.169869 -0.788692 
4.71051 0.144822 -0.780159 4.76068 0.121043 -0.778911 4.815 0.107149 -0.783795 
4.87622 0.106628 -0.786875 4.93059 0.0928312 -0.791746 4.98123 0.071828 -0.797589 
5.0356 0.0580315 -0.802461 5.0967 0.0583136 -0.811043 5.1529 0.046458 -0.838223 
5.22026 0.0216595 -0.89619 3.71628 0.7821 -0.353997 -0.554219 0.265245 -0.322968 
-0.504504 0.205199 -0.184807 -0.450474 0.159092 -0.0671643 -0.396635 0.118198 0.0288041 
-0.343106 0.0785735 0.117467 -0.290698 0.0423613 0.184213 -0.240142 0.00815372 0.22883 
-0.194383 -0.0297484 0.250561 -0.150975 -0.0722028 0.271677 -0.0930423 -0.0902701 0.311006 
-0.037104 -0.114062 0.35704 0.0147533 -0.143887 0.394782 0.0647589 -0.17171 0.410407 
0.114049 -0.197192 0.411425 0.164121 -0.220923 0.412686 0.218984 -0.236794 0.437501 
0.277471 -0.229384 0.503415 3.68779 0.865116 0.0637698 3.67443 0.925921 0.164295 
3.65255 0.991188 0.215874 3.62419 1.05088 0.244358 3.58911 1.09642 0.2759 
3.56201 1.15179 0.331159 3.53981 1.21482 0.394927 3.51804 1.28052 0.45158 
3.49437 1.34814 0.486101 3.46455 1.40757 0.504598 3.42208 1.44439 0.512576 
3.37506 1.4724 0.519364 3.33259 1.50922 0.527342 3.30297 1.56856 0.545814 
3.28283 1.63441 0.57988 3.28412 1.68872 0.633579 3.32379 1.72201 0.697057 
3.65 0.708724 0.115662 3.64498 0.61713 0.273976 3.6365 0.541625 0.392483 
3.62635 0.473348 0.474673 3.61831 0.406409 0.539443 3.58163 0.353768 0.607905 
3.54102 0.302099 0.684239 3.49446 0.252413 0.768675 3.46056 0.198386 0.836789 
3.42595 0.146702 0.890288 3.37714 0.104087 0.930907 3.33329 0.0580066 0.978242 
3.28348 0.0139066 1.0337 3.23853 -0.0336105 1.09588 3.17849 -0.0735916 1.16002 
3.10912 -0.10792 1.218 3.0375 -0.139147 1.26156 2.96654 -0.167719 1.28298 
2.90681 -0.198927 1.2809 2.88031 -0.242759 1.24513 2.88668 -0.298048 1.16837 
1.16568 -0.174357 1.27992 1.23808 -0.173739 1.3591 1.30167 -0.184585 1.41432 
1.36645 -0.187312 1.44827 1.42725 -0.193792 1.48182 1.48655 -0.179689 1.51122 
1.53698 -0.149949 1.54356 1.60096 -0.123087 1.55975 1.67267 -0.100997 1.56729 
1.74109 -0.087356 1.56613 1.8026 -0.0870877 1.56316 1.8694 -0.0726386 1.56221 
1.93188 -0.0449446 1.56359 1.98163 -0.0088727 1.56693 2.04326 0.021385 1.56876 
2.10525 0.0504719 1.5779 2.15603 0.0831736 1.60319 2.21971 0.106458 1.64886 
2.28213 0.129376 1.70206 2.32312 0.164983 1.74331 2.36232 0.206442 1.74803 
2.42045 0.243408 1.71357 2.47948 0.281909 1.66426 2.52714 0.325097 1.62379 
2.58941 0.358009 1.60349 2.66093 0.385314 1.58934 2.73397 0.41186 1.575 
2.80504 0.440383 1.55356 2.86613 0.471905 1.54811 2.9021 0.513862 1.56059 
2.91677 0.562453 1.59018 2.90074 0.616277 1.61461 2.86711 0.662066 1.63862 
2.83877 0.722036 1.66463 2.81732 0.787669 1.70624 2.8073 0.849618 1.7467 
2.82175 0.898474 1.79138 2.84679 0.942041 1.83469 
LINES 30 473
5 26 27 28 29 22 
3 22 30 19 
59 25 31 32 33 34 35 36 37 38 39 40 41 42 43 44 45 46 47 48 49 50 51 52 53 54 55 56 57 58 59 60 61 62 63 64 65 66 67 68 69 70 71 72 73 74 75 76 77 78 79 80 81 82 83 84 85 86 87 18 
9 25 88 89 90 91 92 93 94 24 
11 25 95 96 97 98 99 100 101 102 103 15 
6 24 104 105 106 107 23 
35 24 108 109 110 111 112 113 114 115 116 117 118 119 120 121 122 123 124 125 126 127 128 129 130 131 132 133 134 135 136 137 138 139 140 16 
15 23 141 142 143 144 145 146 147 148 149 150 151 152 153 7 
4 23 154 155 14 
3 19 156 20 
3 22 157 19 
5 22 158 159 160 9 
4 21 161 162 15 
33 13 163 164 165 166 167 168 169 170 171 172 173 174 175 176 177 178 179 180 181 182 183 184 185 186 187 188 189 190 191 192 193 20 
10 13 194 195 196 197 198 199 200 201 11 
6 20 202 203 204 205 12 
13 10 206 207 208 209 210 211 212 213 214 215 216 8 
27 18 217 218 219 220 221 222 223 224 225 226 227 228 229 230 231 232 233 234 235 236 237 238 239 240 241 16 
5 18 242 243 244 8 
5 10 245 246 247 17 
29 16 248 249 250 251 252 253 254 255 256 257 258 259 260 261 262 263 264 265 266 267 268 269 270 271 272 273 274 5 
11 15 275 276 277 278 279 280 281 282 283 7 
12 13 284 285 286 287 288 289 290 291 292 293 11 
7 11 294 295 296 297 298 9 
19 10 299 300 301 302 303 304 305 306 307 308 309 310 311 312 313 314 315 9 
3 8 316 6 
19 7 317 318 319 320 321 322 323 324 325 326 327 328 329 330 331 332 333 3 
19 6 334 335 336 337 338 339 340 341 342 343 344 345 346 347 348 349 350 4 
23 6 351 352 353 354 355 356 357 358 359 360 361 362 363 364 365 366 367 368 369 370 371 2 
40 1 372 373 374 375 376 377 378 379 380 381 382 383 384 385 386 387 388 389 390 391 392 393 394 395 396 397 398 399 400 401 402 403 404 405 406 407 408 409 0 

POINT_DATA 410
SCALARS DY_raw double
LOOKUP_TABLE default
105.534 108.81 111.644 121.317 100.369 148.819 107.983 83.807 101.188 
113.29 88.9386 117.859 129.472 110.883 146.04 92.6254 108.654 165.711 
87.2821 140.581 130.157 87.4894 158.264 98.1186 114.83 117.42 146.067 
153.463 158.629 154.544 140.998 117.783 116.296 126.286 123.522 125.601 
116.185 126.232 133.202 145.753 147.31 149.802 168.395 185.001 162.321 
149.351 142.749 168.137 169.948 156.393 168.902 168.902 161.316 161.345 
150.769 139.245 135.688 127.324 121.1 116.506 116.506 129.465 140.457 
121.173 127.736 118.032 116.777 109.854 104.937 113.167 116.268 116.268 
123.114 109.137 109.137 104.531 117.741 129.236 117.353 133.74 120.005 
124.023 124.023 108.115 106.96 116.21 99.8906 87.2821 116.072 122.583 
140.113 149.964 149.461 135.434 127.344 118.904 108.326 106.784 100.277 
83.2483 83.8839 74.5957 74.0955 80.4988 112.322 114.286 102.255 99.6492 
113.506 113.682 113.682 117.101 129.599 129.599 157.186 157.186 155.404 
175.113 175.113 166.246 155.78 150.791 140.466 125.585 125.585 123.97 
124.532 130.202 106.702 113.241 113.259 101.852 101.852 106.108 113.992 
113.992 106.911 103.091 95.2355 99.2149 101.329 96.5765 102.222 98.9916 
118.057 114.464 105.607 105.607 102.244 90.6849 98.8942 101.073 92.0081 
90.0643 124.656 149.712 144.027 135.4 124.854 129.023 116.239 84.7612 
90.9734 95.6449 95.6906 107.153 103.655 102.715 99.6241 95.3643 103.322 
103.924 105.562 109.471 96.4988 96.4988 94.2816 96.1257 100.214 103.14 
94.0619 101.808 114.18 121.915 126.423 118.144 112.365 110.545 100.869 
107.891 101.276 126.261 142.776 155.152 100.667 106.213 109.21 106.441 
116.428 114.119 98.3336 98.2246 130.157 124.515 133.93 144.899 94.0073 
101.46 110.067 100.407 109.606 123.034 105.591 118.587 111.873 108.841 
95.0848 90.7847 113.443 113.443 121.209 121.899 121.899 108.665 103.646 
103.646 100.236 107.254 110.252 116.203 116.176 115.961 115.874 117.338 
121.811 132.761 132.761 138.797 143.739 136.252 130.086 120.778 96.726 
99.7524 87.5742 97.9651 113.079 131.184 110.44 119.82 130.938 137.764 
145.443 144.746 142.899 140.8 148.044 148.765 135.219 151.527 127.303 
113.398 113.398 117.22 117.22 121.873 117.437 122.447 106.195 96.8489 
108.145 110.122 122.213 126.603 131.811 100.324 94.7051 88.4071 81.9707 
87.6734 89.4494 99.5385 89.8532 88.3467 99.0636 111.856 120.812 126.575 
121.086 112.966 114.817 121.428 118.539 118.671 126.116 128.81 104.708 
100.532 99.3911 96.0516 103.215 123.645 121.596 143.878 143.225 127.885 
127.885 104.55 104.55 95.9232 94.9682 89.9838 89.2113 80.65 98.7635 
102.542 102.145 82.6724 85.5413 75.5854 70.0028 76.9864 90.0398 98.6736 
98.6736 103.255 105.476 115.653 115.64 109.418 109.418 108.553 106.027 
109.218 112.275 116.478 123.719 114.208 136.675 117.55 126.259 169.527 
156.516 122.846 118.056 106.136 103.751 93.2409 84.3099 98.3815 112.149 
113.075 131.703 144.825 119.219 115.087 122.874 131.261 140.23 130.942 
139.148 122.324 122.817 126.495 108.575 106.321 102.29 98.3454 105.196 
102.059 98.5484 90.885 124.325 124.002 130.119 130.119 137.736 144.759 
134.994 122.434 115.506 109.679 111.276 120.543 120.85 106.639 104.672 
85.4986 75.8585 87.448 96.0906 94.8836 97.9854 101.96 96.9115 114.567 
122.8 130.456 128.196 119.427 104.591 104.591 99.5251 94.1253 97.4051 
86.3494 80.9348 96.6019 112.769 99.5294 
FIELD FieldData 7
DY_minmax 1 410 double
0.308976 0.337457 0.362106 0.446219 0.264058 0.685372 0.330272 0.120039 0.27118 
0.376416 0.164663 0.416151 0.517137 0.355488 0.661202 0.196722 0.336106 0.832261 
0.150258 0.613733 0.523091 0.152061 0.767504 0.24449 0.389809 0.412333 0.661437 
0.725753 0.770675 0.735159 0.617359 0.415492 0.402557 0.489429 0.465392 0.483471 
0.401596 0.488955 0.54957 0.658708 0.672254 0.693916 0.855599 1 0.802786 
0.689994 0.632589 0.853358 0.869108 0.751236 0.860009 0.860009 0.794047 0.794297 
0.702325 0.602115 0.571184 0.498454 0.44433 0.404384 0.404384 0.517075 0.612659 
0.444966 0.502037 0.41765 0.406744 0.346535 0.303784 0.375348 0.402312 0.402312 
0.461845 0.340304 0.340304 0.30025 0.415126 0.515084 0.411746 0.554248 0.434809 
0.469749 0.469749 0.331415 0.32137 0.401811 0.259899 0.150258 0.400612 0.457228 
0.60967 0.695326 0.690952 0.568974 0.49863 0.425232 0.333256 0.319839 0.263263 
0.115181 0.120707 0.0399391 0.0355899 0.0912714 0.368001 0.385082 0.28046 0.2578 
0.378299 0.379822 0.379822 0.409557 0.518242 0.518242 0.758128 0.758128 0.742637 
0.914015 0.914015 0.83691 0.745902 0.702524 0.612733 0.483334 0.483334 0.469287 
0.474178 0.523478 0.319132 0.375987 0.37615 0.276957 0.276957 0.313965 0.382526 
0.382526 0.320945 0.287729 0.219419 0.254023 0.272408 0.231081 0.280174 0.252082 
0.417868 0.386624 0.309604 0.309604 0.280361 0.179848 0.251234 0.270183 0.191354 
0.174452 0.475255 0.693136 0.643703 0.568682 0.476972 0.513228 0.402059 0.128337 
0.182357 0.222979 0.223377 0.323048 0.292638 0.284461 0.257582 0.220539 0.289735 
0.294977 0.309216 0.343211 0.230404 0.230404 0.211125 0.22716 0.262709 0.288152 
0.209213 0.276572 0.384158 0.451423 0.490616 0.41863 0.368377 0.35255 0.268408 
0.329467 0.271947 0.489209 0.632822 0.740439 0.266648 0.314878 0.340943 0.316864 
0.403708 0.383626 0.24636 0.245412 0.523091 0.474029 0.555903 0.651281 0.208739 
0.273546 0.348392 0.26439 0.344378 0.46115 0.309472 0.422479 0.364093 0.337731 
0.218108 0.180716 0.377748 0.377748 0.445281 0.451283 0.451283 0.336197 0.292552 
0.292552 0.262905 0.32393 0.349999 0.401746 0.401517 0.399641 0.398886 0.41162 
0.450515 0.545733 0.545733 0.598221 0.641195 0.576089 0.522475 0.441531 0.232381 
0.258697 0.152798 0.243155 0.374586 0.532023 0.351634 0.433204 0.529885 0.589235 
0.656012 0.649954 0.63389 0.615644 0.678631 0.684899 0.567108 0.708919 0.498273 
0.377359 0.377359 0.410596 0.410596 0.451053 0.412484 0.456042 0.314722 0.233449 
0.331678 0.348874 0.454011 0.492183 0.537473 0.263668 0.214807 0.16004 0.104071 
0.153661 0.169104 0.256837 0.172616 0.159516 0.252708 0.363951 0.441831 0.491941 
0.444206 0.373605 0.389692 0.447188 0.422064 0.423212 0.487953 0.511373 0.30179 
0.265477 0.255555 0.226516 0.288808 0.466464 0.448644 0.642408 0.636723 0.503333 
0.503333 0.300415 0.300415 0.2254 0.217094 0.173752 0.167034 0.0925864 0.250098 
0.282952 0.279503 0.110172 0.13512 0.0485458 0 0.0607285 0.174238 0.249316 
0.249316 0.289157 0.308469 0.396969 0.396851 0.342745 0.342745 0.335228 0.313256 
0.341007 0.367591 0.404138 0.467108 0.384402 0.579773 0.413464 0.489192 0.865441 
0.752304 0.459517 0.417865 0.314209 0.29347 0.202074 0.124413 0.246777 0.366495 
0.374546 0.536534 0.65064 0.427979 0.392041 0.459756 0.532689 0.610686 0.529919 
0.601271 0.454976 0.459265 0.491243 0.33542 0.315821 0.280761 0.246462 0.306034 
0.278756 0.248228 0.181588 0.472377 0.469564 0.522756 0.522756 0.588996 0.650064 
0.56515 0.455934 0.395687 0.345019 0.358906 0.439486 0.442156 0.31858 0.301481 
0.134749 0.0509206 0.1517 0.226855 0.21636 0.243332 0.277893 0.233993 0.387518 
0.459116 0.525694 0.506035 0.429783 0.300776 0.300776 0.256721 0.209765 0.238286 
0.142147 0.0950631 0.231301 0.371885 0.256758 
WidthEq 1 410 double
1.63843 4.55926 1.74009 4.05171 1.93009 3.43149 5.39084 7.77908 5.3295 
2.65771 3.1397 4.04925 1.82858 3.85966 1.8934 4.77063 3.6527 1 
4.25507 3.39208 3.25653 4.49084 2.92486 3.77544 3.72299 3.4346 3.59885 
3.54556 3.51702 3.24082 3.29148 3.26176 3.10424 2.86715 2.66796 2.78852 
2.70491 2.60696 2.68397 2.49313 2.5764 2.47254 2.29871 2.13973 2.1508 
2.13425 2.04079 2.00539 2.01191 2.0093 1.92307 1.92307 2.02063 2.17925 
2.16591 2.37453 2.53259 2.61978 2.86855 3.07539 3.07539 3.14672 2.93279 
3.00472 2.78341 2.71792 2.73247 2.67985 2.71268 2.65714 2.62455 2.62455 
2.53969 2.64247 2.64247 2.80186 2.7541 2.70405 3.05805 2.88448 3.05972 
3.0513 3.0513 3.44819 3.57126 3.50237 3.93732 4.25507 3.42141 3.13144 
2.81844 2.69686 2.88364 3.28073 3.53319 3.30613 3.16332 3.02894 3.08316 
3.22002 3.16653 3.51148 4.13036 4.17834 3.70756 3.52475 3.8406 3.617 
3.79072 3.56224 3.56224 3.08743 2.86514 2.86514 2.68097 2.68097 2.64227 
2.60159 2.60159 2.73951 2.82983 2.82901 2.97226 3.17976 3.17976 3.32308 
3.45823 3.36786 3.63489 3.51262 3.59451 3.90842 3.90842 3.95739 3.84921 
3.84921 3.58702 3.45676 3.49188 3.58294 3.65069 3.90375 3.75213 3.41131 
3.38923 3.37112 3.39497 3.39497 3.50673 4.13642 4.08812 4.48596 5.63832 
6.53312 3.63826 2.90919 3.23238 3.47889 3.09403 2.98506 2.82377 4.71762 
4.78196 3.89462 3.55564 2.93704 2.71641 2.44483 2.4171 2.48763 2.40928 
2.36769 2.37568 2.37488 2.58564 2.58564 2.72949 2.63437 2.59257 2.37572 
2.52048 2.44569 2.46602 2.34885 2.36027 2.67098 2.6203 2.60817 2.67972 
2.60774 2.79761 2.79644 2.65732 2.60623 3.74117 3.43311 3.37047 3.37416 
3.29113 3.49829 3.88342 4.66452 3.25653 3.0606 2.73344 2.5725 3.26774 
3.19004 3.13273 3.19043 3.40686 3.30324 3.55134 3.97431 4.07554 4.63098 
5.40319 4.25172 3.63884 3.63884 3.25917 3.17402 3.17402 3.18145 3.22716 
3.22716 3.35059 3.16828 3.26562 3.36542 3.33244 3.55277 3.749 3.64137 
3.42696 3.2994 3.2994 3.29079 3.27922 3.34125 3.46455 3.53666 4.78424 
4.61624 5.05447 2.76344 2.32802 1.83003 3.3995 3.16558 3.04411 3.11106 
3.1015 3.1451 3.13355 3.28224 3.17771 3.11022 3.00166 2.93909 3.15272 
3.27687 3.27687 3.52874 3.52874 3.54329 3.71645 3.60819 3.85329 4.40811 
4.48445 4.85333 4.8013 4.77147 4.11249 4.75869 4.79035 4.98581 4.79124 
4.81071 4.76706 4.90334 5.92935 6.64768 3.90861 3.85942 3.75757 3.6279 
3.73448 4.00757 4.12032 4.18725 4.3589 4.31571 3.42946 2.83264 2.69159 
2.7828 2.8716 3.26169 3.12911 2.88787 2.73357 2.59602 2.51752 2.61439 
2.61439 2.74741 2.74741 2.83238 2.87192 2.75528 2.73834 2.89834 2.82079 
2.78278 4.91929 8.12195 7.91128 7.41149 7.02574 6.49207 5.5972 5.32981 
5.32981 5.21146 5.26471 4.95542 4.91709 5.12459 5.12459 5.17102 5.13853 
4.59953 5.54078 4.92035 4.16193 4.16713 3.48549 3.65598 3.53125 3.20935 
3.35813 3.91442 4.05002 4.39201 4.26001 4.42672 4.02516 3.25235 2.3386 
5.19383 4.43468 4.02127 4.32497 4.36255 4.4322 4.36201 4.08393 3.85476 
3.70521 3.94772 4.16571 4.19442 4.70743 4.57989 4.55404 4.72133 4.50027 
4.35072 3.49626 3.53822 4.42775 4.45898 4.56638 4.56638 4.37308 4.09703 
4.02656 4.11773 3.95262 3.9911 3.93149 4.07184 4.29692 4.54329 4.7643 
5.33145 5.71064 5.46474 5.36745 5.3981 5.10199 4.81181 5.05091 4.2962 
4.16841 3.94692 3.81129 3.88021 4.4935 4.4935 4.86712 5.04616 4.76126 
4.82726 4.33844 3.59621 3.4115 3.07066 
rRFP 1 410 double
2989.28 4342.56 3036.38 4107.4 3124.41 3820.04 4727.85 5834.37 4699.43 
3461.53 3684.85 4106.26 3077.38 4018.42 3107.41 4440.49 3922.53 2693.48 
4201.62 3801.78 3738.98 4310.86 3585.31 3979.4 3955.1 3821.48 3897.58 
3872.89 3859.67 3731.7 3755.17 3741.4 3668.42 3558.57 3466.28 3522.14 
3483.4 3438.02 3473.7 3385.28 3423.86 3375.74 3295.2 3221.54 3226.67 
3219 3175.7 3159.3 3162.32 3161.11 3121.16 3121.16 3166.36 3239.85 
3233.67 3330.33 3403.56 3443.96 3559.22 3655.05 3655.05 3688.1 3588.98 
3622.31 3519.77 3489.43 3496.17 3471.79 3487 3461.27 3446.17 3446.17 
3406.85 3454.47 3454.47 3528.32 3506.19 3483 3647.02 3566.6 3647.79 
3643.89 3643.89 3827.78 3884.8 3852.88 4054.4 4201.62 3815.37 3681.02 
3536 3479.67 3566.21 3750.19 3867.16 3761.96 3695.79 3633.53 3658.65 
3722.06 3697.28 3857.1 4143.84 4166.07 3947.95 3863.25 4009.59 3905.99 
3986.48 3880.62 3880.62 3660.63 3557.64 3557.64 3472.31 3472.31 3454.38 
3435.53 3435.53 3499.43 3541.28 3540.9 3607.27 3703.41 3703.41 3769.81 
3832.43 3790.56 3914.28 3857.63 3895.57 4041.01 4041.01 4063.7 4013.58 
4013.58 3892.1 3831.75 3848.02 3890.21 3921.6 4038.85 3968.6 3810.69 
3800.46 3792.07 3803.12 3803.12 3854.9 4146.65 4124.27 4308.6 4842.51 
5257.09 3915.84 3578.05 3727.79 3842 3663.69 3613.2 3538.47 4415.93 
4445.74 4034.62 3877.56 3590.95 3488.73 3362.9 3350.05 3382.73 3346.43 
3327.16 3330.86 3330.49 3428.14 3428.14 3494.79 3450.72 3431.35 3330.88 
3397.95 3363.3 3372.72 3318.43 3323.72 3467.68 3444.2 3438.58 3471.73 
3438.38 3526.35 3525.81 3461.35 3437.68 3963.52 3820.79 3791.77 3793.48 
3755.01 3850.99 4029.43 4391.33 3738.98 3648.2 3496.62 3422.05 3744.17 
3708.17 3681.62 3708.35 3808.63 3760.62 3875.57 4071.54 4118.44 4375.79 
4733.57 4200.07 3916.11 3916.11 3740.2 3700.75 3700.75 3704.19 3725.37 
3725.37 3782.56 3698.09 3743.19 3789.43 3774.15 3876.23 3967.15 3917.28 
3817.94 3758.84 3758.84 3754.85 3749.49 3778.23 3835.36 3868.77 4446.8 
4368.96 4572 3510.52 3308.78 3078.05 3805.22 3696.84 3640.56 3671.58 
3667.15 3687.35 3682 3750.89 3702.46 3671.19 3620.89 3591.9 3690.88 
3748.4 3748.4 3865.1 3865.1 3871.84 3952.07 3901.91 4015.47 4272.53 
4307.9 4478.81 4454.7 4440.88 4135.56 4434.96 4449.63 4540.19 4450.04 
4459.06 4438.84 4501.98 4977.35 5310.17 4041.1 4018.31 3971.12 3911.04 
3960.42 4086.95 4139.19 4170.2 4249.73 4229.72 3819.1 3542.58 3477.23 
3519.49 3560.63 3741.37 3679.94 3568.17 3496.68 3432.95 3396.58 3441.46 
3441.46 3503.09 3503.09 3542.46 3560.78 3506.74 3498.89 3573.02 3537.09 
3519.48 4509.37 5993.23 5895.62 5664.06 5485.33 5238.07 4823.46 4699.57 
4699.57 4644.74 4669.41 4526.11 4508.35 4604.49 4604.49 4626 4610.95 
4361.22 4797.32 4509.86 4158.47 4160.88 3845.06 3924.05 3866.26 3717.12 
3786.05 4043.79 4106.62 4265.07 4203.91 4281.15 4095.1 3737.04 3313.68 
4636.57 4284.84 4093.3 4234.01 4251.42 4283.69 4251.17 4122.33 4016.15 
3946.86 4059.22 4160.22 4173.52 4411.21 4352.12 4340.14 4417.65 4315.23 
4245.94 3850.05 3869.49 4281.63 4296.1 4345.86 4345.86 4256.3 4128.4 
4095.75 4137.99 4061.49 4079.32 4051.7 4116.73 4221.01 4335.16 4437.56 
4700.33 4876.02 4762.09 4717.01 4731.21 4594.02 4459.57 4570.35 4220.68 
4161.47 4058.85 3996.01 4027.94 4312.09 4312.09 4485.2 4568.15 4436.15 
4466.73 4240.25 3896.36 3810.78 3652.86 
rGFP 1 410 double
2482.57 2805.75 2503.93 2801.2 2503.38 2820.33 2891.78 2961.6 2848.94 
2610.75 2588.9 2786.9 2546.41 2737.63 2586.17 2751.54 2706.54 2475.37 
2681.05 2786.52 2733.52 2702.56 2772.56 2680.1 2737.17 2712.95 2835.33 
2853.77 2867.56 2810.51 2773.75 2693.84 2670.67 2671.74 2639.21 2659.9 
2623.93 2638.74 2667.17 2673.04 2689.19 2680.05 2696.75 2705.51 2658.78 
2628.41 2600.98 2646.84 2651.58 2623.9 2634.47 2634.47 2635.62 2661.27 
2636.21 2640.3 2653.3 2643.22 2657.04 2667.96 2667.96 2717.05 2721.59 
2673.75 2665.2 2630.46 2628.75 2604.05 2594.32 2610.36 2614.81 2614.81 
2622.33 2598.05 2598.05 2602.54 2633.93 2659.12 2668.53 2695.43 2676.84 
2688.09 2688.09 2682.46 2691.64 2716.67 2702.96 2681.05 2706.79 2693.52 
2704.56 2714.09 2740.65 2753.98 2759.59 2702.77 2652.33 2633.1 2618.83 
2577.72 2575.28 2571.6 2615.7 2646.01 2726.1 2712.49 2702.38 2670.09 
2739.93 2714.62 2714.62 2671.2 2680.98 2680.98 2731.07 2731.07 2720.28 
2765.23 2765.23 2765.09 2750.49 2736.25 2727.16 2708.99 2708.99 2721.62 
2740.32 2748.16 2697.51 2707.43 2716.77 2707.74 2707.74 2729.57 2748.44 
2748.44 2693.15 2666.02 2642.21 2665.14 2679.58 2686.67 2693.21 2647.35 
2709.78 2695.53 2668.19 2668.19 2668.2 2684.77 2713.95 2763.07 2828.43 
2898.06 2763.19 2745.2 2775.21 2780.7 2695.96 2694.8 2637.89 2709.53 
2744.69 2682.16 2649.9 2624.37 2591.23 2560.78 2550.46 2546.89 2558.59 
2555.72 2560.44 2569.64 2559.17 2559.17 2567 2562.89 2569.47 2554.69 
2546.74 2558.65 2591.23 2596.02 2608.05 2625.22 2604.09 2597.98 2579.96 
2591.01 2592.99 2662.74 2689.06 2714.02 2686.27 2674.3 2677.75 2668.81 
2692.84 2708.88 2691.53 2767.83 2733.52 2690.75 2675.75 2682.41 2616.85 
2633.32 2654.47 2630 2683.07 2716.07 2684.65 2780.96 2765.6 2813.7 
2823.42 2695.65 2722.46 2722.46 2704.7 2696.57 2696.57 2655.37 2644.14 
2644.14 2645.51 2649.47 2669.7 2700.73 2696.81 2721.64 2744.07 2736.93 
2727.1 2747.69 2747.69 2766.41 2781.01 2764.91 2760.35 2736.81 2772.42 
2770.14 2752.3 2580.38 2572.91 2549.73 2685.1 2688.96 2708.25 2738.25 
2760.75 2764.9 2757.44 2771.8 2780.1 2772.35 2715.54 2755.01 2711.01 
2681.25 2681.25 2723.3 2723.3 2741.49 2746.11 2751.47 2718.86 2736.58 
2794.63 2844.12 2896.44 2913.74 2851.73 2787.07 2763.33 2750.44 2702.4 
2731.43 2736.07 2797.73 2842.43 2896.96 2696.86 2741.36 2763.62 2768.86 
2761.85 2762.38 2782.74 2818.11 2826.36 2821.81 2742.17 2674.53 2591.49 
2589.42 2595.07 2622.95 2632.63 2666.73 2642.05 2683.17 2670.23 2644 
2644 2596.9 2596.9 2581.35 2582.4 2557.59 2553.95 2543.41 2588.25 
2595.01 2812.14 2981.12 2986.4 2869.86 2801.48 2809.46 2813.63 2835.57 
2835.57 2847.77 2864.96 2882.77 2878.27 2870.38 2870.38 2870.99 2854.48 
2812.01 2931.75 2882.77 2824.57 2785.58 2786.04 2739.42 2755.51 2853.73 
2835.26 2790.53 2787.79 2775.81 2751.64 2722.41 2649.02 2629.63 2571.93 
2896.95 2893.72 2892.04 2825.28 2811.73 2854.26 2882.22 2882.35 2814.41 
2825.23 2792.56 2821.28 2840.23 2820.77 2796.6 2775.49 2773.98 2783.07 
2753.69 2654.21 2631.23 2860.14 2862.58 2903.83 2903.83 2911.99 2902.74 
2853.22 2813.81 2766.21 2747.4 2747.14 2800.49 2828.94 2794.15 2808.35 
2765.49 2742.86 2787.54 2825.42 2821.85 2809.58 2800.27 2799.15 2801.86 
2821.54 2824.56 2798.25 2773.06 2779.64 2779.64 2794.06 2784.63 2773.43 
2726.49 2660.79 2657.06 2694.37 2615.28 
bkstRFP 1 410 double
759.121 2112.4 806.221 1877.24 894.251 1589.88 2497.69 3604.21 2469.27 
1231.37 1454.69 1876.1 847.221 1788.26 877.251 2210.33 1692.37 463.321 
1971.46 1571.62 1508.82 2080.7 1355.15 1749.24 1724.94 1591.32 1667.42 