# vtk DataFile Version 3.0
vtk output
ASCII
DATASET POLYDATA
POINTS 407 float
1.46043 0.108283 1.8114 1.68893 0.128056 1.83637 0.447789 0.410976 1.61964 
1.20059 1.01225 1.42621 1.33403 -0.854864 1.23643 -0.484821 -0.0651827 1.2102 
0.426181 1.12262 1.01605 5.51197 0.122043 0.883804 5.02084 0.53816 0.875792 
2.27095 -0.556211 0.846657 4.92579 0.749213 0.673624 2.73332 0.211064 0.64886 
7.0383 0.185502 0.306121 2.97545 0.317006 0.118005 2.95837 0.479695 0.0503694 
7.18758 0.968542 -0.0993566 3.96657 0.331474 -0.266085 1.46803 -1.02168 -0.161267 
2.29935 1.54426 -0.162724 0.979075 -1.07547 -0.167094 6.86713 1.20429 -0.304437 
3.05306 0.561964 -0.348867 4.08042 0.4974 -0.621023 3.19685 0.626082 -0.547393 
2.88896 0.109325 -0.545144 7.42262 0.471185 -0.694205 4.09602 0.938689 -0.648778 
0.831779 -1.02102 -0.769226 0.182998 -0.776821 -0.854344 -0.246743 1.13684 -0.792533 
0.603594 1.52614 -0.983776 2.54589 -0.364666 -1.15098 6.66317 -0.186264 -1.50069 
6.65608 -0.0468264 -1.50142 2.39642 0.159698 -1.7553 1.92654 0.157492 -1.76113 
1.16405 0.791201 -1.77351 1.17653 0.0242951 -1.96985 1.1826 0.0806886 -1.97003 
1.17618 0.1417 -1.97039 1.18407 0.197421 -1.97055 1.20123 0.249716 -1.97058 
1.21829 0.302044 -1.9632 1.2259 0.357871 -1.94854 1.21739 0.419653 -1.9193 
1.21374 0.479643 -1.88999 1.20504 0.541497 -1.85334 1.21055 0.598099 -1.8239 
1.21434 0.655336 -1.79448 1.19464 0.721256 -1.78022 1.98367 0.153439 -1.7604 
2.04948 0.172854 -1.75967 2.11872 0.201545 -1.75894 2.1845 0.220866 -1.75821 
2.24092 0.21489 -1.75748 2.29321 0.197734 -1.75676 2.34483 0.178768 -1.75603 
6.66916 -0.124192 -1.5009 2.61334 -0.33096 -1.05399 2.67007 -0.293296 -0.986793 
2.70177 -0.246378 -0.949571 2.72249 -0.1954 -0.919915 2.74283 -0.144281 -0.868043 
2.77216 -0.0964867 -0.793812 2.81554 -0.0538291 -0.708281 2.84453 -0.00492814 -0.64147 
2.86367 0.0519526 -0.593339 0.582545 1.4754 -0.983804 0.55105 1.43046 -0.983989 
0.497621 1.40428 -0.984533 0.43827 1.39646 -0.985234 0.371852 1.37508 -0.985961 
0.301867 1.34438 -0.986689 0.231251 1.31196 -0.987417 0.160504 1.27948 -0.980736 
0.0895739 1.24706 -0.959247 0.0184977 1.21482 -0.922938 -0.0519476 1.18428 -0.88664 
-0.118837 1.16308 -0.857741 -0.180435 1.15619 -0.828842 0.103151 -0.788158 -0.827501 
0.0371372 -0.797166 -0.730121 -0.0168431 -0.81154 -0.578862 -0.0528131 -0.821804 -0.410727 
-0.100888 -0.822242 -0.27057 -0.146699 -0.789165 -0.167582 -0.194778 -0.758671 -0.109054 
-0.242111 -0.726407 -0.0653363 -0.283965 -0.679888 -0.036437 -0.327519 -0.638252 -0.0149474 
-0.368049 -0.590165 -0.0304831 -0.408073 -0.547659 -0.0904406 -0.432381 -0.492861 -0.187303 
-0.438968 -0.433845 -0.283964 -0.459511 -0.36773 -0.351189 -0.489845 -0.297878 -0.381519 
-0.522199 -0.227396 -0.389655 -0.555472 -0.158515 -0.382974 -0.592489 -0.0989112 -0.354075 
-0.635204 -0.0533427 -0.280738 -0.671408 0.00597095 -0.16293 -0.693234 0.0706199 -0.0153352 
-0.687323 0.126956 0.132643 -0.660631 0.175726 0.273502 -0.616111 0.217906 0.407203 
-0.576234 0.261802 0.540839 -0.529698 0.303236 0.674578 -0.487918 0.346429 0.80083 
-0.431645 0.384263 0.905075 -0.374911 0.421927 0.972272 -0.33203 0.464713 1.00224 
-0.285738 0.506237 1.01745 -0.253747 0.553048 1.03985 -0.220315 0.599328 1.0845 
-0.163342 0.636786 1.1369 -0.09586 0.668302 1.18204 -0.0303908 0.68796 1.20498 
0.0266137 0.683838 1.21312 0.0829107 0.677803 1.22126 0.14297 0.682509 1.2442 
0.194001 0.663644 1.28937 0.236134 0.621275 1.34935 0.282752 0.591322 1.41674 
0.332131 0.568835 1.48414 0.378099 0.53684 1.54412 0.4149 0.479481 1.58928 
0.251544 -0.816107 -0.825529 0.296516 -0.878172 -0.770971 0.338882 -0.924038 -0.707268 
0.39451 -0.930487 -0.656543 0.449915 -0.938368 -0.633597 0.506669 -0.944583 -0.662496 
0.569178 -0.936645 -0.728432 0.630131 -0.933762 -0.816576 0.692564 -0.926031 -0.882511 
0.747887 -0.935832 -0.904001 0.794785 -0.965879 -0.858837 4.14866 0.977751 -0.729791 
4.22039 1.0077 -0.803124 4.2876 1.02661 -0.861641 4.34462 1.02041 -0.905348 
4.39728 1.00312 -0.934247 4.44931 0.984117 -0.963146 4.50211 0.966653 -1.00685 
4.55847 0.958526 -1.05798 4.62 0.964652 -1.10169 4.67603 0.956765 -1.12318 
4.72913 0.941247 -1.13727 4.7852 0.933462 -1.15876 4.84739 0.941399 -1.20247 
4.90793 0.944555 -1.25359 4.97079 0.954302 -1.2973 5.03095 0.957594 -1.31879 
5.09278 0.965667 -1.33288 5.14885 0.957882 -1.35437 5.20236 0.942332 -1.39808 
5.25943 0.936128 -1.44921 5.32509 0.953425 -1.49291 5.3905 0.970927 -1.5144 
5.44775 0.9666 -1.52849 5.50445 0.960531 -1.54998 5.56604 0.966845 -1.59369 
5.62308 0.960537 -1.64482 5.68002 0.954264 -1.68853 5.7413 0.960586 -1.71002 
5.79715 0.952766 -1.7167 5.85007 0.937317 -1.71597 5.90583 0.929531 -1.71524 
5.96683 0.935955 -1.71451 6.02322 0.929886 -1.71378 6.07961 0.923816 -1.71305 
6.14062 0.93024 -1.71233 6.19647 0.92242 -1.719 6.24957 0.906903 -1.73309 
6.30564 0.899118 -1.75458 6.36737 0.907225 -1.76126 6.42717 0.910653 -1.75312 
6.48921 0.920706 -1.73018 6.54895 0.924272 -1.71463 6.61113 0.934153 -1.7065 
6.67035 0.935737 -1.70577 6.72776 0.932722 -1.69763 6.77385 0.899648 -1.67469 
6.82139 0.871318 -1.62952 6.87093 0.848994 -1.56954 6.91747 0.818844 -1.50215 
6.95808 0.772904 -1.42736 7.00038 0.731848 -1.34514 7.0408 0.685976 -1.25554 
7.08726 0.65586 -1.18074 7.13676 0.633442 -1.12076 7.18362 0.603292 -1.07559 
7.22517 0.559061 -1.02302 7.27189 0.529084 -0.963037 7.32188 0.508544 -0.888235 
7.37232 0.489779 -0.798625 4.10652 0.876169 -0.566874 4.12624 0.810244 -0.521882 
4.12102 0.753536 -0.529087 4.10479 0.70081 -0.588312 4.08904 0.646418 -0.647523 
4.08338 0.579829 -0.66951 2.93675 0.142257 -0.457034 2.96709 0.185072 -0.309931 
2.97897 0.243273 -0.110033 3.12491 0.59404 -0.44443 4.02869 0.440169 -0.517684 
3.98564 0.387615 -0.388336 3.01659 0.516808 -0.149095 3.01782 0.618745 -0.519951 
2.97702 0.661316 -0.668816 2.937 0.707145 -0.788054 2.8906 0.737124 -0.870255 
2.84037 0.757869 -0.922829 2.78991 0.778815 -0.945774 2.74518 0.810237 -0.953885 
2.72082 0.862995 -0.954429 2.72417 0.91822 -0.954641 2.72819 0.975255 -0.954853 
2.70868 1.04111 -0.955398 2.67808 1.11106 -0.9561 2.64558 1.18171 -0.949417 
2.6127 1.2525 -0.920518 2.57932 1.32336 -0.854592 2.54494 1.39265 -0.759029 
2.50693 1.4524 -0.656067 2.46246 1.49438 -0.560503 2.41555 1.53005 -0.457541 
2.35706 1.53553 -0.324941 4.0025 0.293146 -0.158043 4.05766 0.279334 -0.0498848 
4.10298 0.245234 0.0619645 4.14979 0.217213 0.170084 4.19976 0.196905 0.252295 
4.25125 0.179824 0.312269 4.3065 0.172105 0.350034 4.36702 0.178605 0.387799 
4.4224 0.170955 0.418154 4.47496 0.155642 0.44851 4.53043 0.147958 0.471457 
4.59104 0.154424 0.501812 4.6462 0.146739 0.546977 4.69794 0.129787 0.592151 
4.74986 0.112767 0.622507 4.80558 0.104878 0.623235 4.86655 0.111208 0.623964 
4.92218 0.103353 0.632102 4.97419 0.0862986 0.655048 5.0263 0.0692109 0.670585 
5.08196 0.0614585 0.678723 5.1436 0.0695993 0.679451 5.20349 0.072994 0.680179 
5.2658 0.0829442 0.680908 5.32564 0.0864762 0.689045 5.38762 0.0966659 0.719401 
5.44735 0.102177 0.786784 6.91858 1.18515 -0.2963 6.96922 1.16437 -0.273353 
7.01608 1.13422 -0.228189 7.05696 1.08818 -0.175605 7.09972 1.04695 -0.130441 
7.14093 1.00067 -0.107494 1.03464 -1.08123 -0.099701 1.09494 -1.07444 -0.039718 
1.15082 -1.08021 0.00544653 1.2076 -1.08436 0.0283928 1.27278 -1.06666 0.0291212 
1.33896 -1.04738 0.000222204 1.40098 -1.04075 -0.0657035 2.9551 0.410962 0.0827473 
2.91778 0.536161 0.249624 2.86801 0.567154 0.44147 2.81209 0.575118 0.611124 
2.75784 0.551535 0.736499 2.72546 0.507041 0.810377 2.70415 0.4564 0.839978 
2.68508 0.404812 0.839978 2.66823 0.352519 0.817787 2.66351 0.2978 0.773536 
2.68848 0.244711 0.714824 7.04483 0.0978832 0.25846 7.0402 0.0283542 0.217968 
7.00873 -0.0207059 0.173358 6.98993 -0.0725117 0.14003 6.98144 -0.12801 0.140179 
6.9345 -0.169297 0.176819 6.86693 -0.202957 0.227999 6.79596 -0.23524 0.271709 
6.72574 -0.265743 0.293199 6.65978 -0.284995 0.30729 6.60375 -0.277107 0.328779 
6.55504 -0.248567 0.372487 6.51216 -0.203962 0.423614 6.46416 -0.173508 0.467322 
6.41294 -0.15262 0.488811 6.36059 -0.135336 0.495492 6.30411 -0.129232 0.502174 
6.23873 -0.146632 0.523663 6.17308 -0.163929 0.567371 6.11613 -0.157656 0.611089 
6.06357 -0.140397 0.632578 6.01209 -0.121602 0.617041 5.96012 -0.104445 0.594085 
5.9044 -0.0965558 0.593356 5.84306 -0.102741 0.622255 5.78679 -0.0946567 0.665973 
5.73399 -0.0771931 0.709681 5.68185 -0.0579195 0.753399 5.63051 -0.0367664 0.789697 
5.5834 -0.00446698 0.818596 5.54568 0.0532323 0.847495 2.88602 0.27757 0.28499 
2.80723 0.243146 0.461964 6.98952 0.25793 0.375558 6.92876 0.284518 0.46729 
6.86515 0.279409 0.54801 6.80441 0.276436 0.610234 6.74155 0.266689 0.653952 
6.68098 0.263429 0.705069 6.61802 0.253717 0.756186 6.55755 0.250423 0.799894 
6.49496 0.240574 0.821394 6.43498 0.237214 0.828065 6.3733 0.22897 0.827336 
6.31691 0.235049 0.826608 6.2611 0.242963 0.833289 6.20404 0.247796 0.84738 
6.15744 0.281178 0.868869 6.1091 0.309583 0.88295 6.05738 0.328584 0.88963 
6.00171 0.336576 0.888902 5.9407 0.330152 0.888174 5.88427 0.336118 0.887445 
5.82728 0.340236 0.886718 5.76324 0.320049 0.886016 5.70458 0.285273 0.885447 
5.66117 0.2428 0.885102 5.61287 0.202016 0.88469 5.56953 0.159402 0.884347 
2.74999 0.146264 0.716041 2.74327 0.0901086 0.76807 2.72594 0.0378777 0.790316 
2.70906 -0.0145193 0.768125 2.70172 -0.0704442 0.723837 2.7086 -0.131625 0.679759 
2.70098 -0.187447 0.657699 2.6839 -0.239772 0.642906 2.66502 -0.291428 0.628097 
2.64431 -0.34241 0.605852 2.61227 -0.389089 0.598258 2.55529 -0.424603 0.605124 
2.49051 -0.446584 0.626642 2.43088 -0.454307 0.648159 2.37509 -0.479611 0.684625 
2.32976 -0.519433 0.750911 4.95747 0.678862 0.741017 4.98915 0.608511 0.808399 
0.476898 1.10375 1.08344 0.526984 1.08318 1.15082 0.573606 1.05324 1.21822 
0.615009 1.00918 1.28561 0.662392 0.981009 1.34559 0.716887 0.971513 1.39076 
0.777454 0.977876 1.42111 0.832802 0.970123 1.45147 0.884503 0.953068 1.49663 
0.935518 0.934443 1.54922 0.987349 0.917457 1.58697 1.04367 0.91152 1.5877 
1.10803 0.931481 1.55137 1.16571 0.966619 1.49266 -0.433238 -0.0842523 1.21093 
-0.381655 -0.103322 1.21166 -0.330034 -0.122288 1.21239 -0.277781 -0.139548 1.21312 
-0.222062 -0.147428 1.21385 -0.161149 -0.140979 1.22198 -0.105036 -0.146946 1.24493 
-0.0491989 -0.152812 1.29009 0.0112912 -0.14609 1.33527 0.0674045 -0.152057 1.35822 
0.12407 -0.158229 1.33673 0.185537 -0.151975 1.30042 0.24153 -0.159966 1.27893 
0.293472 -0.177217 1.30187 0.343868 -0.197799 1.34705 0.390766 -0.227845 1.39221 
0.432683 -0.272213 1.41516 0.480041 -0.302429 1.4233 0.530955 -0.323308 1.42403 
0.582461 -0.342584 1.42475 0.633376 -0.363464 1.42548 0.680822 -0.393724 1.42621 
0.723018 -0.438184 1.42694 0.770468 -0.468434 1.42767 0.821474 -0.489348 1.42099 
0.873165 -0.508692 1.40691 0.924355 -0.529674 1.38542 0.971951 -0.560095 1.37133 
1.01366 -0.606443 1.35725 1.05725 -0.647975 1.33575 1.0992 -0.694528 1.29945 
1.1464 -0.726862 1.26314 1.19345 -0.759034 1.24165 1.2357 -0.803631 1.23497 
1.28315 -0.833881 1.2357 1.59313 0.108599 1.82457 
LINES 21 438
14 37 38 39 40 41 42 43 44 45 46 47 48 49 36 
9 35 50 51 52 53 54 55 56 34 
3 33 57 32 
15 30 67 68 69 70 71 72 73 74 75 76 77 78 79 29 
3 23 205 21 
3 21 208 14 
22 21 209 210 211 212 213 214 215 216 217 218 219 220 221 222 223 224 225 226 227 228 18 
8 20 256 257 258 259 260 261 15 
9 19 262 263 264 265 266 267 268 17 
3 14 269 13 
12 14 270 271 272 273 274 275 276 277 278 279 11 
4 13 311 312 11 
18 11 339 340 341 342 343 344 345 346 347 348 349 350 351 352 353 354 9 
4 10 355 356 8 
16 6 357 358 359 360 361 362 363 364 365 366 367 368 369 370 3 
37 5 371 372 373 374 375 376 377 378 379 380 381 382 383 384 385 386 387 388 389 390 391 392 393 394 395 396 397 398 399 400 401 402 403 404 405 4 
3 0 406 1 
15 31 58 59 60 61 62 63 64 65 66 24 202 203 204 13 
60 2 125 124 123 122 121 120 119 118 117 116 115 114 113 112 111 110 109 108 107 106 105 104 103 102 101 100 99 98 97 96 95 94 93 92 91 90 89 88 87 86 85 84 83 82 81 80 28 126 127 128 129 130 131 132 133 134 135 136 27 
99 25 195 194 193 192 191 190 189 188 187 186 185 184 183 182 181 180 179 178 177 176 175 174 173 172 171 170 169 168 167 166 165 164 163 162 161 160 159 158 157 156 155 154 153 152 151 150 149 148 147 146 145 144 143 142 141 140 139 138 137 26 196 197 198 199 200 201 22 206 207 16 229 230 231 232 233 234 235 236 237 238 239 240 241 242 243 244 245 246 247 248 249 250 251 252 253 254 255 7 
60 7 310 309 308 307 306 305 304 303 302 301 300 299 298 297 296 295 294 293 292 291 290 289 288 287 286 285 284 283 282 281 280 12 313 314 315 316 317 318 319 320 321 322 323 324 325 326 327 328 329 330 331 332 333 334 335 336 337 338 7 

POINT_DATA 407
SCALARS DY_raw double
LOOKUP_TABLE default
783.717 902.011 1046.71 695.655 878.558 698.249 435.703 800.153 887.682 
535.277 717.192 681.341 828.323 615.169 479.615 757.907 844.044 1040 
505.297 1517.75 435.034 499.57 829.402 721.179 486.73 1151.1 689.637 
978.741 406.142 690.463 675.781 611.039 689.777 586.993 710.248 507.533 
536.818 489.387 437.372 437.372 405.784 381.022 381.022 376.179 398.855 
433.603 448.83 485.829 495.787 536.818 507.533 500.545 500.545 498.648 
568.421 568.421 606.438 627.248 483.291 496.798 496.798 521.144 559.383 
605.619 540.509 504.832 482.61 624.438 638.671 606.748 577.75 552.298 
608.166 576.961 428.349 575.858 507.936 509.275 600.055 571.81 451.456 
517.804 577.133 604.694 565.71 547.716 523.758 543.706 536.098 535.455 
535.455 531.557 558.398 604.151 591.255 560.98 560.98 494.464 511.9 
500.883 476.856 457.119 489.732 553.491 580.572 589.253 641.14 722.517 
827.627 875.981 894.632 947.978 904.624 712.045 734.473 648.107 554.318 
547.271 513.351 537.53 555.237 564.742 595.514 697.452 768.179 870.44 
385.825 390.984 414.783 433.1 500.087 561.834 559.198 581.014 600.631 
570.895 644.097 656.387 593.301 551.767 550.868 516.559 531.444 552.07 
525.626 599.256 599.256 606.195 713.808 677.163 667.864 746.064 686.086 
793.461 822.924 771.617 891.305 775.288 768.573 905.987 834.852 840.295 
894.088 748.027 809.634 864.464 801.567 854.308 842.988 795.193 779.452 
779.452 818.496 768.113 768.113 798.249 686.346 686.346 614.267 529.249 
460.422 460.422 445.231 430.831 479.89 471.432 479.081 541.71 563.883 
525.798 584.441 566.593 585.109 599.156 659.753 910.327 837.124 910.044 
957.789 975.234 820.37 796.671 505.461 578.624 575.624 523.152 855.146 
794.826 474.502 503.715 598.462 603.601 632.673 497.301 465.864 433.11 
389.905 380.645 382.066 387.54 427.618 451.404 500.244 569.171 650.867 
738.25 564.64 591.535 498.054 844.19 915.975 955.208 974.839 1084.13 
1133.04 1144.48 1144.48 1166.69 984.93 1010.83 931.407 884.781 947.314 
850.229 830.714 830.714 831.031 831.031 755.189 796.418 796.418 744.259 
735.403 648.816 690.775 689.146 436.488 462.676 461.543 520.423 603.12 
681.222 1404.45 1290.53 1195.04 1060.43 1072.71 1072.71 1088.81 504.652 
535.713 658.127 645.657 582.426 610.028 642.475 625.286 590.246 593.149 
644.379 903.959 850.833 852.605 826.792 826.792 873.172 848.47 853.588 
916.87 843.293 822.05 822.05 737.088 761.663 864.103 763.506 753.679 
753.679 963.765 954.84 894.068 980.884 843.053 798.33 798.33 777.775 
778.158 850.02 740.328 797.02 722.916 630.363 650.075 812.54 922.593 
987.16 914.53 961.52 811.707 748.265 880.397 747.819 757.288 757.288 
693.065 732.731 728.291 802.027 765.993 733.742 733.742 709.858 732.268 
732.268 761.534 757.862 763.946 791.346 787.343 715.079 756.334 775.808 
846.011 723.261 670.179 548.626 485.503 485.503 466.263 425.98 408.2 
403.965 376.279 401.215 432.386 757.252 792.561 447.666 459.88 475.991 
509.483 562.31 552.966 565.32 565.32 596.117 630.454 670.633 713.062 
718.474 711.636 710.016 710.016 681.058 716.437 716.437 739.073 802.617 
718.433 718.433 661.972 611.144 611.144 571.985 586.282 628.888 628.888 
660.185 656.33 656.33 718.033 740.948 729.716 729.716 717.339 670.045 
670.596 673.442 685.416 690.356 686.691 613.363 632.007 665.294 665.294 
741.891 739.216 
FIELD FieldData 7
DY_minmax 1 407 double
0.356998 0.460622 0.587379 0.279857 0.440077 0.282129 0.0521418 0.371395 0.44807 
0.139368 0.298722 0.267318 0.396072 0.209352 0.0906085 0.334388 0.409844 0.581497 
0.113105 1 0.0515564 0.108089 0.397018 0.302215 0.0968411 0.678822 0.274585 
0.527836 0.0262468 0.275309 0.262447 0.205734 0.274708 0.18467 0.29264 0.115064 
0.140718 0.099169 0.0536042 0.0536042 0.0259336 0.00424254 0.00424254 0 0.0198634 
0.0503021 0.0636412 0.0960517 0.104775 0.140718 0.115064 0.108943 0.108943 0.107281 
0.168401 0.168401 0.201704 0.219933 0.0938286 0.10566 0.10566 0.126988 0.160485 
0.200986 0.143951 0.112698 0.0932325 0.217471 0.22994 0.201975 0.176573 0.154278 
0.203217 0.175883 0.0457003 0.174916 0.115417 0.11659 0.196112 0.17137 0.0659416 
0.124062 0.176033 0.200176 0.166027 0.150264 0.129277 0.146751 0.140087 0.139523 
0.139523 0.136109 0.159622 0.1997 0.188404 0.161884 0.161884 0.103616 0.11889 
0.109239 0.0881917 0.0709026 0.0994708 0.155323 0.179046 0.18665 0.232102 0.303387 
0.395463 0.437819 0.454157 0.500888 0.46291 0.294214 0.313861 0.238205 0.156048 
0.149875 0.120161 0.141341 0.156852 0.165179 0.192135 0.281431 0.343386 0.432966 
0.00844939 0.012969 0.0338164 0.0498618 0.108542 0.162632 0.160322 0.179433 0.196617 
0.170568 0.234693 0.245458 0.190196 0.153813 0.153025 0.122971 0.13601 0.154078 
0.130913 0.195413 0.195413 0.20149 0.295758 0.263658 0.255512 0.324014 0.271474 
0.365533 0.391343 0.346398 0.451244 0.349614 0.343731 0.464105 0.401791 0.40656 
0.453682 0.325734 0.379701 0.427731 0.372634 0.418834 0.408918 0.367051 0.353262 
0.353262 0.387464 0.343329 0.343329 0.369728 0.271702 0.271702 0.208562 0.134087 
0.0737957 0.0737957 0.0604882 0.0478746 0.0908495 0.0834399 0.0901404 0.145003 0.164426 
0.131065 0.182434 0.1668 0.18302 0.195325 0.248407 0.467906 0.403782 0.467659 
0.509483 0.524765 0.389105 0.368346 0.11325 0.177339 0.174711 0.128746 0.419569 
0.366729 0.0861294 0.11172 0.194717 0.199219 0.224686 0.106101 0.078563 0.0498709 
0.0120238 0.00391189 0.00515657 0.00995222 0.0450594 0.0658961 0.108679 0.169058 0.240623 
0.317169 0.165089 0.188649 0.106761 0.409971 0.472854 0.507222 0.524418 0.620156 
0.662997 0.673024 0.673024 0.692474 0.533258 0.555945 0.486373 0.445529 0.500307 
0.415262 0.398166 0.398166 0.398444 0.398444 0.332008 0.368123 0.368123 0.322433 
0.314675 0.238826 0.275582 0.274155 0.0528297 0.0757697 0.0747774 0.126356 0.198797 
0.267213 0.900752 0.800963 0.717315 0.599395 0.610152 0.610152 0.624256 0.11254 
0.13975 0.246982 0.236059 0.18067 0.204849 0.233272 0.218214 0.18752 0.190063 
0.234939 0.462328 0.415791 0.417343 0.394731 0.394731 0.435359 0.41372 0.418204 
0.473638 0.409185 0.390577 0.390577 0.316152 0.337679 0.427415 0.339293 0.330685 
0.330685 0.514717 0.506899 0.453664 0.529714 0.408975 0.369799 0.369799 0.351792 
0.352128 0.415078 0.31899 0.368651 0.303737 0.222662 0.23993 0.382246 0.478651 
0.535212 0.471588 0.51275 0.381517 0.325942 0.441688 0.325551 0.333846 0.333846 
0.277588 0.312335 0.308445 0.373037 0.341472 0.313221 0.313221 0.292298 0.31193 
0.31193 0.337566 0.334349 0.339679 0.363681 0.360174 0.296872 0.33301 0.35007 
0.411567 0.304039 0.25754 0.151061 0.0957666 0.0957666 0.078912 0.0436247 0.0280501 
0.0243399 8.7644e-005 0.0219309 0.0492366 0.333815 0.364745 0.0626214 0.0733211 0.0874338 
0.116773 0.163048 0.154863 0.165685 0.165685 0.192663 0.222741 0.257937 0.295105 
0.299846 0.293856 0.292436 0.292436 0.26707 0.298062 0.298062 0.31789 0.373554 
0.29981 0.29981 0.250351 0.205826 0.205826 0.171523 0.184047 0.221369 0.221369 
0.248785 0.245408 0.245408 0.299459 0.319533 0.309694 0.309694 0.298852 0.257423 
0.257905 0.260399 0.270888 0.275215 0.272004 0.20777 0.224102 0.253261 0.253261 
0.320358 0.318015 
WidthEq 1 407 double
2.99647 2.32259 1.94838 2.06269 1.79607 2.13213 1.9432 3.00504 2.83335 
4.92677 2.36768 3.94473 3.45329 4.85305 5.88336 3.26036 4.24314 1 
5.7919 1.53204 2.15029 5.756 5.02651 2.70275 6.10038 2.16729 4.44812 
3.08598 5.94196 2.10064 3.04085 3.6349 3.94892 4.92915 2.92523 4.26969 
4.42598 4.104 5.3839 5.3839 5.83687 5.97789 5.97789 5.87209 5.63644 
5.40188 5.29928 5.06069 5.01957 4.42598 4.26969 5.01803 5.01803 5.01616 
4.52103 4.52103 4.07279 4.63498 5.37847 5.79344 5.79344 5.00761 4.32953 
4.08986 4.25169 4.96585 5.67331 3.38162 3.681 3.97219 3.98877 3.86282 
3.6116 3.59781 3.88143 3.5615 3.82139 3.65015 3.41593 2.58398 5.16971 
3.88069 3.72983 4.06918 4.854 5.25762 5.59159 5.47689 5.52566 5.2563 
5.2563 4.95427 4.46801 4.25205 4.13931 4.71966 4.71966 4.94013 5.0255 
5.0596 5.11074 5.56751 5.51573 5.1432 4.51489 4.06541 3.7249 2.87034 
2.45032 2.35742 2.22462 2.17549 2.28186 2.78966 2.77137 3.12206 3.60332 
3.69696 3.8832 3.93176 3.95519 3.94576 3.85607 3.25427 2.97899 2.56939 
6.10608 6.24541 5.8924 5.90877 6.20751 6.15211 6.15906 6.14799 5.85211 
5.86073 5.29327 4.56928 5.0786 5.43959 5.41186 5.55022 5.17015 4.98319 
5.19811 4.60607 4.60607 4.57724 4.10268 4.25658 4.31127 3.96609 4.14229 
3.68266 3.54168 3.69822 3.27131 3.55855 3.47275 3.15319 3.34841 3.42797 
3.34974 3.68592 3.59473 3.43909 3.66546 3.61312 3.58739 3.73299 3.72281 
3.72281 3.57431 3.78557 3.78557 3.68204 3.98721 3.98721 4.08819 4.56948 
4.78474 4.78474 4.92699 5.09531 5.18697 5.42592 5.67956 5.36597 5.3231 
5.47824 5.10926 5.11107 4.79977 4.74392 4.33387 3.01617 3.8058 3.63455 
3.58092 3.8793 4.665 4.99946 5.94387 5.07833 4.9985 5.22947 4.97514 
4.41665 5.79146 5.57306 4.73864 4.39164 4.33923 5.27479 5.38994 5.66119 
5.81536 5.56563 5.26412 4.87157 3.75307 3.16033 3.14934 2.7598 3.00958 
3.04192 4.5631 4.52653 5.89431 4.47575 4.22969 3.83083 3.20026 2.69154 
2.57209 2.27947 2.27947 2.15292 2.43694 2.4586 2.47758 2.3967 2.363 
2.5282 2.45892 2.45892 2.37353 2.37353 2.59786 2.39251 2.39251 2.59874 
2.66382 2.91261 3.13296 3.33459 3.69843 3.55056 4.16412 4.42292 4.04495 
3.80424 1.42204 1.44552 1.51257 1.73451 1.6885 1.6885 1.46322 5.77972 
4.99269 4.15114 4.11901 4.27716 4.21352 4.0607 4.10065 4.23281 4.1196 
4.0733 3.08454 3.03087 2.93357 2.90911 2.90911 3.06574 3.10953 3.15878 
3.00293 2.86587 2.92898 2.92898 3.12676 3.15793 2.96429 3.25997 3.28857 
3.28857 2.78855 2.90843 2.96161 2.5781 2.69231 2.67461 2.67461 2.6273 
2.67882 2.63979 2.91015 2.85554 3.21531 4.61956 4.36311 3.57501 3.27484 
3.05226 3.16332 3.07044 3.43094 3.55426 3.3027 3.48128 3.46094 3.46094 
3.59231 3.50752 3.45401 3.32705 3.23808 3.21704 3.21704 3.09963 3.00186 
3.00186 2.86407 2.93177 2.92968 2.97216 3.125 3.89269 3.33699 3.11039 
3.05246 3.39562 3.56645 4.21398 5.22888 5.22888 5.56922 5.99171 6.26217 
6.21504 6.24974 5.93407 5.5125 3.14107 3.18882 1.99398 3.13444 3.75803 
3.85139 4.16779 4.43879 4.38986 4.38986 4.15084 3.91164 3.79171 3.58082 
3.2882 2.73262 2.50565 2.50565 3.28277 3.31343 3.31343 3.24677 2.86815 
3.19946 3.19946 3.39603 3.44931 3.44931 3.29164 3.21154 3.12769 3.12769 
2.98801 2.89306 2.89306 2.63666 2.62538 2.67702 2.67702 2.68255 2.70167 
2.64148 2.71824 2.82765 2.84719 2.81212 3.05885 3.11491 2.9183 2.9183 
2.44134 3.23273 
rRFP 1 407 double
4415.04 3924.7 3652.42 3735.59 3541.59 3786.12 3648.65 4421.27 4296.35 
5819.58 3957.51 5105.02 4747.43 5765.94 6515.62 4607.05 5322.15 2962.35 
6449.07 3349.48 3799.33 6422.95 5892.15 4201.32 6673.53 3811.7 5471.3 
4480.17 6558.26 3763.21 4447.33 4879.58 5108.07 5821.31 4363.2 5341.47 
5455.19 5220.91 6152.2 6152.2 6481.79 6584.4 6584.4 6507.42 6335.95 
6165.28 6090.63 5917.02 5887.1 5455.19 5341.47 5885.98 5885.98 5884.62 
5524.35 5524.35 5198.2 5607.26 6148.25 6450.19 6450.19 5878.4 5385.01 
5210.62 5328.37 5848.01 6362.78 4695.28 4913.12 5125 5137.06 5045.42 
4862.62 4852.59 5058.96 4826.17 5015.27 4890.67 4720.25 4114.9 5996.35 
5058.42 4948.65 5195.57 5766.63 6060.31 6303.32 6219.86 6255.35 6059.35 
6059.35 5839.59 5485.77 5328.63 5246.6 5668.88 5668.88 5829.3 5891.42 
5916.23 5953.44 6285.8 6248.12 5977.06 5519.88 5192.83 4945.06 4323.26 
4017.64 3950.05 3853.42 3817.67 3895.07 4264.56 4251.25 4506.42 4856.6 
4924.73 5060.25 5095.58 5112.63 5105.77 5040.51 4602.62 4402.32 4104.28 
6677.68 6779.06 6522.2 6534.11 6751.48 6711.17 6716.23 6708.17 6492.88 
6499.15 6086.25 5559.46 5930.05 6192.72 6172.54 6273.22 5996.67 5860.63 
6017.01 5586.23 5586.23 5565.25 5219.95 5331.93 5371.72 5120.56 5248.77 
4914.33 4811.75 4925.65 4615.02 4824.02 4761.59 4529.07 4671.12 4729.01 
4672.09 4916.7 4850.35 4737.1 4901.81 4863.73 4845.01 4950.95 4943.54 
4943.54 4835.49 4989.21 4989.21 4913.88 5135.93 5135.93 5209.4 5559.6 
5716.23 5716.23 5819.74 5942.21 6008.91 6182.77 6367.33 6139.15 6107.96 
6220.84 5952.36 5953.68 5727.17 5686.53 5388.17 4429.37 5003.93 4879.32 
4840.3 5057.41 5629.11 5872.47 6559.65 5929.86 5871.77 6039.83 5854.77 
5448.4 6448.75 6289.84 5682.69 5430.2 5392.07 6072.81 6156.59 6353.96 
6466.14 6284.43 6065.04 5779.41 4965.56 4534.27 4526.27 4242.83 4424.58 
4448.11 5554.96 5528.35 6523.59 5491.4 5312.36 5022.14 4563.32 4193.16 
4106.25 3893.33 3893.33 3801.25 4007.91 4023.67 4037.48 3978.63 3954.11 
4074.31 4023.9 4023.9 3961.77 3961.77 4125 3975.58 3975.58 4125.64 
4172.99 4354.02 4514.35 4661.06 4925.8 4818.21 5264.65 5452.96 5177.94 
5002.79 3269.44 3286.52 3335.31 3496.8 3463.32 3463.32 3299.4 6440.21 
5867.54 5255.21 5231.83 5346.9 5300.6 5189.4 5218.47 5314.63 5232.26 
5198.57 4479.12 4440.07 4369.27 4351.47 4351.47 4465.44 4497.3 4533.14 
4419.74 4320.01 4365.93 4365.93 4509.84 4532.52 4391.62 4606.77 4627.58 
4627.58 4263.75 4350.98 4389.67 4110.62 4193.72 4180.84 4180.84 4146.42 
4183.91 4155.51 4352.23 4312.49 4574.27 5596.04 5409.44 4836 4617.59 
4455.63 4536.44 4468.86 4731.17 4820.9 4637.86 4767.8 4753 4753 
4848.59 4786.89 4747.96 4655.58 4590.84 4575.53 4575.53 4490.1 4418.96 
4418.96 4318.7 4367.96 4366.44 4397.35 4508.56 5067.15 4662.81 4497.93 
4455.78 4705.47 4829.77 5300.93 6039.4 6039.4 6287.04 6594.46 6791.25 
6756.96 6782.21 6552.52 6245.77 4520.25 4555 3685.6 4515.43 4969.17 
5037.1 5267.32 5464.51 5428.91 5428.91 5254.99 5080.94 4993.68 4840.23 
4627.31 4223.05 4057.9 4057.9 4623.36 4645.67 4645.67 4597.16 4321.67 
4562.74 4562.74 4705.77 4744.54 4744.54 4629.81 4571.53 4510.52 4510.52 
4408.88 4339.79 4339.79 4153.23 4145.02 4182.6 4182.6 4186.62 4200.53 
4156.74 4212.59 4292.2 4306.42 4280.9 4460.43 4501.22 4358.16 4358.16 
4011.11 4586.95 
rGFP 1 407 double
4707.11 4453.72 4398.12 3793.64 3936.67 3847.48 3205.38 4763.21 4873.84 
4995.91 4056.8 5046.43 5219.16 5344.17 5180.47 4829.77 5940.12 3398.72 
5285.35 4683.98 3294.17 5234.25 6527.72 4307.89 5327.96 4853.49 5426.31 
5379.1 4772 3809.14 4413.67 4579.79 5082.6 5252.1 4436.36 4525.73 
4734.67 4367.17 4713.49 4713.49 4727.23 4636.43 4636.43 4567.68 4606.84 
4700.99 4737.2 4817.35 4847.36 4734.67 4525.73 4870.47 4870.47 4860.02 
4928.57 4928.57 4828.62 5266 4958.09 5236.89 5236.89 4968.41 4780.59 
4835.62 4656.8 4865.64 5096.72 4470.33 4709.67 4768.84 4663.23 4492.15 
4555.17 4434.52 4021.33 4409.64 4299.74 4217.65 4408.47 3836.27 4692.62 
4368.16 4511.33 4819.33 5104.68 5238.4 5287.36 5336.54 5321.02 5173.23 
5173.23 4992.2 4853.65 4927.6 4806.11 5006.36 5006.36 4801.44 4931.28 
4892.99 4795.81 4903.74 5059.95 5205.44 4979.94 4754.28 4746.9 4432.59 
4386.67 4423.78 4348.94 4421.04 4422.95 4345.09 4394.22 4382.15 4356.11 
4381.96 4352.17 4472.16 4554.79 4587.06 4655.07 4628.42 4647.12 4595.22 
4714.6 4800.58 4802.79 4917.81 5463.02 5815.19 5802.86 5930.79 5873.68 
5704.58 5768.1 5357.94 5371.86 5360.11 5339.94 5225.74 5106.37 5109.79 
5090.98 5118.94 5118.94 5133.42 5287.25 5241.12 5238.06 5317.68 5200.69 
5280.77 5273.26 5212.33 5274.46 5117.62 5027.78 5215.47 5154.15 5239.23 
5353.69 5115.89 5269.14 5331.69 5296.83 5445.44 5382.85 5327.17 5260.47 
5260.47 5284.28 5266.47 5266.47 5297.91 5095.33 5095.33 4869.96 4777.11 
4561.72 4561.72 4552.37 4553.94 4847.9 4916.67 5079.69 5265.52 5360.33 
5239.17 5344.78 5254.62 5167.11 5201.07 5218.01 5104.42 5544.65 5666.32 
5788.49 6141.95 6185.75 6341.65 5363.12 5297.17 5235.98 5094.53 6613.19 
5869.19 5106.78 5165.96 5194.62 5009.52 5104.04 4981.88 4869.7 4810.64 
4626.16 4477.25 4369.96 4246.65 3963.6 3785.31 3934.16 3929.52 4317.56 
4604.42 4935.23 5036.32 5294.41 6137.1 6233.01 6017.96 5478.46 5276.7 
5273 4967.54 4967.54 4870.51 4758.94 4843.95 4666.36 4479.28 4597.23 
4508.27 4401.38 4401.38 4331.2 4331.2 4320.6 4264.16 4264.16 4292.86 
4317.7 4248.47 4522.89 4656.74 3973.04 4001.48 4280.64 4660.51 4798.31 
4950.25 4355.91 4224.21 4166.31 4198.05 4169.99 4169.99 3951.89 5275.47 
5033.37 5090.7 5018.19 4849.85 4929.09 4967.62 4922.8 4857.12 4802.26 
4983.47 5147.02 4937.49 4859.9 4763.95 4763.95 5035.64 4997.06 5055.02 
5112.02 4775.49 4766.49 4766.49 4663.42 4764 4920.17 4847.73 4837.25 
4837.25 5046.23 5135.81 5006.6 4887.54 4628.48 4493.94 4493.94 4402.17 
4443.27 4602.6 4513.19 4634.64 4683.12 5270.72 5195.07 5263.56 5380.07 
5371.79 5251.67 5311.01 5143.64 5018.25 5266.41 4962.09 4979.65 4979.65 
4848.43 4928.79 4874.25 5027.11 4839.07 4719.2 4719.2 4559.02 4556.89 
4556.89 4539.81 4580.6 4596.84 4710.73 4819.17 5142.3 4882.6 4771.79 
4941.14 4814.64 4748.88 4670.62 4897.36 4897.36 4955.44 4911.07 4914.94 
4869.38 4710.37 4739.56 4742.25 4737.3 4886.06 3251.36 3800.19 4147.51 
4320.94 4702.31 4813.22 4840.4 4840.4 4833.11 4824.83 4901.57 4912.07 
4721.21 4303.35 4137.77 4137.77 4594.48 4732.59 4732.59 4758.32 4660.75 
4657.32 4657.32 4606.8 4466.75 4466.75 4241.49 4241.59 4325.69 4325.69 
4331.36 4257.52 4257.52 4251.93 4303.99 4312.19 4312.19 4283.02 4168.96 
4130.09 4189.3 4296.84 4324.3 4289.78 4234.91 4327.37 4300.25 4300.25 
4169.93 4748.41 
bkstRFP 1 407 double
2180.32 1689.98 1417.7 1500.87 1306.87 1551.4 1413.93 2186.55 2061.63 
3584.86 1722.79 2870.3 2512.71 3531.22 4280.9 2372.33 3087.43 727.628 
4214.35 1114.76 1564.61 4188.23 3657.43 1966.6 4438.81 1576.98 3236.58 
2245.45 4323.54 1528.49 2212.61 2644.86 2873.35 3586.59 2128.48 3106.75 
3220.47 2986.19 3917.48 3917.48 4247.07 4349.68 4349.68 4272.7 4101.23 
3930.56 3855.91 3682.3 3652.38 3220.47 3106.75 3651.26 3651.26 3649.9 