# vtk DataFile Version 3.0
vtk output
ASCII
DATASET POLYDATA
POINTS 423 float
0.974177 -0.765484 -0.141098 5.04437 -0.628331 0.46926 -0.46072 -0.0518262 -0.137811 
4.69316 -0.427167 0.116788 6.20489 -0.435376 0.647731 4.16157 -0.183514 0.139954 
4.50185 -0.243304 -0.301894 0.517511 0.636004 1.07019 4.2881 0.248274 -0.225714 
0.106308 0.793576 0.964958 0.276499 0.851087 1.01065 -0.730104 0.746258 -0.494348 
0.797663 0.750353 1.09248 3.06765 0.557354 -0.402593 7.21454 0.362035 -0.191051 
-0.652592 1.00296 0.311083 -0.585671 1.05298 0.155025 3.46053 0.72476 -0.084686 
0.556998 1.36279 0.968027 0.808977 1.2718 0.907401 6.83812 0.661398 0.717707 
6.77004 0.73861 -0.974577 1.06998 1.50992 0.774952 3.12617 1.26782 -0.333534 
7.08996 0.966215 -0.30714 6.88867 1.20715 0.0118556 6.02729 1.54247 0.905119 
6.51211 1.48427 0.629132 6.77987 1.37921 -0.47861 6.73727 1.3851 -0.444256 
6.68762 1.38354 -0.416789 6.62625 1.35979 -0.39914 6.57074 1.29931 -0.368722 
6.51171 1.20936 -0.33751 6.43618 1.1192 -0.325398 6.35715 1.06559 -0.326268 
6.28967 1.06224 -0.340241 6.24499 1.10774 -0.374703 6.20451 1.18985 -0.413169 
6.15493 1.30306 -0.443998 6.1084 1.42327 -0.477562 6.04858 1.53794 -0.499489 
5.98094 1.63139 -0.514399 5.91919 1.70166 -0.534213 5.8754 1.73959 -0.569379 
5.83766 1.73942 -0.609441 5.79774 1.70978 -0.647327 5.74929 1.66648 -0.67764 
5.68938 1.62481 -0.697996 5.63939 1.58172 -0.726972 5.58916 1.55356 -0.755884 
5.52361 1.55737 -0.771762 5.45847 1.58346 -0.788204 5.40421 1.60054 -0.814041 
5.34593 1.58098 -0.836018 5.30487 1.53661 -0.872772 5.27527 1.49061 -0.919492 
5.22544 1.46239 -0.948751 5.17956 1.43361 -0.981448 5.1386 1.38923 -1.01828 
5.09697 1.33751 -1.05433 5.04833 1.29444 -1.08177 4.98946 1.28381 -1.0848 
4.94169 1.30413 -1.06189 4.90256 1.35418 -1.03098 4.86518 1.41164 -0.99911 
4.82738 1.46172 -0.966508 4.78852 1.48237 -0.930286 4.75398 1.47362 -0.884275 
4.72712 1.43554 -0.824603 4.68918 1.3826 -0.775227 4.64349 1.31487 -0.732334 
4.59426 1.23238 -0.691077 4.53664 1.12772 -0.655823 4.46681 1.00823 -0.632164 
4.40051 0.874043 -0.602035 4.33777 0.727641 -0.565684 4.30368 0.567017 -0.491753 
4.28904 0.405214 -0.381179 6.48455 1.45353 0.686788 6.43228 1.42987 0.714886 
6.38278 1.41361 0.744933 6.33736 1.39739 0.779676 6.28706 1.38847 0.807615 
6.2274 1.38682 0.823584 6.1776 1.39997 0.848465 6.12893 1.42787 0.872221 
6.07314 1.47776 0.884174 6.52689 1.60318 0.542302 6.54118 1.69999 0.45853 
6.55872 1.7527 0.385746 6.58353 1.75398 0.329773 6.60341 1.71841 0.274184 
6.63337 1.66823 0.232595 6.66998 1.61814 0.198621 6.70721 1.56069 0.166581 
6.74445 1.50323 0.134542 6.78056 1.44576 0.101212 6.81137 1.38824 0.0617994 
6.83823 1.30861 0.0214865 6.5679 1.31667 0.636694 6.61583 1.17861 0.633162 
6.66854 1.0712 0.645389 6.71645 0.965488 0.675049 6.77467 0.828697 0.698436 
7.15421 0.821134 -0.288785 7.20077 0.619021 -0.254468 3.114 1.03894 -0.391621 
3.09663 0.798678 -0.408771 3.22314 1.1877 -0.309818 3.29337 1.10225 -0.284993 
3.33431 1.0078 -0.24491 3.36631 0.914629 -0.197048 3.40471 0.818845 -0.144389 
3.04009 1.37004 -0.349689 2.98867 1.43836 -0.384621 2.9518 1.46778 -0.426629 
2.91607 1.47477 -0.468569 2.87994 1.47437 -0.510034 2.84381 1.47397 -0.551499 
2.80768 1.47358 -0.592965 2.77155 1.47318 -0.63443 2.73542 1.47278 -0.675895 
2.6992 1.4724 -0.717289 2.66162 1.47221 -0.757494 2.61655 1.47309 -0.791181 
2.56011 1.47559 -0.814974 2.51495 1.47649 -0.848589 2.47536 1.46914 -0.886972 
2.42851 1.44794 -0.918901 2.36861 1.40627 -0.939257 2.31813 1.3558 -0.967742 
2.26822 1.31271 -0.99679 2.20994 1.29315 -1.01877 2.16276 1.28688 -1.05055 
2.11422 1.28081 -1.08115 2.04707 1.26252 -1.09542 1.97822 1.22213 -1.10799 
1.92574 1.16451 -1.13466 1.87405 1.09933 -1.16195 1.81238 1.03557 -1.18055 
1.76134 0.977746 -1.20847 1.71079 0.927297 -1.23689 1.64935 0.885852 -1.25592 
1.58985 0.836682 -1.27655 1.51754 0.789334 -1.28604 1.43822 0.750447 -1.2895 
1.35922 0.733846 -1.29346 1.28127 0.731981 -1.29847 1.20388 0.737483 -1.30405 
1.12657 0.742986 -1.30954 1.05109 0.75587 -1.31413 0.984565 0.783564 -1.31087 
0.938088 0.840913 -1.28944 0.901625 0.927805 -1.26135 0.867419 1.04415 -1.23551 
0.826157 1.16779 -1.21898 0.768381 1.27653 -1.21898 0.713079 1.34849 -1.21009 
0.674224 1.39121 -1.17749 0.615466 1.41899 -1.16532 0.549581 1.43934 -1.16011 
0.488994 1.43031 -1.14399 0.415489 1.38435 -1.13664 0.333803 1.31622 -1.13505 
0.253243 1.26282 -1.13459 0.181504 1.23895 -1.12885 0.122112 1.22993 -1.11135 
0.0599689 1.21353 -1.0958 0.00615898 1.17514 -1.06706 -0.0482163 1.12938 -1.03776 
-0.112615 1.08352 -1.01996 -0.17419 1.04505 -1.00013 -0.246283 0.999108 -0.991165 
-0.317245 0.953164 -0.980899 -0.372257 0.914767 -0.953539 -0.424382 0.898475 -0.926493 
-0.484057 0.896811 -0.91053 -0.533142 0.902624 -0.883625 -0.5756 0.908511 -0.849113 
-0.616217 0.907057 -0.811279 -0.651261 0.890952 -0.764632 -0.676777 0.852879 -0.703422 
-0.704973 0.807406 -0.644076 -0.721384 0.769434 -0.572416 1.02783 1.50601 0.811534 
0.980762 1.47276 0.84926 0.913667 1.39114 0.883994 0.544636 1.45381 0.879109 
0.519425 1.51815 0.818315 0.48641 1.54698 0.772501 0.450892 1.55394 0.730365 
0.414761 1.55354 0.688899 0.37863 1.55315 0.647434 0.342498 1.55275 0.605969 
0.306284 1.55236 0.564575 0.268705 1.55217 0.52437 0.224197 1.56042 0.490121 
0.169453 1.58502 0.464635 0.127757 1.63008 0.427583 0.0940444 1.68146 0.383513 
0.059767 1.72547 0.340007 0.0163868 1.74844 0.304635 -0.0400569 1.75095 0.280841 
-0.0868215 1.72974 0.24884 -0.127867 1.68538 0.212079 -0.170125 1.62629 0.176514 
-0.221804 1.56111 0.149218 -0.294785 1.48656 0.14052 -0.379872 1.38391 0.14179 
-0.47553 1.2352 0.147488 6.83631 0.608127 -0.958117 6.89612 0.493461 -0.936189 
6.94346 0.402913 -0.903614 6.98684 0.327827 -0.86774 7.00661 0.263554 -0.8114 
7.03017 0.19875 -0.758357 7.06042 0.140426 -0.711208 7.09309 0.0966423 -0.666298 
7.12801 0.0823274 -0.623637 7.1631 0.0903099 -0.581486 7.18919 0.114282 -0.534052 
7.18782 0.133719 -0.475923 7.16769 0.15433 -0.421386 7.15918 0.189894 -0.354457 
7.17216 0.261807 -0.277694 0.715407 1.31076 0.900926 0.642261 1.34052 0.924558 
0.409863 1.1102 0.992742 6.79447 0.534826 0.772628 6.75308 0.408268 0.830136 
6.69222 0.288867 0.864086 6.63516 0.191571 0.898778 6.57789 0.123716 0.928378 
6.50509 0.0704014 0.937752 6.42349 0.00226585 0.939265 6.34045 -0.0882035 0.939679 
6.26717 -0.187517 0.931534 6.22444 -0.273838 0.896547 6.21229 -0.342328 0.833042 
6.20981 -0.393149 0.75048 6.87267 0.567124 0.688644 6.91174 0.517055 0.657497 
6.96069 0.525952 0.628013 7.01472 0.556988 0.600732 7.04771 0.57307 0.551732 
7.08121 0.552373 0.509357 7.1183 0.524345 0.472318 7.15158 0.518358 0.427274 
7.17597 0.541706 0.367187 7.20247 0.565078 0.309528 7.2155 0.558868 0.241241 
7.21907 0.51577 0.168149 7.22028 0.457908 0.0946946 7.22145 0.407304 0.0185062 
7.22097 0.378073 -0.0721361 3.5621 0.684633 -0.0854637 3.63859 0.655981 -0.091283 
3.68973 0.640219 -0.116267 3.73229 0.631872 -0.150374 3.77439 0.618621 -0.184083 
3.82312 0.590731 -0.207763 3.88739 0.533578 -0.20878 3.9582 0.456841 -0.199422 
4.03364 0.372308 -0.19004 4.13467 0.304641 -0.194263 0.811473 1.00782 0.997992 
0.558733 0.995278 1.003 3.45169 0.700629 0.0133021 3.44367 0.692706 0.0967436 
3.43024 0.711258 0.163587 3.40142 0.758991 0.206958 3.36672 0.816479 0.241907 
3.33683 0.866648 0.283579 3.31632 0.894849 0.339656 3.29186 0.915655 0.392396 
3.27086 0.936489 0.449118 3.24047 0.96458 0.493849 3.20895 0.977948 0.539703 
3.18626 0.976691 0.598111 3.15841 0.953304 0.654224 3.13396 0.929965 0.714234 
3.09786 0.899127 0.76209 3.05688 0.875596 0.80314 3.02071 0.844757 0.850912 
2.99491 0.821393 0.909385 2.95797 0.797907 0.955057 2.90902 0.78901 0.984541 
2.84948 0.787348 1.00066 2.8004 0.793161 1.02757 2.75731 0.79168 1.06257 
2.71422 0.775487 1.09998 2.66824 0.737189 1.1377 2.61337 0.684072 1.16764 
2.54135 0.623405 1.17912 2.46806 0.562725 1.18913 2.40408 0.509508 1.20863 
2.33249 0.470928 1.21696 2.26322 0.447086 1.22554 2.20926 0.423412 1.25169 
2.15411 0.385014 1.27888 2.08188 0.339057 1.28769 2.00252 0.300392 1.28711 
1.92478 0.283818 1.28476 1.85466 0.282039 1.28874 1.79513 0.287738 1.30366 
1.72685 0.29334 1.30853 1.65856 0.298942 1.31341 1.59912 0.304629 1.32826 
1.53101 0.31001 1.33041 1.46391 0.314236 1.31844 1.40843 0.316617 1.29395 
1.35039 0.319354 1.27156 1.3037 0.320465 1.23927 1.25573 0.321762 1.20811 
1.19018 0.32557 1.19223 1.12384 0.336941 1.17698 1.06853 0.361619 1.15199 
1.00404 0.417392 1.1347 0.934302 0.503695 1.12168 0.865459 0.619651 1.10761 
-0.597172 1.08117 0.0573369 -0.621243 1.11534 -0.00722472 -0.644654 1.14773 -0.0618922 
-0.658835 1.16404 -0.122737 -0.684006 1.16952 -0.173809 -0.709659 1.16763 -0.224391 
-0.724444 1.15673 -0.284356 -0.74334 1.1241 -0.340385 -0.75154 1.04547 -0.402733 
-0.748349 0.914277 -0.458825 -0.629545 1.03489 0.231801 7.1128 0.104621 -0.151517 
7.04216 -0.102387 -0.103789 6.99535 -0.243598 -0.0485408 6.96444 -0.33324 0.0150171 
6.92538 -0.400895 0.0655242 6.88031 -0.461265 0.10793 6.83462 -0.514282 0.148402 
6.78998 -0.552564 0.187666 6.74703 -0.568756 0.225244 6.70521 -0.570224 0.261698 
6.66396 -0.564324 0.29759 6.62263 -0.558425 0.333398 6.58011 -0.55254 0.367835 
6.53101 -0.546726 0.394732 6.47198 -0.541022 0.410216 6.42289 -0.535209 0.437121 
6.38093 -0.521956 0.470995 6.34089 -0.49887 0.505569 6.30095 -0.468272 0.540987 
6.25692 -0.446614 0.585267 3.00965 0.340169 -0.353476 2.93015 0.171515 -0.324508 
2.85146 0.041027 -0.307296 2.78388 -0.0582134 -0.284263 2.70707 -0.148356 -0.273452 
2.62601 -0.223844 -0.269931 2.55088 -0.291895 -0.260815 2.4862 -0.352481 -0.24092 
2.41158 -0.413166 -0.232441 2.33046 -0.473933 -0.231417 2.24933 -0.5347 -0.230393 
2.17535 -0.58804 -0.222555 2.1139 -0.626743 -0.205672 2.05304 -0.644733 -0.209617 
2.00561 -0.650766 -0.238617 1.95762 -0.649457 -0.269623 1.89208 -0.645649 -0.285501 
1.82517 -0.641645 -0.300191 1.76817 -0.639058 -0.323501 1.69973 -0.634835 -0.336853 
1.62379 -0.629539 -0.343686 1.54656 -0.624048 -0.349249 1.47051 -0.618531 -0.353284 
1.40229 -0.612928 -0.348333 1.35187 -0.60713 -0.322966 1.30871 -0.608612 -0.28805 
1.26562 -0.624805 -0.250638 1.21971 -0.663102 -0.212829 1.1666 -0.708849 -0.182071 
1.10284 -0.747342 -0.164754 1.04296 -0.76372 -0.146611 0.710147 0.643001 1.09491 
0.619841 0.604749 1.08876 -0.706383 0.58464 -0.440517 -0.680406 0.45247 -0.388933 
-0.651525 0.357124 -0.340233 -0.620151 0.276306 -0.293844 -0.581284 0.194407 -0.253974 
-0.531608 0.103535 -0.223436 -0.492741 0.021636 -0.183566 0.354482 0.730245 1.035 
0.422788 0.659966 1.06136 0.189127 0.820633 0.979546 4.4035 0.0414157 -0.249586 
4.46453 -0.12164 -0.274653 4.3188 0.128417 -0.073169 4.297 0.00980192 0.0102722 
4.25193 -0.089763 0.0598217 4.20564 -0.152588 0.101252 4.40658 0.206826 -0.129188 
4.46967 0.162129 -0.0658425 4.50565 0.101009 -0.0170337 4.53715 0.0177168 0.0296082 
4.57473 -0.101216 0.0709573 4.63036 -0.252512 0.0968833 6.10622 -0.467856 0.64384 
6.01902 -0.506084 0.641105 5.93807 -0.554748 0.638255 5.86689 -0.604735 0.627748 
5.81537 -0.647597 0.600103 5.76562 -0.668381 0.5707 5.69951 -0.671939 0.555385 
5.6326 -0.667935 0.540695 5.57624 -0.657992 0.516757 5.51038 -0.639253 0.501015 
5.44508 -0.613146 0.48471 5.38865 -0.603192 0.460838 5.31971 -0.606335 0.44813 
5.24335 -0.623117 0.444439 5.17275 -0.632265 0.448904 5.11265 -0.633933 0.464384 

LINES 30 485
52 28 29 30 31 32 33 34 35 36 37 38 39 40 41 42 43 44 45 46 47 48 49 50 51 52 53 54 55 56 57 58 59 60 61 62 63 64 65 66 67 68 69 70 71 72 73 74 75 76 77 78 8 
11 27 79 80 81 82 83 84 85 86 87 26 
14 27 88 89 90 91 92 93 94 95 96 97 98 99 25 
7 27 100 101 102 103 104 20 
4 24 105 106 14 
7 23 109 110 111 112 113 17 
73 23 114 115 116 117 118 119 120 121 122 123 124 125 126 127 128 129 130 131 132 133 134 135 136 137 138 139 140 141 142 143 144 145 146 147 148 149 150 151 152 153 154 155 156 157 158 159 160 161 162 163 164 165 166 167 168 169 170 171 172 173 174 175 176 177 178 179 180 181 182 183 184 11 
5 22 185 186 187 19 
25 18 188 189 190 191 192 193 194 195 196 197 198 199 200 201 202 203 204 205 206 207 208 209 210 16 
17 21 211 212 213 214 215 216 217 218 219 220 221 222 223 224 225 14 
4 19 226 227 18 
3 18 228 10 
14 20 229 230 231 232 233 234 235 236 237 238 239 240 4 
17 20 241 242 243 244 245 246 247 248 249 250 251 252 253 254 255 14 
12 17 256 257 258 259 260 261 262 263 264 265 8 
3 19 266 12 
3 18 267 7 
55 17 268 269 270 271 272 273 274 275 276 277 278 279 280 281 282 283 284 285 286 287 288 289 290 291 292 293 294 295 296 297 298 299 300 301 302 303 304 305 306 307 308 309 310 311 312 313 314 315 316 317 318 319 320 12 
12 16 321 322 323 324 325 326 327 328 329 330 11 
3 16 331 15 
22 14 332 333 334 335 336 337 338 339 340 341 342 343 344 345 346 347 348 349 350 351 4 
4 12 383 384 7 
9 11 385 386 387 388 389 390 391 2 
4 10 392 393 7 
3 10 394 9 
4 8 395 396 6 
6 8 397 398 399 400 5 
8 8 401 402 403 404 405 406 3 
18 4 407 408 409 410 411 412 413 414 415 416 417 418 419 420 421 422 1 
36 23 107 108 13 352 353 354 355 356 357 358 359 360 361 362 363 364 365 366 367 368 369 370 371 372 373 374 375 376 377 378 379 380 381 382 0 

POINT_DATA 423
SCALARS DY_raw double
LOOKUP_TABLE default
116.915 160.222 85.7078 149.881 95.4277 159.48 103.113 134.593 132.478 
115.433 112.31 96.9602 124.599 76.8768 162.443 130.015 80.4639 85.145 
111.035 91.8237 152.588 133.794 69.3067 91.7082 147.593 166.388 117.652 
111.172 130.358 158.159 155.224 164.777 152.305 158.849 162.926 154.034 
166.071 138.988 152.9 142.155 136.743 156.642 165.43 170.649 164.102 
156.374 136.436 147.227 135.437 194.955 187.2 179.98 179.98 164.823 
152.516 162.874 156.198 145.778 163.54 151.935 164.948 128.936 126.84 
122.123 116.765 93.3348 93.5175 88.8567 78.8348 81.7725 88.1926 94.366 
116.55 117.052 120.326 102.827 105.273 117.316 123.655 116.581 131.969 
135.568 121.206 153.314 166.413 141.87 155.751 162.217 82.2287 77.3727 
100.464 101.521 101.521 115.96 127.476 136.229 133.48 129.822 131.127 
145.341 141.016 161.729 166.903 159.741 144.193 152.185 140.236 99.7317 
73.78 97.6265 79.9696 67.8891 57.6173 77.4489 84.0676 74.7989 63.7218 
69.5323 67.6846 67.6846 72.7391 73.5162 73.5162 72.747 72.747 78.3056 
69.6601 69.6601 81.9722 68.99 79.6028 70.7226 85.6221 85.6221 85.3766 
70.6868 70.6868 77.6483 87.137 108.351 102.656 143.083 121.892 90.661 
122.281 114.151 90.8528 77.082 91.6318 82.6323 79.4585 88.4821 83.7645 
79.5369 98.8147 70.9855 74.4927 76.3611 59.9571 69.7825 56.3037 56.3037 
64.4899 56.6829 57.5791 71.1593 54.0257 44.5033 64.6331 73.1479 95.0952 
102.101 90.7707 81.9429 73.3707 75.9978 67.6857 71.2429 68.8427 67.6963 
67.6963 66.7888 77.4382 84.91 92.8826 76.8937 80.3403 94.3225 89.1835 
84.9585 81.7149 83.8249 85.5932 88.8539 88.8539 89.6711 92.8073 89.76 
97.3011 89.4926 85.4376 74.4889 74.4889 75.2158 73.8049 83.7976 93.8674 
91.9051 91.2995 80.5292 72.7501 188.397 184.933 171.459 183.02 187.35 
178.248 184.751 189.289 167.202 167.202 161.448 149.296 150.549 143.836 
147.531 84.3174 90.5531 120.74 155.542 164.499 161.534 155.396 168.131 
163.44 207.156 213.728 224.031 205.596 154.991 122.3 145.902 141.914 
141.914 137.223 136.903 145.132 143.409 154.04 155.413 150.972 148.118 
133.003 133.759 144.24 151.159 83.3504 91.2445 95.8831 126.661 130.757 
130.757 145.297 162.912 162.849 155.657 108.979 118.338 88.5583 90.7889 
90.2232 81.7018 74.0326 66.143 60.0108 64.3497 66.3345 78.3597 78.3597 
93.0883 107.857 107.857 88.0077 89.7173 103.252 128.735 128.735 120.206 
108.022 108.022 101.557 93.0123 101.9 95.4475 89.9367 99.4393 92.1498 
102.195 109.214 138.229 126.649 110.427 126.483 126.483 116.441 99.8908 
83.8995 97.8722 87.6008 106.781 104.903 111.59 108.013 112.139 116.604 
130.618 130.618 127.169 127.496 136.157 137.217 63.288 56.9979 47.5312 
53.492 69.5714 88.0886 95.556 85.9551 84.2484 86.0394 107.375 184.815 
207.266 190.033 169.645 148.827 152.595 170.505 191.169 210.659 210.659 
201.339 139.22 116.702 116.702 117.372 119.272 119.272 103.235 99.3962 
102.229 70.6925 73.9365 96.6018 111.633 105.296 90.1997 75.01 68.4361 
75.1608 74.6113 104.121 95.9989 90.1436 104.244 115.593 112.609 121.52 
113.313 102.943 106.339 82.5207 82.5207 88.0454 65.1228 78.9586 87.2558 
74.0732 89.1041 101.342 111.323 102.958 139.035 140.047 93.5208 90.355 
88.6652 80.3857 75.1678 82.0825 88.4358 122.396 126.741 122.59 116.453 
118.989 129.621 136.863 156.768 160.907 110.706 106.827 101.433 108.27 
129.298 130.488 118.934 135.003 158.382 198.749 268.125 268.125 320.352 
272.218 320.855 209.946 226.794 196.952 221.416 221.759 195.973 169.914 

FIELD FieldData 7
DY_minmax 1 423 double
0.262027 0.418738 0.149102 0.381317 0.184274 0.416052 0.212085 0.325998 0.318345 
0.256666 0.245363 0.18982 0.289834 0.117146 0.426775 0.309429 0.130126 0.147065 
0.24075 0.171233 0.391113 0.323106 0.0897533 0.170815 0.373037 0.441049 0.264693 
0.241245 0.310674 0.411273 0.400653 0.43522 0.39009 0.413769 0.42852 0.396344 
0.439904 0.341899 0.392241 0.35336 0.333776 0.405784 0.437584 0.45647 0.432777 
0.404814 0.332667 0.371713 0.32905 0.544423 0.516359 0.490233 0.490233 0.435385 
0.390851 0.428333 0.404176 0.36647 0.430742 0.388751 0.435838 0.305527 0.297941 
0.280872 0.261483 0.176701 0.177362 0.160496 0.124231 0.134862 0.158093 0.180432 
0.260706 0.262524 0.27437 0.211048 0.2199 0.26348 0.286417 0.260818 0.316501 
0.329525 0.277554 0.393739 0.441141 0.35233 0.402558 0.425956 0.136512 0.118941 
0.202498 0.206322 0.206322 0.258571 0.300243 0.331916 0.321968 0.308731 0.313456 
0.364889 0.34924 0.424191 0.442913 0.416995 0.360734 0.389654 0.346415 0.199848 
0.10594 0.192231 0.128338 0.0846234 0.0474542 0.119216 0.143167 0.109627 0.0695437 
0.0905695 0.0838836 0.0838836 0.102174 0.104986 0.104986 0.102202 0.102202 0.122316 
0.091032 0.091032 0.135584 0.0886072 0.12701 0.0948767 0.148792 0.148792 0.147903 
0.0947472 0.0947472 0.119938 0.154273 0.231038 0.210428 0.356717 0.280036 0.167025 
0.281445 0.252028 0.167719 0.117889 0.170538 0.137973 0.126488 0.159141 0.14207 
0.126772 0.19653 0.0958282 0.108519 0.11528 0.055921 0.0914748 0.0427008 0.0427008 
0.0723232 0.0440728 0.0473158 0.0964569 0.0344576 0 0.0728414 0.103653 0.183071 
0.208421 0.167422 0.135478 0.104459 0.113965 0.0838876 0.0967594 0.0880742 0.0839257 
0.0839257 0.0806421 0.119177 0.146215 0.175064 0.117207 0.129679 0.180275 0.161679 
0.14639 0.134653 0.142288 0.148687 0.160486 0.160486 0.163443 0.174792 0.163765 
0.191053 0.162797 0.148124 0.108506 0.108506 0.111136 0.10603 0.14219 0.178628 
0.171527 0.169336 0.130363 0.102214 0.520691 0.508157 0.459397 0.501234 0.516903 
0.483965 0.507496 0.52392 0.443995 0.443995 0.423174 0.3792 0.383736 0.359445 
0.372814 0.14407 0.166635 0.27587 0.401801 0.434215 0.423484 0.401275 0.447355 
0.430383 0.588573 0.612353 0.649636 0.582928 0.399809 0.281515 0.366918 0.35249 
0.35249 0.335512 0.334356 0.364133 0.357897 0.396369 0.401337 0.385265 0.374939 
0.320241 0.32298 0.360904 0.385943 0.140571 0.169137 0.185922 0.297293 0.312118 
0.312118 0.364729 0.42847 0.428242 0.402219 0.233311 0.267176 0.159417 0.167488 
0.165441 0.134606 0.106854 0.0783051 0.0561153 0.0718157 0.0789979 0.122512 0.122512 
0.175809 0.229252 0.229252 0.157424 0.16361 0.212588 0.304799 0.304799 0.273936 
0.229847 0.229847 0.206455 0.175534 0.207696 0.184346 0.164405 0.19879 0.172413 
0.208763 0.23416 0.339154 0.297252 0.238549 0.296649 0.296649 0.260312 0.200424 
0.142558 0.19312 0.155952 0.225355 0.218563 0.242758 0.229815 0.244746 0.260903 
0.311613 0.311613 0.299133 0.300314 0.331657 0.335492 0.0679741 0.0452127 0.010957 
0.0325266 0.0907112 0.157717 0.184738 0.149997 0.143821 0.150302 0.227508 0.507729 
0.588968 0.526611 0.452836 0.377504 0.391137 0.455949 0.530722 0.601249 0.601249 
0.567522 0.342739 0.261258 0.261258 0.26368 0.270557 0.270557 0.212526 0.198634 
0.208885 0.0947677 0.106506 0.188523 0.242915 0.219984 0.165356 0.110391 0.0866029 
0.110937 0.108948 0.215731 0.186341 0.165153 0.216175 0.257244 0.246447 0.278689 
0.248992 0.21147 0.223759 0.137569 0.137569 0.157561 0.0746134 0.12468 0.154703 
0.107001 0.161391 0.205676 0.241792 0.211523 0.342069 0.345731 0.177374 0.165918 
0.159804 0.129843 0.110962 0.135983 0.158973 0.28186 0.297585 0.282562 0.260355 
0.269534 0.308005 0.33421 0.406237 0.421214 0.239559 0.225522 0.206005 0.230746 
0.306835 0.311142 0.269333 0.32748 0.41208 0.558149 0.809191 0.809191 0.998181 
0.824005 1 0.598667 0.659634 0.551649 0.640174 0.641414 0.548105 0.453808 

WidthEq 1 423 double
2.18159 1.46971 3.40296 1.19995 2.16122 1 2.56698 5.03963 4.55908 
4.48362 5.61813 4.42254 5.9449 4.99396 5.02933 3.12157 5.69087 3.17494 
4.59765 7.07519 4.53076 3.96295 3.41453 3.86279 3.32164 3.82185 1.66033 
3.8096 3.55481 4.19216 4.34229 4.29077 4.2118 3.97314 4.02761 4.23246 
4.2616 4.18232 4.09942 4.04235 3.45086 3.02619 3.22553 3.17018 3.21678 
3.23237 3.2193 3.0722 2.91398 2.52191 2.58472 2.8257 2.8257 3.18009 
3.30065 3.20199 2.94921 2.83184 2.65942 2.682 2.54602 2.86421 2.84879 
2.68287 2.3878 2.37586 2.33582 2.74532 3.28421 3.42854 4.11905 5.06051 
4.98706 5.07406 4.908 4.95407 4.31145 4.52971 4.81744 3.86599 3.44687 
3.11224 3.33466 2.70302 2.41069 2.4853 2.28101 1.58294 3.80159 3.59856 
3.28984 3.34691 3.34691 3.50932 3.54522 3.48708 3.68296 4.12528 4.23062 
4.1038 3.96805 3.45621 3.43241 3.53673 4.30944 3.90045 4.43589 3.58472 
4.11209 3.19647 2.58611 2.42543 2.72557 3.04756 4.10776 4.36063 4.39724 
3.81679 3.58353 3.58353 3.05503 2.91868 2.91868 2.94734 2.94734 3.09812 
3.30203 3.30203 3.27538 3.45847 3.30843 3.12587 2.98206 2.98206 2.83708 
2.91087 2.91087 2.9103 2.77712 2.94496 3.0237 2.60535 2.9034 3.11611 
2.94346 2.94092 3.16721 3.27897 3.11071 3.26265 3.57054 3.61542 3.78549 
3.92824 3.71281 4.22875 4.20377 4.06136 4.34894 4.00588 3.86262 3.86262 
3.3275 3.44919 3.49155 3.14913 3.54276 3.7067 3.33452 3.40242 2.88605 
2.61203 2.85951 2.75887 3.19378 2.9968 3.9088 3.75406 4.24097 5.34535 
5.34535 6.03334 6.31962 5.99812 5.36645 5.72335 6.52176 6.56397 5.79771 
5.68584 5.68697 5.61456 5.35358 5.18976 5.18976 5.06507 4.97967 5.21836 
4.95144 5.23407 4.72766 4.65921 4.65921 4.5178 4.50309 4.47686 4.4027 
4.62586 4.75895 4.97832 5.83147 3.24055 3.30433 2.75262 2.62895 2.61072 
2.58073 2.55496 2.79424 3.4252 3.4252 3.63689 4.27507 4.82612 5.01597 
5.18718 7.45849 6.7504 5.0486 4.30984 3.97424 3.07248 3.22717 3.18354 
3.07458 2.66417 2.49981 2.26508 2.14639 2.29123 2.2345 4.34094 4.22776 
4.22776 4.01909 3.69509 3.58543 4.20246 3.89593 3.61564 4.10666 3.94691 
3.91624 4.36889 4.79126 4.935 2.90077 2.55731 2.43672 2.27142 2.27589 
2.27589 2.32077 2.44212 2.71332 3.23435 6.77864 6.20376 3.25164 3.19797 
3.07681 2.98757 2.84955 2.83416 2.64236 2.46699 2.56684 2.4265 2.4265 
2.6043 2.67594 2.67594 3.19279 3.19392 3.1179 3.10491 3.10491 3.28927 
3.29304 3.29304 3.44967 3.96969 3.84355 3.81707 3.92798 3.7808 3.72947 
3.54361 3.39481 2.98107 3.1055 2.96468 2.70282 2.70282 2.46846 2.46399 
2.59859 2.19664 2.33856 2.08137 1.97648 1.81504 2.23195 2.21243 2.43807 
2.92111 2.92111 3.61007 4.21254 4.32257 5.39073 5.85687 5.67828 5.02217 
4.4143 3.7445 3.14025 2.93922 3.18515 3.49882 4.16367 4.46517 4.27617 
3.36756 3.01063 2.84506 2.71046 2.50035 2.25447 2.07832 1.83581 1.83581 
1.73632 1.83889 1.7812 1.7812 1.71012 1.63483 1.63483 1.73449 1.84081 
1.97419 5.39718 5.24071 4.49474 3.69971 3.0851 2.75777 2.84656 2.98307 
3.14033 3.08573 2.77639 2.82774 2.88651 2.757 2.6672 2.69436 2.61234 
2.75927 2.93919 2.85652 3.26452 3.26452 3.40234 3.57985 3.54185 3.43725 
3.59725 3.22892 2.91152 2.78029 2.30492 5.2994 5.03261 4.62464 4.59111 
4.75564 5.08026 5.16378 4.64727 4.31872 5.57838 5.16358 5.02636 4.302 
3.75714 4.01609 3.41145 2.75695 1.48179 3.94018 3.8014 3.70087 3.09051 
2.9743 2.03375 2.27841 2.24706 2.12758 1.79181 1.45324 1.45324 1.22197 
1.26964 1.17421 1.41751 1.53637 1.82856 1.90699 2.01259 2.12045 2.08782 

rRFP 1 423 double
3015.93 2764.33 3447.6 2668.99 3008.73 2598.32 3152.14 4026.05 3856.21 
3829.54 4230.51 3807.95 4346 4009.91 4022.41 3348.15 4256.22 3367.01 
3869.84 4745.48 3846.2 3645.52 3451.69 3610.12 3418.86 3595.65 2831.7 
3591.32 3501.27 3726.53 3779.59 3761.38 3733.47 3649.12 3668.37 3740.77 
3751.07 3723.05 3693.75 3673.58 3464.53 3314.44 3384.89 3365.33 3381.8 
3387.31 3382.69 3330.7 3274.78 3136.21 3158.41 3243.58 3243.58 3368.83 
3411.44 3376.57 3287.23 3245.75 3184.81 3192.79 3144.73 3257.19 3251.74 
3193.1 3088.81 3084.59 3070.44 3215.17 3405.63 3456.64 3700.69 4033.43 
4007.47 4038.22 3979.53 3995.81 3768.69 3845.83 3947.52 3611.25 3463.12 
3344.85 3423.46 3200.22 3096.9 3123.27 3051.07 2804.35 3588.49 3516.73 
3407.62 3427.79 3427.79 3485.19 3497.88 3477.33 3546.56 3702.89 3740.12 
3695.3 3647.32 3466.42 3458.01 3494.88 3767.98 3623.43 3812.67 3511.84 
3698.23 3374.62 3158.9 3102.11 3208.19 3321.99 3696.7 3786.07 3799.01 
3593.86 3511.42 3511.42 3324.63 3276.44 3276.44 3286.57 3286.57 3339.86 
3411.93 3411.93 3402.51 3467.22 3414.19 3349.67 3298.84 3298.84 3247.6 
3273.68 3273.68 3273.48 3226.41 3285.73 3313.56 3165.7 3271.04 3346.22 
3285.2 3284.3 3364.28 3403.78 3344.31 3398.01 3506.83 3522.69 3582.8 
3633.25 3557.11 3739.46 3730.63 3680.3 3781.94 3660.69 3610.06 3610.06 
3420.93 3463.94 3478.91 3357.89 3497.01 3554.95 3423.41 3447.41 3264.91 
3168.06 3255.53 3219.96 3373.67 3304.05 3626.38 3571.69 3743.78 4134.1 
4134.1 4377.26 4478.44 4364.81 4141.56 4267.7 4549.88 4564.8 4293.98 
4254.44 4254.84 4229.25 4137.01 4079.11 4079.11 4035.04 4004.86 4089.22 
3994.88 4094.77 3915.79 3891.6 3891.6 3841.62 3836.42 3827.15 3800.94 
3879.81 3926.85 4004.38 4305.91 3390.2 3412.74 3217.75 3174.04 3167.6 
3157 3147.89 3232.46 3455.46 3455.46 3530.28 3755.83 3950.59 4017.69 
4078.2 4880.95 4630.69 4029.22 3768.12 3649.51 3330.8 3385.47 3370.05 
3331.54 3186.49 3128.4 3045.44 3003.49 3054.68 3034.63 3779.11 3739.11 
3739.11 3665.36 3550.85 3512.09 3730.17 3621.83 3522.77 3696.31 3639.85 
3629.01 3788.99 3938.27 3989.07 3270.11 3148.72 3106.1 3047.68 3049.26 
3049.26 3065.12 3108.01 3203.86 3388.01 4640.67 4437.49 3394.12 3375.15 
3332.33 3300.79 3252.01 3246.57 3178.78 3116.8 3152.09 3102.49 3102.49 
3165.33 3190.65 3190.65 3373.32 3373.72 3346.85 3342.26 3342.26 3407.42 
3408.75 3408.75 3464.11 3647.9 3603.32 3593.96 3633.16 3581.14 3563 
3497.31 3444.72 3298.49 3342.47 3292.7 3200.15 3200.15 3117.32 3115.74 
3163.31 3021.25 3071.41 2980.51 2943.44 2886.38 3033.73 3026.83 3106.58 
3277.3 3277.3 3520.8 3733.73 3772.62 4150.14 4314.89 4251.77 4019.88 
3805.04 3568.31 3354.75 3283.7 3370.62 3481.48 3716.46 3823.02 3756.22 
3435.09 3308.94 3250.42 3202.85 3128.59 3041.69 2979.43 2893.72 2893.72 
2858.56 2894.81 2874.42 2874.42 2849.3 2822.69 2822.69 2857.91 2895.49 
2942.63 4152.42 4097.12 3833.47 3552.48 3335.26 3219.57 3250.95 3299.2 
3354.78 3335.48 3226.15 3244.3 3265.07 3219.3 3187.56 3197.16 3168.17 
3220.1 3283.69 3254.47 3398.67 3398.67 3447.38 3510.12 3496.69 3459.72 
3516.27 3386.09 3273.91 3227.53 3059.52 4117.86 4023.57 3879.38 3867.53 
3925.68 4040.41 4069.93 3887.38 3771.26 4216.46 4069.86 4021.36 3765.35 
3572.78 3664.3 3450.6 3219.28 2768.6 3637.47 3588.42 3552.89 3337.17 
3296.1 2963.68 3050.15 3039.07 2996.84 2878.17 2758.51 2758.51 2676.77 
2693.62 2659.89 2745.88 2787.89 2891.16 2918.88 2956.2 2994.32 2982.79 

rGFP 1 423 double
2709.56 2689.98 2746.16 2634.35 2660.74 2613.98 2719.19 3132.8 3058.48 
2972.06 3085.47 2883.31 3195.23 2838.42 3271.48 2860.35 2912.41 2724.83 
2965 3104.17 3145.84 2984.72 2691.15 2808.75 2944.75 3090.41 2649.84 
2878.02 2917.9 3117.53 3128.53 3161.52 3095.98 3085.63 3110.7 3106.44 
3162.23 3035.79 3081.3 3029.14 2926.38 2928.53 2988.1 2995.49 2982.38 
2959.96 2893.73 2906.81 2849.16 2946.16 2938.36 2963.07 2963.07 2978.65 
2957.9 2976.02 2915.16 2867.32 2889.42 2861.99 2874.46 2823.8 2815.84 
2782.14 2733.31 2676.25 2672.94 2698.44 2713.41 2734.86 2817.77 2932.04 
3035.74 3048.43 3045.06 2963.91 2908.38 2985.91 3050.2 2905.2 2909.38 
2876.42 2858.68 2868.91 2855.67 2807.09 2809.77 2711.28 2767.1 2732.93 
2785.01 2794.28 2794.28 2861.44 2906.43 2929.54 2946.1 2990.05 3009.25 
3050.95 3014.06 3013.47 3027.38 3019.46 3075.89 3048.09 3076.57 2812.01 
2757.89 2766.56 2661.31 2619.16 2611.54 2690.53 2799.83 2780.67 2734.7 
2719.89 2697.05 2697.05 2676.72 2669.07 2669.07 2668.91 2668.91 2697.1 
2684.52 2684.52 2722.99 2693.1 2717.86 2675.57 2709.83 2709.83 2696.72 
2660.26 2660.26 2680.48 2696.49 2773.59 2764.9 2827.28 2808.4 2737.01 
2814.43 2790.21 2742.25 2707.25 2739.54 2724.1 2738.21 2774.4 2771.59 
2766.94 2821.38 2754.68 2767.65 2764.63 2715.25 2734.04 2671.98 2671.98 
2669.09 2650.01 2655.54 2678.59 2645.9 2619.46 2670.02 2703.38 2728.95 
2721.19 2714.06 2680.57 2688.83 2682.25 2719.07 2721.95 2746.46 2816.36 
2816.36 2857.46 2943.88 2963.8 2952.95 2894.59 2978.46 3073.63 2971.56 
2937.56 2919.21 2925.14 2912.73 2915.63 2915.63 2908.69 2916.65 2922.9 
2936.28 2922.91 2858.42 2801.56 2801.56 2794.31 2786.85 2829.65 2867.77 
2879.64 2888.99 2855.4 2878.74 3065.01 3065.58 2926.46 2935.65 2943.62 
2914.51 2926.53 2983.42 3027.2 3027.2 3041.67 3092.75 3181.07 3175.98 
3219.77 3083.38 3065.77 3064.07 3124.86 3108.26 2950.81 2955.99 2989.75 
2957.01 3006.4 2988.78 2961.95 2895.79 2809.62 2727.78 3087.85 3054.48 
3054.48 3006.01 2960.37 2974.86 3057.17 3054.63 3016.42 3074.49 3039.11 
2975.37 3038.88 3145.59 3200.47 2696.28 2687.84 2688.14 2742.2 2752.09 
2752.09 2791.7 2852.35 2896.36 2957.95 3193.23 3188.64 2742.46 2744.84 
2732.1 2698.59 2665.46 2641.96 2613.07 2613.25 2624.77 2644.64 2644.64 
2696.93 2743.12 2743.12 2735.49 2741.05 2776.43 2854.21 2854.21 2849.89 
2810.22 2810.22 2804.84 2823.73 2846.16 2818.83 2807.77 2830.46 2798.17 
2816.64 2825.26 2866.57 2847.81 2781.88 2796.36 2796.36 2741.93 2700.63 
2672.52 2669.49 2659.36 2676.75 2661.84 2657.04 2695.58 2702.6 2738.79 
2836.05 2836.05 2913.59 2991.58 3043.05 3194.2 2825.17 2778.15 2693.21 
2690.63 2715.01 2731.12 2735.36 2728.28 2749.27 2812.74 2933.95 3244.8 
3152.48 3026.62 2937.15 2857.89 2836.04 2838.9 2851.81 2841.23 2841.23 