# vtk DataFile Version 3.0
vtk output
ASCII
DATASET POLYDATA
POINTS 711 float
5.17415 -2.10389 0.419417 5.98302 -1.92161 0.214442 6.25906 -2.20728 0.190205 
5.19978 -1.72503 0.427883 5.73069 -1.80804 0.300496 3.56442 -1.96459 -0.0436133 
5.25652 -1.24023 1.07957 6.21246 -1.76484 0.152815 3.4036 -1.79536 -0.142092 
2.1703 -2.42099 -1.5138 2.52427 -2.27588 -1.28958 3.19157 -2.04618 -0.940188 
6.9963 -1.03568 0.291812 7.08756 -0.7801 0.454526 3.3395 -1.3599 -0.839863 
7.32491 -0.84176 0.0792655 -0.694197 -0.791819 -0.149717 2.20956 -0.0286859 1.31459 
4.46892 -0.713275 0.0526577 3.33342 -1.44919 -1.11875 3.31279 -1.47482 -1.42037 
7.0887 -0.59381 0.116319 3.31449 -0.419311 0.214337 4.34229 -0.0729831 0.183177 
3.61136 -0.893987 -0.594705 4.29101 -0.449831 -0.147254 5.07514 -0.855933 -1.12681 
7.21172 -0.152816 -0.127189 6.40368 -0.720043 -0.838693 -0.786616 -0.437465 -0.382539 
3.38101 -0.534182 -0.760715 4.34083 -0.36928 -0.664797 4.64573 -0.453863 -0.95196 
5.069 -0.476759 -1.14216 6.30663 -0.43678 -1.39944 7.10268 0.324601 -0.297747 
7.25347 0.167159 -0.56881 7.06142 0.595464 -0.232512 -0.97308 0.593725 -0.467704 
6.20912 1.03375 0.154772 0.339702 1.30968 0.531192 7.00542 0.718322 -0.803735 
6.84758 0.636076 -0.933046 0.219126 1.5261 0.509531 5.46753 1.3033 -0.265525 
6.37042 1.2943 -0.457375 6.72621 0.825867 -0.999197 0.682061 1.32542 -0.239804 
5.02224 1.37107 -0.388921 5.13827 1.35286 -0.425395 5.09764 1.29235 -0.524452 
6.45579 1.58437 -0.496535 -0.159062 1.6161 -0.489668 -0.792779 1.20722 -1.14037 
-0.136059 1.07739 -1.39155 1.08486 1.6349 -0.522839 0.722037 1.54153 -1.04987 
-0.359972 2.09614 -0.456183 0.280291 1.40704 -1.64156 0.291392 1.34766 -1.68368 
0.320838 1.28492 -1.70349 0.357729 1.2196 -1.71355 0.390077 1.15192 -1.72734 
0.417293 1.08802 -1.74898 0.45927 1.02535 -1.75488 0.486603 0.955054 -1.77278 
0.517521 0.893082 -1.79138 0.547996 0.850253 -1.82126 0.576922 0.819533 -1.85969 
0.634352 0.81658 -1.88205 0.697249 0.829392 -1.9072 0.735662 0.848818 -1.96333 
0.754679 0.864596 -2.039 0.784691 0.879644 -2.10201 0.829551 0.883058 -2.14194 
0.886988 0.880108 -2.16429 0.933825 0.865178 -2.19169 0.973495 0.846513 -2.22495 
1.01194 0.827209 -2.25922 1.05161 0.808544 -2.29249 1.09844 0.793614 -2.31989 
1.15623 0.784389 -2.33831 1.20466 0.76383 -2.36076 1.25348 0.73056 -2.37562 
1.31245 0.683206 -2.37124 1.36067 0.623792 -2.37202 1.40152 0.566999 -2.38249 
1.44067 0.522234 -2.40162 1.47955 0.483785 -2.42462 1.5187 0.43902 -2.44375 
1.55908 0.394894 -2.46188 1.60552 0.347466 -2.4714 1.65547 0.308324 -2.48169 
1.68375 0.257895 -2.50973 1.71673 0.222831 -2.54121 1.76404 0.195228 -2.56093 
1.8309 0.171359 -2.56101 1.89973 0.129226 -2.54842 1.95821 0.0700807 -2.53485 
2.02088 0.0138051 -2.50227 2.0801 -0.0333571 -2.45427 2.1497 -0.0781768 -2.41733 
2.21898 -0.110241 -2.38793 2.2786 -0.124909 -2.3578 2.34875 -0.144989 -2.33728 
2.42495 -0.18198 -2.31647 2.49545 -0.229713 -2.29887 2.55508 -0.283181 -2.29032 
2.62406 -0.325312 -2.27773 2.69337 -0.380195 -2.2576 2.7522 -0.45346 -2.23878 
2.81541 -0.543804 -2.20546 2.87483 -0.636052 -2.1751 2.94536 -0.727658 -2.12983 
3.01592 -0.805579 -2.0761 3.07608 -0.883149 -2.00682 3.13857 -0.961821 -1.93948 
3.18981 -1.05561 -1.84873 3.23436 -1.17057 -1.73527 3.27611 -1.31664 -1.5919 
-0.294387 2.06515 -0.453661 -0.253329 2.002 -0.460316 -0.231106 1.90967 -0.471485 
-0.200396 1.80884 -0.468422 -0.171269 1.71365 -0.470294 0.734356 1.57584 -0.993158 
0.764169 1.60128 -0.952161 0.802209 1.62257 -0.918557 0.841593 1.64317 -0.88616 
0.88113 1.66369 -0.853901 0.922055 1.67725 -0.818911 0.969062 1.67523 -0.781428 
1.02018 1.65236 -0.735702 1.04906 1.63449 -0.666022 1.0731 1.62533 -0.595971 
1.00996 1.54481 -0.46749 0.937034 1.43636 -0.399601 0.872729 1.32598 -0.320964 
0.824366 1.26311 -0.250337 0.768348 1.2701 -0.221299 1.1634 1.61066 -0.509708 
1.24225 1.57375 -0.488909 1.32003 1.53111 -0.463165 1.39067 1.49837 -0.434979 
1.45015 1.49002 -0.408713 1.5198 1.48904 -0.399528 1.5962 1.4909 -0.400394 
1.67379 1.49215 -0.40233 1.75019 1.49401 -0.403196 1.81964 1.49938 -0.397813 
1.87873 1.50375 -0.379146 1.9487 1.49002 -0.362427 2.0249 1.45303 -0.341624 
2.09551 1.39891 -0.320292 2.15415 1.332 -0.305266 2.2151 1.2663 -0.288346 
2.26379 1.19423 -0.281472 2.30524 1.11837 -0.280529 2.34538 1.04182 -0.280655 
2.38524 0.971598 -0.284649 2.42471 0.914087 -0.296247 2.46379 0.869281 -0.315444 
2.50286 0.824475 -0.334641 2.54233 0.766963 -0.346239 2.582 0.703086 -0.35403 
2.62147 0.645574 -0.365628 2.66042 0.607167 -0.388563 2.70041 0.575746 -0.41429 
2.74645 0.541032 -0.431417 2.79687 0.489226 -0.434045 2.82705 0.420406 -0.449606 
2.86799 0.363661 -0.459999 2.92656 0.329013 -0.463227 2.98267 0.293082 -0.46847 
3.04303 0.246457 -0.462952 3.09263 0.187757 -0.462602 3.14086 0.128349 -0.463385 
3.19119 0.0764974 -0.466084 3.2186 0.00624338 -0.483919 3.24255 -0.0658247 -0.504588 
3.26121 -0.134181 -0.533238 3.28999 -0.177891 -0.564507 3.31726 -0.215935 -0.60065 
3.32672 -0.269763 -0.647833 3.33012 -0.347044 -0.690611 3.34366 -0.437593 -0.727216 
-0.204094 1.13939 -1.41427 -0.253981 1.20439 -1.41849 -0.296378 1.26038 -1.40929 
-0.345278 1.29361 -1.3945 -0.411616 1.29838 -1.38309 -0.478746 1.28336 -1.3614 
-0.535734 1.25426 -1.32048 -0.602074 1.21382 -1.28359 -0.667228 1.18046 -1.24937 
-0.714864 1.1756 -1.21171 -0.754415 1.18787 -1.17471 -0.206661 1.54962 -0.482856 
-0.265276 1.50123 -0.474105 -0.322089 1.47069 -0.478902 -0.38992 1.45824 -0.481763 
-0.45775 1.44579 -0.484619 -0.51483 1.42163 -0.493155 -0.575312 1.39295 -0.49466 
-0.631049 1.36813 -0.504409 -0.690505 1.35144 -0.51479 -0.738066 1.32872 -0.53586 
-0.776934 1.28909 -0.556786 -0.806982 1.22624 -0.573704 -0.82602 1.1453 -0.592556 
-0.855171 1.05485 -0.593083 -0.890946 0.942268 -0.57254 -0.929499 0.786494 -0.527836 
-0.0819908 1.59109 -0.477736 -0.0116135 1.54969 -0.464013 0.0480853 1.49625 -0.455393 
0.118463 1.45484 -0.441669 0.195415 1.43623 -0.433475 0.273203 1.43105 -0.431742 
0.349802 1.42655 -0.428806 0.419842 1.41286 -0.412021 0.479874 1.38553 -0.374225 
0.549787 1.34788 -0.339731 0.621139 1.32158 -0.300804 6.41583 1.44782 -0.472523 
6.42657 1.29361 -0.524004 6.48708 1.29211 -0.558529 6.5347 1.26585 -0.580837 
6.57552 1.21115 -0.592629 6.61526 1.14731 -0.600355 6.65493 1.08344 -0.608151 
6.69448 1.02597 -0.619684 6.73573 0.956468 -0.622543 6.78462 0.878026 -0.611861 
6.84635 0.786915 -0.579743 6.9059 0.688273 -0.545642 6.97695 0.577643 -0.488898 
7.04761 0.455884 -0.407417 5.56371 1.30263 -0.266821 5.64838 1.29119 -0.261464 
5.72774 1.2712 -0.250893 5.80593 1.25751 -0.244166 5.88241 1.25156 -0.243636 
5.95021 1.24756 -0.253856 5.99998 1.23416 -0.278846 6.04967 1.22071 -0.303902 
6.11601 1.21595 -0.31532 6.18227 1.21542 -0.329276 6.2324 1.21893 -0.364491 
6.28743 1.24372 -0.412535 5.12603 1.31852 -0.482179 5.08838 1.37266 -0.404142 
5.2148 1.3484 -0.42239 5.28472 1.33691 -0.406738 5.34362 1.31944 -0.37164 
5.40782 1.303 -0.330262 0.675759 1.28966 -0.0971654 0.667555 1.25384 0.0165989 
0.649361 1.22009 0.10548 0.633521 1.19956 0.187467 0.605051 1.18531 0.251742 
0.568672 1.18632 0.29862 0.529271 1.19867 0.335748 0.482434 1.2136 0.363143 
0.4248 1.22293 0.38174 0.379441 1.23912 0.411159 0.349807 1.26632 0.458171 
6.79532 0.732134 -0.957405 5.49219 1.22625 -0.130943 5.51258 1.16605 -0.0161135 
5.54544 1.11957 0.0680661 5.58376 1.08861 0.134626 5.61466 1.06957 0.202236 
5.62388 1.06499 0.280697 5.60928 1.05006 0.357539 5.56298 1.01997 0.410717 
5.5176 0.990384 0.464648 5.47051 0.965058 0.511358 5.41246 0.920342 0.540659 
5.35795 0.858864 0.556194 5.29866 0.792131 0.57763 5.24269 0.729891 0.591966 
5.17458 0.686311 0.609249 5.10019 0.664665 0.620246 5.03283 0.639468 0.62492 
4.98456 0.592089 0.620399 4.94411 0.515739 0.624759 4.89805 0.442225 0.634171 
4.84106 0.386758 0.645443 4.79254 0.352019 0.633186 4.74383 0.323628 0.617131 
4.68612 0.293546 0.613137 4.64089 0.23838 0.60986 4.60976 0.169806 0.597894 
4.59053 0.0952209 0.57524 4.56198 0.0316102 0.556978 4.53489 -0.0389995 0.541379 
4.5241 -0.117873 0.511137 4.51385 -0.181938 0.470545 4.48827 -0.194918 0.410981 
4.44293 -0.154384 0.309938 0.271158 1.42234 0.52103 6.90533 0.622356 -0.901239 
6.93571 0.641256 -0.856778 6.96789 0.678018 -0.825868 6.84747 0.514269 -0.949017 
6.83835 0.422054 -0.972809 6.80948 0.371113 -0.998734 6.77305 0.342756 -1.02981 
6.74332 0.317271 -1.07088 6.7308 0.289323 -1.1314 6.71789 0.27408 -1.19951 
6.68697 0.28672 -1.26338 6.64882 0.309285 -1.32474 6.61547 0.316896 -1.38245 
6.58798 0.290275 -1.42553 6.54861 0.2384 -1.43805 6.53071 0.163125 -1.46191 
6.51831 0.091337 -1.49468 6.48921 0.0405092 -1.5204 6.45215 -0.0146577 -1.53371 
6.41357 -0.107054 -1.52258 6.36831 -0.253184 -1.47583 0.41212 1.16383 0.673364 
0.465178 1.01528 0.812004 0.498569 0.874284 0.949869 0.494119 0.752683 1.07882 
0.442805 0.646118 1.16318 0.380285 0.558941 1.20832 0.331806 0.480547 1.22414 
0.282781 0.41479 1.23224 0.216142 0.364208 1.25218 0.142421 0.32347 1.2745 
0.0758517 0.272853 1.29438 0.0280563 0.212721 1.2974 -0.0116398 0.154753 1.28915 
-0.0505841 0.115167 1.26829 -0.0898472 0.0882483 1.23976 -0.129231 0.067648 1.20737 
-0.167348 0.046406 1.17383 -0.198511 0.0216426 1.13405 -0.219052 -0.00849933 1.08472 
-0.248941 -0.0339076 1.04379 -0.280097 -0.0586743 1.004 -0.308942 -0.0846114 0.962135 
-0.358948 -0.099833 0.939283 -0.405362 -0.116874 0.913204 -0.446013 -0.136832 0.881945 
-0.484207 -0.158036 0.848479 -0.515293 -0.182838 0.808626 -0.53449 -0.21366 0.758091 
-0.556005 -0.243309 0.709639 -0.566898 -0.278336 0.651641 -0.577791 -0.313364 0.593644 
-0.599237 -0.343047 0.545129 -0.617281 -0.368197 0.489577 -0.64086 -0.371781 0.427065 
-0.662101 -0.339023 0.338585 -0.696543 -0.25579 0.234115 -0.739278 -0.130832 0.113228 
-0.785298 0.0186938 -0.019342 -0.839401 0.190603 -0.157373 -0.907611 0.387609 -0.300848 
-0.983623 0.57042 -0.554238 -0.971731 0.53083 -0.606625 -0.963619 0.439753 -0.634205 
[...]
POINT_DATA 711
SCALARS DY_raw double
LOOKUP_TABLE default
61.2896 45.4497 54.5684 35.3861 37.8827 75.0388 68.4801 52.2959 78.0429 
43.0444 40.7488 40.6267 39.0939 48.332 49.9152 0 52.4109 90.5698 
53.088 39.5004 44.216 44.3368 75.5626 59.9994 102.276 47.9951 55.4277 
55.9313 39.44 63.9247 36.3497 53.2107 47.9628 27.1866 43.0495 48.4347 
12.3838 62.5555 61.2759 117.993 74.2558 18.5475 35.7198 70.0923 95.8379 
53.9243 19.8677 75.6936 69.5942 79.2622 64.0758 23.3643 69.0496 78.9274 
100.051 82.686 93.6101 129.625 80.55 74.2493 74.5398 68.436 71.7144 
60.6253 63.943 72.1508 60.9809 56.8807 56.8807 57.9412 57.4572 61.1981 
72.8866 72.8866 79.1892 84.1002 84.1002 78.0971 95.9278 95.9278 88.1431 
89.3614 96.8755 89.5646 89.5646 84.6064 65.1966 65.7513 51.8744 59.755 
59.755 68.7411 70.4417 76.8365 67.226 67.226 70.896 81.6965 85.4859 
70.2229 64.2115 57.6028 67.0391 68.9374 60.7657 62.5532 84.7407 78.3927 
86.3466 95.5903 61.4054 72.5315 68.5778 58.7436 53.2534 45.7278 51.9565 
51.4056 48.818 48.219 154.326 120.607 79.6573 73.1947 84.3355 92.1108 
97.9116 97.9116 99.1696 89.0254 89.0254 70.0199 61.3614 62.0076 67.1921 
84.3243 80.3813 84.3645 81.3697 77.974 66.6385 78.8619 74.1124 83.1239 
84.9136 72.5852 59.9327 62.7781 54.415 64.8266 72.1603 71.3979 74.186 
70.2209 67.7713 74.7534 62.9728 70.9579 64.7382 57.0801 61.0871 56.0505 
51.4034 55.129 53.305 54.2023 73.4846 61.4707 59.3763 65.8244 60.1645 
66.9968 71.0023 69.112 75.8573 65.3159 67.3039 70.7594 53.8791 45.5052 
50.3383 42.8128 42.8128 36.1088 36.1734 36.8587 97.3528 90.5659 104.835 
103.622 87.2513 118.35 107.807 113.787 105.842 107.655 102.2 80.8286 
77.3922 89.8432 89.8432 102.805 106.409 93.8381 102.344 90.2116 80.9393 
80.5117 85.5493 65.3676 57.3225 58.1944 61.487 73.6958 92.9948 86.8851 
85.5615 89.028 79.0014 82.3466 87.5729 79.7816 89.2144 75.8192 43.6269 
57.3478 43.4847 47.1871 39.8049 41.0685 43.9378 51.8711 43.8561 47.692 
56.2947 59.1443 56.2034 50.0579 91.5206 93.9345 93.492 87.567 76.125 
79.4235 69.4546 63.415 66.2487 63.6496 68.4195 59.5898 64.0758 75.3121 
79.2622 79.3766 71.9653 87.2763 85.1917 92.0706 90.7482 79.2619 82.7556 
87.4213 78.9646 78.9646 67.3353 65.4864 65.8807 20.7489 107.663 88.3708 
74.3142 58.7124 58.7124 58.7823 74.2408 84.7432 85.4154 94.9223 87.9368 
87.2383 94.0576 63.3921 64.899 64.899 61.7848 52.3256 76.4114 81.3807 
81.4916 83.8076 73.597 73.597 70.1429 57.2002 62.7551 46.593 52.2938 
52.4341 66.0347 61.0043 58.8498 66.2142 39.4916 39.4916 30.9892 50.8389 
57.9894 58.8722 63.027 62.8788 62.8788 54.8038 48.6015 37.2478 47.3671 
51.3679 55.5592 58.8731 58.8731 67.3344 64.9377 57.8615 45.7337 77.7926 
63.9919 56.0782 58.3779 58.4231 61.902 63.6058 65.916 67.0711 56.8356 
67.2241 66.5192 65.2172 71.0122 71.758 71.9855 71.9855 69.4947 72.8965 
72.8965 83.0921 83.0921 81.8772 78.6771 78.6771 73.7092 77.2721 77.2721 
73.8648 70.6462 74.2715 65.1149 67.8453 62.9618 65.7476 64.1582 80.9457 
84.8013 71.194 70.9046 56.6426 59.1117 64.183 69.3145 70.5893 73.7733 
76.1841 106.445 85.091 86.3432 86.3432 82.094 54.8042 43.5988 43.5988 
36.1778 42.1093 47.4669 53.5644 61.8991 55.3224 50.2808 46.8871 47.7855 
48.5469 46.007 48.9257 48.2838 59.5325 55.0339 39.2547 35.6489 45.0473 
29.8679 29.3135 50.4932 38.6107 55.0996 78.2792 87.5936 87.8895 78.0318 
72.0672 59.0211 82.312 59.6646 44.0843 19.0472 30.4724 47.1144 55.7009 
48.9974 41.7631 31.8279 36.2845 37.5378 32.8177 38.034 45.9255 54.9574 
58.6423 61.5999 46.4038 57.0021 46.2706 58.1432 51.0264 44.3439 54.9636 
58.2564 57.6348 55.0933 47.3584 54.279 47.7733 51.1058 43.5515 46.6689 
60.2987 65.2034 74.3297 61.5052 48.2733 48.2496 52.0944 62.2903 60.9759 
55.8497 65.673 104.159 64.7989 59.6464 61.1541 54.5997 47.7326 59.8029 
65.3599 65.6633 65.6633 64.7461 59.6575 59.9883 62.8994 62.2701 62.2701 
58.6636 65.1786 57.5548 66.664 70.392 67.5193 64.3441 64.3441 58.8452 
66.3341 62.4799 66.1146 62.7968 60.9221 63.7454 58.0013 58.0013 61.5634 
61.5634 59.9063 54.9712 54.9712 61.0003 69.6257 69.6257 80.2872 81.3836 
90.1372 66.8208 61.8273 80.0987 57.9454 90.7043 81.759 49.8248 54.1779 
41.3427 43.5101 53.4113 47.1461 46.3199 60.9384 63.1729 73.7688 70.3901 
65.7751 67.4535 70.4917 66.8684 70.153 56.6204 54.7386 56.3316 50.8545 
54.1736 44.1675 43.6362 58.313 50.9623 51.0147 36.8919 31.2263 49.5682 
52.0476 59.6046 64.128 69.2234 72.0951 75.5626 82.8812 70.566 70.566 
75.0224 75.0224 70.6725 63.4534 68.9977 74.7114 73.2081 86.008 80.1295 
78.6709 86.1411 89.6176 91.6316 91.6316 87.1995 73.8468 73.7706 85.3979 
85.3979 86.533 93.2643 93.2643 96.2191 107.654 59.0852 65.0064 77.7601 
79.9684 95.3647 76.5693 54.3311 58.5289 50.0228 58.3122 65.5067 49.7723 
55.605 67.2494 45.2104 57.7607 52.8145 52.8043 53.2979 49.7327 47.5751 
46.1361 53.4086 45.5493 50.5223 60.1705 63.4067 66.7015 66.7015 63.1406 
60.5104 55.7455 60.4126 49.3347 53.8957 47.3011 50.2222 50.2511 38.5294 
47.0195 46.4935 50.1619 74.1115 79.251 74.9773 71.0953 70.3966 60.2313 
53.1277 61.479 51.0245 50.988 50.988 54.1761 64.339 77.6345 62.7663 
74.2913 76.8515 85.2207 82.8652 85.1994 78.0429 52.4339 36.886 45.2627 
37.0567 39.3792 41.7313 40.5197 39.5004 47.1167 45.9974 68.1706 69.9605 
65.805 50.196 47.3732 50.772 34.7479 31.8136 28.5792 58.2944 57.2848 
59.0678 57.9652 49.076 53.9717 46.427 32.9362 30.1264 32.6932 40.7828 
48.0989 51.4196 54.6522 46.4791 46.4791 36.769 47.5517 60.9912 48.8664 
59.045 67.9354 43.5118 35.8269 31.9058 33.4674 44.6514 49.7395 51.0467 
50.178 49.2717 55.0579 55.7077 54.9693 49.0168 44.9821 81.8798 52.2959 
52.408 56.574 58.6877 37.0467 49.2634 35.7889 38.8596 45.0325 58.1565 
57.8725 73.9811 68.9322 57.8899 52.1064 54.5473 54.5473 45.6907 43.3024 
37.4314 38.5895 41.1834 45.2146 63.189 58.8938 58.5183 41.5375 57.7176 

FIELD FieldData 7
DY_minmax 1 711 double
0.397144 0.294505 0.353592 0.229295 0.245473 0.486236 0.443737 0.338867 0.505702 
0.278919 0.264044 0.263253 0.253321 0.313182 0.32344 0 0.339612 0.586874 
0.344 0.255955 0.28651 0.287294 0.48963 0.388784 0.662728 0.310998 0.35916 
0.362424 0.255563 0.414219 0.235538 0.344795 0.310789 0.176164 0.278952 0.313847 
0.0802448 0.405347 0.397056 0.764573 0.481163 0.120184 0.231457 0.454184 0.62101 
0.349418 0.128739 0.490479 0.450956 0.513603 0.415198 0.151396 0.447427 0.511433 
0.648309 0.535788 0.606575 0.839945 0.521947 0.481121 0.483003 0.443452 0.464695 
0.39284 0.414338 0.467522 0.395144 0.368575 0.368575 0.375447 0.372311 0.396551 
0.47229 0.47229 0.51313 0.544952 0.544952 0.506053 0.621593 0.621593 0.57115 
0.579044 0.627734 0.58036 0.58036 0.548233 0.422461 0.426055 0.336136 0.3872 
0.3872 0.445429 0.456448 0.497885 0.435611 0.435611 0.459391 0.529376 0.553931 
0.45503 0.416078 0.373254 0.4344 0.4467 0.393749 0.405332 0.549103 0.507969 
0.559508 0.619406 0.397895 0.469989 0.44437 0.380646 0.345071 0.296307 0.336668 
0.333098 0.316331 0.312449 1 0.781511 0.516163 0.474287 0.546477 0.596859 
0.634447 0.634447 0.642599 0.576867 0.576867 0.453715 0.397609 0.401797 0.435391 
0.546405 0.520854 0.546665 0.527259 0.505256 0.431804 0.511009 0.480233 0.538626 
0.550223 0.470338 0.388352 0.40679 0.352598 0.420063 0.467584 0.462644 0.48071 
0.455017 0.439144 0.484387 0.408051 0.459793 0.41949 0.369867 0.395832 0.363196 
0.333084 0.357225 0.345405 0.35122 0.476165 0.398317 0.384747 0.426529 0.389854 
0.434126 0.460081 0.447832 0.49154 0.423233 0.436115 0.458507 0.349126 0.294865 
0.326182 0.277418 0.277418 0.233978 0.234396 0.238837 0.630826 0.586848 0.679309 
0.67145 0.565371 0.766881 0.69857 0.737318 0.685834 0.697582 0.662236 0.523753 
0.501486 0.582166 0.582166 0.666158 0.68951 0.608052 0.663167 0.584553 0.52447 
0.5217 0.554342 0.423569 0.371438 0.377088 0.398423 0.477534 0.602587 0.562998 
0.554421 0.576883 0.511913 0.533589 0.567455 0.516968 0.578091 0.491293 0.282694 
0.371602 0.281772 0.305763 0.257928 0.266116 0.284708 0.336114 0.284178 0.309035 
0.364778 0.383243 0.364186 0.324365 0.593035 0.608677 0.605809 0.567417 0.493274 
0.514648 0.450051 0.410916 0.429278 0.412436 0.443344 0.38613 0.415198 0.488007 
0.513603 0.514344 0.46632 0.565533 0.552025 0.596599 0.58803 0.513601 0.536239 
0.566472 0.511674 0.511674 0.436319 0.424338 0.426893 0.134449 0.697631 0.572625 
0.481541 0.380445 0.380445 0.380897 0.481065 0.549118 0.553475 0.615077 0.569813 
0.565286 0.609474 0.410768 0.420532 0.420532 0.400353 0.339059 0.49513 0.527331 
0.528049 0.543056 0.476893 0.476893 0.454512 0.370645 0.40664 0.301913 0.338853 
0.339762 0.427892 0.395296 0.381335 0.429054 0.255898 0.255898 0.200804 0.329426 
0.37576 0.38148 0.408402 0.407442 0.407442 0.355118 0.314928 0.241358 0.306929 
0.332854 0.360012 0.381486 0.381486 0.436313 0.420783 0.374931 0.296345 0.504081 
0.414654 0.363375 0.378277 0.37857 0.401112 0.412153 0.427122 0.434607 0.368283 
0.435598 0.431031 0.422594 0.460145 0.464977 0.466452 0.466452 0.450312 0.472354 
0.472354 0.53842 0.53842 0.530548 0.509812 0.509812 0.477621 0.500707 0.500707 
0.478629 0.457773 0.481264 0.421931 0.439624 0.40798 0.426031 0.415732 0.524512 
0.549495 0.461323 0.459447 0.367032 0.383032 0.415893 0.449144 0.457405 0.478036 
0.493658 0.689744 0.551372 0.559487 0.559487 0.531952 0.35512 0.282511 0.282511 
0.234425 0.27286 0.307576 0.347087 0.401093 0.358478 0.325809 0.303819 0.30964 
0.314574 0.298116 0.317029 0.312869 0.385758 0.356608 0.254363 0.230997 0.291897 
0.193538 0.189946 0.327186 0.25019 0.357034 0.507233 0.567589 0.569506 0.50563 
0.466981 0.382445 0.533365 0.386615 0.285657 0.123422 0.197455 0.305292 0.36093 
0.317493 0.270617 0.206238 0.235116 0.243237 0.212652 0.246452 0.297588 0.356113 
0.37999 0.399155 0.300687 0.369362 0.299824 0.376756 0.33064 0.287339 0.356153 
0.37749 0.373462 0.356993 0.306873 0.351717 0.309561 0.331155 0.282205 0.302405 
0.390723 0.422505 0.481641 0.398541 0.312801 0.312648 0.337561 0.403628 0.395111 
0.361895 0.425548 0.674927 0.419884 0.386497 0.396266 0.353795 0.309298 0.38751 
0.423519 0.425485 0.425485 0.419542 0.386569 0.388712 0.407575 0.403498 0.403498 
0.380128 0.422344 0.372944 0.431969 0.456126 0.437511 0.416936 0.416936 0.381305 
0.429832 0.404857 0.428409 0.40691 0.394763 0.413057 0.375837 0.375837 0.398918 
0.398918 0.388181 0.356202 0.356202 0.39527 0.45116 0.45116 0.520245 0.527349 
0.584071 0.432985 0.400628 0.519023 0.375474 0.587745 0.529782 0.322855 0.351062 
0.267892 0.281937 0.346095 0.305497 0.300144 0.394869 0.409348 0.478007 0.456113 
0.426209 0.437085 0.456772 0.433294 0.454577 0.366889 0.354695 0.365017 0.329527 
0.351034 0.286196 0.282753 0.377856 0.330225 0.330565 0.239052 0.20234 0.321192 
0.337258 0.386226 0.415536 0.448554 0.467162 0.48963 0.537053 0.457254 0.457254 
0.48613 0.48613 0.457944 0.411165 0.447091 0.484114 0.474373 0.557314 0.519223 
0.509771 0.558177 0.580704 0.593754 0.593754 0.565035 0.478512 0.478019 0.553361 
0.553361 0.560716 0.604334 0.604334 0.62348 0.697575 0.38286 0.421229 0.503869 
0.518179 0.617944 0.496153 0.352054 0.379255 0.324137 0.377851 0.42447 0.322514 
0.360309 0.435763 0.292954 0.374277 0.342227 0.342161 0.345359 0.322257 0.308277 
0.298953 0.346077 0.295151 0.327374 0.389892 0.410862 0.432212 0.432212 0.409138 
0.392095 0.36122 0.391461 0.319679 0.349233 0.306502 0.325429 0.325617 0.249663 
0.304677 0.301268 0.325039 0.480227 0.513531 0.485838 0.460683 0.456156 0.390286 
0.344257 0.398371 0.330628 0.330392 0.330392 0.35105 0.416903 0.503056 0.406713 
0.481393 0.497982 0.552213 0.536949 0.552075 0.505702 0.339761 0.239014 0.293293 
0.24012 0.255169 0.27041 0.26256 0.255955 0.305307 0.298054 0.441732 0.45333 
0.426403 0.32526 0.306969 0.328992 0.225159 0.206146 0.185187 0.377736 0.371194 
0.382747 0.375603 0.318003 0.349726 0.300837 0.21342 0.195213 0.211846 0.264265 
0.311671 0.333189 0.354135 0.301175 0.301175 0.238256 0.308125 0.39521 0.316644 
0.382599 0.440208 0.281947 0.232151 0.206743 0.216862 0.289332 0.322302 0.330772 
0.325143 0.319271 0.356764 0.360975 0.35619 0.317619 0.291475 0.530564 0.338867 
0.339593 0.366588 0.380284 0.240055 0.319217 0.231905 0.251802 0.291802 0.376842 
0.375002 0.479382 0.446667 0.375115 0.337639 0.353455 0.353455 0.296066 0.280591 
0.242548 0.250052 0.26686 0.292981 0.409452 0.38162 0.379187 0.269154 0.373999 

WidthEq 1 711 double
1.51363 2.43324 1.15726 3.3061 1.97451 1.83372 1.10616 2.43174 3.72308 
3.81513 4.51596 6.28354 3.6906 4.24232 5.19341 1.21127 8.49174 3.04958 
4.48783 4.80906 4.32491 3.91773 3.85442 4.96122 1.5773 5.04906 1.90194 
4.85631 1 6.7664 4.67487 4.44478 3.54525 1.50773 3.21746 4.47386 
2.00665 3.04993 8.14333 1.89138 5.9998 2.81709 2.827 4.07235 3.38363 
2.80022 2.43209 5.53482 1.64482 3.44149 3.50601 2.07967 4.47722 4.15483 
2.93331 4.30278 2.86849 1.98858 4.2725 4.34953 4.38812 4.898 4.61386 
5.40533 5.2797 4.87133 5.18605 5.27965 5.27965 4.71236 4.68854 4.34948 
3.52973 3.52973 3.36296 3.27752 3.27752 3.51972 3.34939 3.34939 3.70216 
3.81182 3.38723 3.47347 3.47347 3.56001 3.76753 3.72799 3.66192 3.21245 
3.21245 2.80778 2.72935 2.57339 2.69792 2.69792 2.34245 2.15615 2.13989 
2.2937 2.32793 2.3919 2.31507 2.33444 2.32763 2.38469 2.09439 2.64731 
3.03046 2.94632 4.23301 3.95552 4.25794 4.35554 4.27916 4.52592 4.88774 
5.34066 5.78803 5.47731 1.74728 2.12102 3.23963 4.09647 3.79366 2.98336 
2.71664 2.71664 2.64446 2.79617 2.79617 3.39689 3.89561 3.93645 5.00386 
4.14317 3.68394 3.97134 4.91792 5.31959 5.07949 4.48062 4.63458 4.31645 
4.00678 4.18611 4.39693 4.25674 4.54489 4.03075 4.11999 4.31119 4.42536 
4.90111 5.59293 5.29046 6.41023 5.81936 6.01747 6.12508 5.76456 5.93929 
5.93794 5.59633 5.41394 5.4267 4.91287 5.22705 5.29622 5.13715 5.3259 
5.08815 5.04336 5.23571 4.99345 5.39792 4.93865 4.91722 4.88334 4.988 
4.86051 4.71611 4.71611 4.5097 4.33882 4.55089 3.74761 3.99577 3.96223 
3.91143 4.00097 3.24539 3.37287 3.26961 3.79661 3.77679 3.88815 4.1249 
3.97004 3.38523 3.38523 3.27356 3.47507 3.82574 3.51912 3.95903 4.69339 
4.92028 4.76076 5.95585 6.719 7.45656 7.92395 4.54409 4.22475 4.4621 
4.45609 4.16644 4.55169 4.58198 4.30339 4.6497 4.62112 5.30433 2.52734 
2.84527 3.1142 3.12056 3.26065 3.48759 3.73164 3.62418 3.77599 3.63834 
3.406 3.40946 3.45816 3.86113 3.43158 3.24013 2.99983 3.09523 2.99507 
2.91689 3.03652 2.98857 2.97545 2.93466 2.85708 2.83371 3.50601 3.09963 
3.44149 3.48163 3.4978 3.42212 5.08089 4.4114 3.75181 4.16669 3.99091 
4.31199 5.35468 5.35468 6.1914 6.5264 6.61499 2.55917 3.16795 3.37747 
3.48924 3.34614 3.34614 3.19008 2.71859 2.51643 2.81729 2.73761 2.84727 
2.68816 2.56938 2.8248 2.95228 2.95228 3.17797 3.42662 3.04523 3.52147 
3.48699 3.27011 3.49009 3.49009 3.48774 3.67884 3.57358 4.08366 4.62292 
4.63058 4.8476 4.92113 4.73408 5.29131 2.8244 2.8244 2.78936 2.88421 
3.13402 3.01364 2.94017 2.75307 2.75307 2.27448 2.05755 2.04469 2.12637 
2.17938 2.14294 2.50777 2.50777 2.52263 2.6858 2.90193 3.24203 5.30603 
7.06996 9.31039 10.5065 10.6367 10.0696 9.19743 8.71382 7.80112 7.75623 
7.22673 7.00369 6.83332 6.4334 6.16838 5.8998 5.8998 5.19752 4.75716 
4.75716 3.99557 3.99557 4.16294 4.23567 4.23567 4.30258 4.39473 4.39473 
4.41916 4.76827 4.80736 4.89996 5.14391 6.22028 6.41879 6.54367 6.59071 
6.92867 8.20504 8.48083 8.63044 7.5902 6.52244 5.92372 6.00601 5.40548 
6.42509 2.17182 2.88997 2.68255 2.68255 2.51943 3.12531 3.03036 3.03036 
3.17681 3.17246 3.07541 3.43904 3.90087 4.39949 4.54308 4.75931 5.02559 
5.15337 4.94425 4.56856 4.35819 2.96594 3.57598 3.51652 3.7889 3.40775 
3.02566 2.89457 2.46607 2.75467 2.42633 1.9631 1.93222 1.93903 1.99829 
2.01395 2.13483 1.74482 1.74593 1.96555 2.93797 3.80967 4.38422 4.68538 
2.28338 2.8257 3.66943 3.54835 2.74657 2.8247 1.64537 1.97777 3.49234 
3.39584 3.14773 3.07281 2.90463 2.66844 2.1994 2.1579 3.2602 2.86499 
2.90904 2.88766 2.93121 3.71993 3.63879 3.95828 4.14102 4.71672 4.76677 
4.59314 4.05608 3.4982 4.25704 5.01458 4.00853 3.63494 3.29939 3.61307 
4.4088 3.45195 2.14164 4.98249 4.99225 4.77122 4.56431 4.80301 7.51503 
6.71604 5.4682 5.4682 4.943 4.99015 5.13951 5.36619 5.62966 5.62966 
6.02247 5.68868 5.83548 5.54227 5.08595 5.30678 5.02704 5.02704 5.42525 
5.32124 5.48817 5.55354 5.46429 5.64393 5.4247 5.30678 5.30678 4.60225 
4.60225 4.55345 4.73994 4.73994 4.6526 4.98825 4.98825 4.72828 4.51541 
3.99547 4.29222 4.27756 3.66848 3.86088 2.95113 3.05899 3.79971 3.5496 
3.85147 3.90277 3.50225 3.94666 3.9292 3.68339 3.47522 3.09087 3.00909 
3.01284 2.93476 2.98702 3.36661 3.19473 3.57433 3.96704 3.95107 4.04802 
3.96263 4.37426 4.172 4.4124 3.96293 3.00403 4.24402 4.175 4.72783 
5.12704 4.6087 4.18897 4.00067 4.16824 3.85442 4.07004 4.80911 4.80911 
4.67527 4.67527 4.7546 4.88469 4.76697 4.73904 4.87378 4.4604 4.556 
4.57882 4.16294 4.09217 4.22911 4.22911 4.68443 5.11153 5.29547 5.28526 
5.28526 5.40904 5.05542 5.05542 3.89891 2.90403 8.61992 7.60202 6.3813 
5.68537 5.06498 4.97824 5.83883 5.76245 5.54247 5.15347 5.11368 5.1822 
4.76702 4.3132 4.69184 4.27921 4.44859 4.4163 4.13731 3.89141 3.6456 
3.31411 3.01019 3.12891 2.968 2.81018 2.82305 2.90638 2.90638 2.91144 
3.05038 3.42162 3.48719 4.05272 3.82869 3.96143 3.70036 3.61127 3.72468 
3.30395 3.16991 2.93171 2.6305 2.43454 2.56358 3.00639 3.08111 3.28733 
4.19367 3.62498 4.52351 4.63403 4.63403 4.11399 3.38768 2.73706 2.86189 
2.65697 2.64406 3.08927 3.12351 3.41481 3.72308 4.0737 3.87979 4.57662 
5.42871 4.80761 4.9397 5.11208 4.80906 5.3308 5.63792 4.01874 3.71252 
3.44229 3.39449 3.37427 3.17596 3.33833 3.14488 3.26916 4.48242 4.16079 
4.10833 4.10953 3.60156 3.73585 4.05152 3.38959 3.17131 2.9682 2.75533 
2.62584 2.47824 2.17722 2.12547 2.12547 1.96415 1.73622 1.56744 1.85649 
1.93768 1.97496 6.09835 6.18724 6.15406 5.91591 5.39177 5.11083 5.03735 
4.86667 4.71386 4.53232 4.92158 4.88709 5.10702 4.64629 3.15804 2.43174 
2.40631 2.06526 1.4814 2.35 1.89959 3.48348 3.08006 2.6321 2.1069 
2.17737 2.13298 2.23393 2.36587 2.40086 2.11761 2.11761 2.12998 1.73732 
1.64087 1.88057 1.92456 1.83967 1.79968 2.09003 2.03458 2.6393 2.27643 

rRFP 1 711 double
2542.69 2726.42 2471.49 2900.81 2634.77 2606.64 2461.28 2726.12 2984.12 
3002.51 3142.53 3495.68 2977.63 3087.86 3277.88 2482.28 3936.86 2849.56 
3136.91 3201.09 3104.36 3023.01 3010.36 3231.49 2555.41 3249.04 2620.27 
3210.53 2440.07 3592.15 3174.28 3128.31 2948.59 2541.51 2883.1 3134.12 
2641.19 2849.63 3867.25 2618.16 3438.99 2803.11 2805.09 3053.9 2916.3 
2799.74 2726.19 3346.09 2568.9 2927.86 2940.75 2655.78 3134.79 3070.38 
2826.33 3099.94 2813.38 2637.58 3093.89 3109.28 3116.99 3218.86 3162.09 
3320.22 3295.12 3213.53 3276.41 3295.11 3295.11 3181.77 3177.01 3109.27 
2945.49 2945.49 2912.17 2895.1 2895.1 2943.49 2909.46 2909.46 2979.94 
3001.85 2917.02 2934.25 2934.25 2951.54 2993 2985.1 2971.9 2882.1 
2882.1 2801.25 2785.58 2754.42 2779.3 2779.3 2708.28 2671.06 2667.81 
2698.54 2705.38 2718.16 2702.81 2706.68 2705.32 2716.72 2658.72 2769.19 
2845.74 2828.93 3086 3030.56 3090.98 3110.48 3095.22 3144.52 3216.81 
3307.3 3396.68 3334.6 2589.37 2664.04 2887.53 3058.72 2998.22 2836.33 
2783.04 2783.04 2768.62 2798.93 2798.93 2918.95 3018.59 3026.75 3240.01 
3068.05 2976.3 3033.72 3222.84 3303.09 3255.12 3135.47 3166.23 3102.67 
3040.8 3076.63 3118.75 3090.74 3148.31 3045.59 3063.42 3101.62 3124.43 
3219.48 3357.7 3297.27 3520.99 3402.94 3442.52 3464.02 3391.99 3426.9 
3426.63 3358.38 3321.94 3324.49 3221.83 3284.6 3298.42 3266.64 3304.35 
3256.85 3247.9 3286.33 3237.93 3318.74 3226.98 3222.7 3215.93 3236.84 
3211.37 3182.52 3182.52 3141.28 3107.14 3149.51 2989.02 3038.6 3031.9 
3021.75 3039.64 2888.68 2914.15 2893.52 2998.81 2994.85 3017.1 3064.4 
3033.46 2916.62 2916.62 2894.31 2934.57 3004.63 2943.37 3031.26 3177.98 
3223.31 3191.44 3430.21 3582.68 3730.04 3823.42 3148.15 3084.35 3131.77 
3130.57 3072.7 3149.67 3155.72 3100.06 3169.25 3163.54 3300.04 2745.22 
2808.74 2862.47 2863.74 2891.73 2937.07 2985.83 2964.36 2994.69 2967.19 
2920.77 2921.46 2931.19 3011.7 2925.88 2887.63 2839.62 2858.68 2838.67 
2823.05 2846.95 2837.37 2834.75 2826.6 2811.1 2806.43 2940.75 2859.56 
2927.86 2935.88 2939.11 2923.99 3255.4 3121.64 2989.86 3072.75 3037.63 