# vtk DataFile Version 3.0
vtk output
ASCII
DATASET POLYDATA
POINTS 668 float
1.4349 -0.986916 1.58176 2.71256 0.772166 1.01791 0.250567 0.548363 0.692995 
1.7209 -1.31481 1.27183 -0.101974 0.175624 0.555953 2.78777 -1.45337 0.969205 
-0.329372 0.171426 0.127121 3.6233 0.102884 -0.126085 -0.71089 -0.370083 -0.451713 
3.8737 -0.641375 -0.194646 4.75071 -1.0804 -0.0205379 6.7998 0.412552 -0.461799 
7.16116 -0.441844 -0.0117396 4.30424 -0.0989128 -0.509002 4.3859 -0.186477 -0.480906 
7.16845 -0.699039 -0.152616 7.01606 -0.223471 -0.560341 3.70224 -0.85897 -0.841005 
7.17376 0.300734 -0.820486 0.767586 0.61744 -1.56338 1.4756 -2.39809 -0.745389 
4.64096 -0.241104 -1.06947 5.76012 0.779306 -1.24968 6.59719 0.550692 -1.20093 
6.72449 0.25943 -1.18668 6.88932 -1.33328 -0.600956 7.2651 -0.922376 -0.968079 
1.1325 -2.31537 -0.997707 6.1411 0.479555 -1.35315 7.13471 0.0591864 -1.24447 
0.163988 0.121284 -1.89372 5.90688 0.44553 -1.56801 6.94599 -0.0828592 -1.49754 
7.10303 -0.55503 -1.46961 7.0951 -1.29421 -1.04066 6.86198 0.0673462 -1.61071 
1.65526 -1.93942 -1.88372 6.57847 -0.878153 -2.01077 6.62362 -0.871353 -1.90969 
6.67517 -0.86114 -1.83967 6.73925 -0.835489 -1.811 6.80876 -0.802677 -1.79908 
6.87811 -0.764707 -1.77445 6.94589 -0.715368 -1.71068 7.01782 -0.647208 -1.60417 
1.60499 -1.91882 -1.89254 1.5577 -1.89092 -1.903 1.51231 -1.85833 -1.91453 
1.45625 -1.85504 -1.92701 1.40265 -1.84879 -1.94773 1.35371 -1.83724 -1.9848 
1.30841 -1.81672 -2.02389 1.26557 -1.79325 -2.07122 1.21057 -1.79351 -2.09805 
1.15713 -1.78379 -2.11199 1.10784 -1.74849 -2.09383 1.06372 -1.69435 -2.06477 
1.01337 -1.6555 -2.03228 0.957182 -1.64024 -2.01717 0.895741 -1.64402 -2.01291 
0.840365 -1.63598 -2.0189 0.788675 -1.61888 -2.02693 0.737656 -1.60013 -2.03533 
0.686678 -1.58128 -2.04375 0.6357 -1.56243 -2.05217 0.584213 -1.54175 -2.05343 
0.531708 -1.51743 -2.04037 0.478144 -1.48957 -2.01296 0.424417 -1.46518 -1.99234 
0.368532 -1.45531 -1.99117 0.308069 -1.46283 -2.00121 0.252184 -1.45297 -2.00004 
0.197948 -1.42675 -1.97226 0.142857 -1.39342 -1.92336 0.0872965 -1.35816 -1.86733 
0.0316964 -1.323 -1.81128 -0.0245753 -1.2895 -1.75485 -0.0850431 -1.26322 -1.68923 
-0.151652 -1.24896 -1.6133 -0.213853 -1.2208 -1.53296 -0.275506 -1.19436 -1.45979 
-0.341399 -1.17834 -1.38427 -0.398994 -1.13579 -1.2996 -0.449353 -1.06316 -1.19142 
-0.505602 -0.99886 -1.06621 -0.563667 -0.945454 -0.95368 -0.614282 -0.890811 -0.871593 
-0.644564 -0.818823 -0.807793 -0.65471 -0.741845 -0.743822 -0.669721 -0.65826 -0.669126 
-0.678838 -0.575392 -0.593818 -0.697287 -0.480309 -0.519727 7.03411 -0.489648 -1.60481 
6.99158 -0.428039 -1.68863 6.96039 -0.35871 -1.7085 6.93909 -0.281398 -1.67989 
6.93895 -0.193086 -1.60279 7.21592 -0.512732 -1.37914 7.26485 -0.450611 -1.2957 
7.28198 -0.378515 -1.21579 7.28443 -0.305409 -1.15633 7.26312 -0.228717 -1.12373 
7.23296 -0.155795 -1.12401 7.20217 -0.0868739 -1.1463 7.17044 -0.0178567 -1.18911 
7.19122 -0.628149 -1.39748 7.22698 -0.682436 -1.31599 7.21953 -0.719781 -1.22721 
7.20923 -0.757191 -1.13285 7.22713 -0.821331 -1.04822 6.89832 -0.00190543 -1.55729 
6.79737 0.0127301 -1.701 6.73092 -0.0310197 -1.75589 6.6653 -0.0511989 -1.76307 
6.60663 -0.0358917 -1.73283 6.55133 -0.0061277 -1.6907 6.4973 0.0236596 -1.65616 
6.44551 0.0497278 -1.64349 6.39846 0.081308 -1.64721 6.35768 0.128283 -1.65441 
6.31401 0.174315 -1.64625 6.27093 0.234077 -1.61089 6.22394 0.296543 -1.54586 
6.18119 0.381697 -1.45565 6.80261 0.17578 -1.40246 7.08587 -1.25468 -1.15098 
7.09801 -1.21651 -1.22879 7.12024 -1.1739 -1.2687 7.15118 -1.12675 -1.27276 
7.19443 -1.07392 -1.22951 7.22738 -1.00299 -1.12454 7.03345 -1.31249 -0.963774 
6.99205 -1.33566 -0.868876 6.94853 -1.35173 -0.745288 7.15456 -1.22122 -0.87879 
7.21376 -1.15305 -0.738699 7.26492 -1.092 -0.645256 7.29363 -1.03985 -0.641162 
7.29878 -0.991589 -0.754602 7.02652 -0.468807 -1.14839 7.00416 -0.353735 -0.845982 
7.03676 -0.0105101 -1.3716 5.87619 0.372388 -1.55157 5.83157 0.321879 -1.54189 
5.80025 0.274671 -1.5321 5.77628 0.226094 -1.52143 5.74294 0.181052 -1.51234 
5.68461 0.145253 -1.50737 5.61522 0.113539 -1.50423 5.54405 0.0824872 -1.50138 
5.47277 0.0514724 -1.49856 5.40103 0.0223817 -1.48859 5.32894 -0.00141433 -1.46467 
5.25911 -0.010722 -1.4213 5.19606 -0.00508305 -1.37358 5.13717 -0.0184383 -1.3284 
5.09018 -0.0515153 -1.30033 5.02959 -0.0847293 -1.28852 4.96189 -0.117067 -1.2851 
4.90126 -0.15038 -1.27327 4.85356 -0.185207 -1.24481 4.79028 -0.209369 -1.19719 
4.71672 -0.226461 -1.13677 5.98247 0.493065 -1.47513 6.03996 0.505792 -1.40534 
6.09054 0.496468 -1.36872 5.84773 0.567747 -1.46542 5.80103 0.676634 -1.35854 
0.0863386 0.117641 -1.79105 0.0133531 0.119312 -1.70473 -0.052921 0.131034 -1.6358 
-0.122077 0.124759 -1.57782 -0.184544 0.102309 -1.53058 -0.230926 0.0687443 -1.49469 
-0.282039 0.0368137 -1.45954 -0.327691 0.00613305 -1.40901 -0.380229 -0.0203636 -1.35236 
-0.426391 -0.0492209 -1.29467 -0.478419 -0.0775436 -1.24519 -0.52458 -0.106401 -1.18749 
-0.577017 -0.132935 -1.13082 -0.620777 -0.164316 -1.07998 -0.658942 -0.201033 -1.0427 
-0.667845 -0.246936 -0.993335 -0.683688 -0.282686 -0.911301 -0.707994 -0.306165 -0.787017 
-0.722953 -0.330114 -0.628746 0.20186 0.057943 -1.90555 0.246375 0.004774 -1.93482 
0.290684 -0.0550526 -1.97773 0.341804 -0.101218 -2.03131 0.396652 -0.138226 -2.08695 
0.451662 -0.171761 -2.13579 0.506203 -0.203371 -2.1775 0.560236 -0.233159 -2.21204 
0.614777 -0.26477 -2.25375 0.669319 -0.296383 -2.29546 0.723351 -0.326171 -2.33001 
0.775857 -0.350489 -2.34307 0.827344 -0.371163 -2.34181 0.878321 -0.390013 -2.33338 
0.929809 -0.410686 -2.33213 0.982314 -0.435005 -2.34519 1.03635 -0.464792 -2.37973 
1.09089 -0.496405 -2.42144 1.14492 -0.526193 -2.45599 1.19747 -0.550411 -2.46907 
1.24967 -0.569335 -2.4682 1.305 -0.577469 -2.4622 1.3653 -0.573436 -2.45894 
1.41699 -0.590527 -2.45091 1.4636 -0.623185 -2.44695 1.52174 -0.633669 -2.46313 
1.57946 -0.654399 -2.49972 1.6342 -0.682439 -2.53467 1.68797 -0.706732 -2.55531 
1.74288 -0.712851 -2.54218 1.80354 -0.701755 -2.52537 1.86183 -0.69342 -2.50036 
1.92372 -0.682398 -2.49111 1.98205 -0.673963 -2.46612 2.04291 -0.659293 -2.44254 
2.10069 -0.649137 -2.41037 2.16085 -0.636216 -2.3864 2.21478 -0.638591 -2.35898 
2.26515 -0.646649 -2.3227 2.31857 -0.6472 -2.28812 2.37771 -0.630633 -2.24982 
2.43545 -0.620576 -2.21763 2.49513 -0.605733 -2.18652 2.5497 -0.606557 -2.15944 
2.60308 -0.607208 -2.12484 2.65734 -0.599535 -2.07696 2.70357 -0.60854 -2.01775 
2.7578 -0.600968 -1.96985 2.81097 -0.605192 -1.94201 2.86211 -0.620568 -1.9268 
2.91266 -0.637395 -1.91126 2.96283 -0.649026 -1.88175 3.01515 -0.646131 -1.8328 
3.07256 -0.627666 -1.77978 3.12488 -0.624771 -1.73083 3.17453 -0.634579 -1.69416 
3.22352 -0.646037 -1.65711 3.27093 -0.652125 -1.59856 3.31686 -0.652643 -1.51854 
3.36291 -0.649789 -1.43171 3.4135 -0.644997 -1.36804 3.46752 -0.640997 -1.32692 
3.51033 -0.664557 -1.27956 3.55279 -0.679728 -1.21139 3.59256 -0.693508 -1.12333 
3.62394 -0.731293 -1.02976 3.65714 -0.787281 -0.93652 0.223961 0.192444 -1.73902 
0.284792 0.255113 -1.62039 0.339825 0.308481 -1.55345 0.382176 0.35673 -1.53208 
0.430742 0.397776 -1.53141 0.473238 0.439433 -1.53899 0.520525 0.479317 -1.54578 
0.553822 0.524259 -1.55486 0.588145 0.566924 -1.56328 0.642174 0.591882 -1.56579 
0.701528 0.598954 -1.56337 7.16059 0.185952 -1.03227 6.67488 0.34856 -1.22057 
6.63495 0.440047 -1.22371 6.21237 0.51057 -1.35598 6.28314 0.543408 -1.35165 
6.35281 0.579701 -1.33295 6.41978 0.617379 -1.29436 6.47963 0.634177 -1.25097 
6.53106 0.601455 -1.216 1.19148 -2.30228 -0.966199 1.23888 -2.31146 -0.914525 
1.29264 -2.30196 -0.859481 1.34425 -2.30082 -0.810137 1.39362 -2.3144 -0.780187 
1.43901 -2.34389 -0.761788 7.24085 -0.868924 -0.652038 7.2167 -0.783455 -0.382453 
6.85426 -1.24657 -0.449301 6.85034 -1.1492 -0.298147 6.85882 -1.06154 -0.166623 
6.87089 -0.982423 -0.0633156 6.88569 -0.912543 0.00422512 6.90421 -0.850579 0.0433983 
6.93464 -0.80119 0.0483173 6.98293 -0.76495 0.0271963 7.03028 -0.734896 -0.0230547 
7.09448 -0.714343 -0.0850182 6.75868 0.316833 -0.820889 6.63462 0.560842 -0.960785 
6.67099 0.583153 -0.741682 6.70574 0.59437 -0.563292 6.73845 0.571509 -0.452996 
6.77429 0.518543 -0.4293 4.55594 -0.222895 -0.873283 4.47092 -0.204686 -0.677094 
4.66522 -0.328697 -1.14506 4.67161 -0.403142 -1.1946 4.66927 -0.466186 -1.20936 
4.63565 -0.512757 -1.20756 4.60788 -0.559859 -1.19755 4.59644 -0.611361 -1.17758 
4.5997 -0.665034 -1.14071 4.5891 -0.708674 -1.08438 4.57619 -0.749825 -1.02118 
4.56512 -0.79318 -0.964968 4.51652 -0.824025 -0.929923 4.4513 -0.838304 -0.900278 
4.38719 -0.833811 -0.860012 4.31696 -0.837675 -0.802727 4.24626 -0.839624 -0.738297 
4.18064 -0.826008 -0.669815 4.11203 -0.813294 -0.585986 4.04293 -0.784448 -0.475652 
3.96329 -0.738212 -0.339846 3.65918 -0.962958 -0.983596 3.63276 -1.04472 -1.07959 
3.60294 -1.10338 -1.11785 3.55651 -1.14638 -1.12298 3.51412 -1.18807 -1.11538 
3.46683 -1.22796 -1.10858 3.43359 -1.27304 -1.09947 3.40035 -1.31811 -1.09036 
3.35368 -1.35986 -1.09071 3.3145 -1.40765 -1.10432 3.27964 -1.46194 -1.13894 
3.26579 -1.52563 -1.17735 3.23261 -1.58054 -1.2117 3.2026 -1.63172 -1.22379 
3.16827 -1.67803 -1.2221 3.11173 -1.71449 -1.21684 3.05539 -1.75103 -1.21154 
3.02394 -1.79677 -1.20213 3.01102 -1.84936 -1.18967 3.00456 -1.90434 -1.17613 
2.96843 -1.94835 -1.16749 2.92772 -1.99067 -1.15961 2.87885 -2.02996 -1.15308 
2.83625 -2.07158 -1.14552 2.78671 -2.10888 -1.13188 2.74151 -2.14262 -1.10352 
2.68273 -2.15601 -1.05832 2.61967 -2.15037 -1.0106 2.54988 -2.15958 -0.967253 
2.478 -2.1798 -0.936568 2.40912 -2.19262 -0.907554 2.34479 -2.18815 -0.8673 
2.27445 -2.19563 -0.816755 2.20262 -2.21462 -0.771061 2.1404 -2.24232 -0.737784 
2.09168 -2.2735 -0.694998 2.02646 -2.29041 -0.618716 1.95025 -2.29169 -0.493553 
1.8811 -2.28365 -0.324296 1.84054 -2.26682 -0.13226 1.8248 -2.21686 0.0607709 
1.82366 -2.13162 0.245857 1.82056 -2.03284 0.419696 1.81277 -1.93347 0.577729 
[...]
POINT_DATA 668
SCALARS DY_raw double
LOOKUP_TABLE default
788.628 1782.15 788.029 710.692 843.156 702.563 709.396 802.287 741.364 
771.561 968.128 830.573 949.124 1060.34 799.423 1025.48 864.824 592.833 
752.473 623.814 599.136 696.782 1358.24 900.371 834.579 749.336 684.993 
873.798 1030.06 663.829 758.522 757.195 704.411 722.864 598.928 700.953 
538.009 696.108 874.358 767.97 935.292 861.463 726.078 661.541 670.754 
622.983 651.29 651.29 667.276 667.276 616.923 578.265 578.265 550.581 
614.399 678.69 776.885 763.852 831.651 781.664 751.496 751.496 732.996 
732.996 734.128 716.152 716.152 653.576 648.524 648.524 613.455 560.849 
568.302 563.517 591.777 558.453 595.488 627.22 580.654 561.256 556.257 
596.862 627.086 703.781 702.958 705.718 680.43 732.069 702.645 651.28 
622.107 618.118 805.258 726.194 650.282 613.58 686.37 633.917 689.137 
744.715 764.826 757.184 697.737 635.564 638.068 572.072 607.786 642.407 
683.97 668.614 708.846 639.794 653.396 730.9 805.096 846.2 893.987 
853.667 853.667 808.169 795.026 819.735 890.643 979.109 722.543 574.317 
600.502 616.589 616.589 606.923 592.071 593.394 701.156 696.026 722.374 
733.375 746.234 774.11 693.886 907.728 827.195 637.549 741.301 747.556 
740.465 805.798 805.798 883.116 961.536 1050 873.32 1031.68 1036.14 
998.54 1012.62 1012.57 1032.12 1058.35 1058.35 965.736 751.896 838.839 
711.74 853.282 888.24 916.565 939.926 1100.66 775.639 786.16 753.61 
745.099 759.213 827.642 754.034 762.904 807.484 791.422 834.907 879.655 
691.732 813.622 695.265 626.157 660.213 681.804 806.591 710.408 688.144 
678.021 668.214 725.592 746.594 720.457 782.658 776.806 738.949 721.91 
753.924 763.461 763.461 840.57 838.008 838.008 864.207 821.173 759.116 
817.049 817.049 846.163 848.02 848.02 842.687 753.823 678.589 711.155 
705.009 705.009 752.512 828.5 880.369 838.364 990.213 899.275 747.924 
795.645 769.888 745.805 958.172 876.911 767.174 878.24 764.7 847.687 
831.552 670.744 738.561 771.185 657.941 723.172 649.675 619.925 619.925 
572.02 576.69 689.266 767.362 845.95 763.564 646.29 612.28 525.887 
544.144 554.666 867.663 901.914 973.798 897.052 904.881 749.023 749.023 
652.002 677.368 646.116 634.34 702.47 850.406 860.618 1114.97 1079.38 
1083.49 996.434 957.26 916.196 715.67 757.196 712.861 675.082 675.082 
629.741 873.666 954.452 796.904 946.386 975.432 1103.92 1022.18 1079.8 
1068.41 1068.41 964.772 976.413 843.506 957.705 862.16 936.365 810.793 
755.643 890.137 751.406 614.24 544.766 577.813 577.813 657.956 657.956 
678.229 678.975 636.645 651.575 688.573 788.354 735.483 796.459 836.873 
773.279 804.265 698.371 733.691 507.183 527.165 503.74 534.832 622.629 
676.961 685.553 818.897 775.457 838.073 771.158 676.329 638.253 676.806 
683.396 683.396 768.381 827.64 827.64 722.963 648.729 689.055 539.442 
529.533 529.533 548.251 640.058 713.808 710.483 861.571 750.916 750.267 
725.414 730.372 779.062 772.12 630.363 698.091 689.296 599.97 607.735 
647.435 587.435 571.244 601.622 621.497 638.07 571.613 616.676 685.393 
842.141 1006.43 899.739 835.822 908.846 843.288 817.851 762.711 811.153 
843.979 905.284 968.132 968.296 1027.47 1018.3 988.195 963.983 940.775 
941.753 945.24 717.761 799.213 877.522 891.523 925.682 931.873 942.504 
956.328 927.858 906.622 893.079 894.961 863.82 919.396 919.578 953.469 
911.893 938.752 959.495 1162.41 1049.26 1040.28 1011.79 909.088 846.664 
800.253 765.546 752.101 794.195 831.165 883.309 876.016 937.013 924.978 
873.019 883.259 887.878 990.759 1023.46 1023.44 1006.3 954.979 931.602 
1014.06 925.872 840.182 815.009 885.417 812.068 861.791 914.27 940.679 
835.285 775.163 873.84 771.038 805.682 1024.59 1032.02 929.252 895.487 
854.221 798.687 798.687 788.845 812.391 812.296 743.171 704.33 684.045 
633.696 658.937 689.288 749.409 717.213 765.459 754.273 771.285 822.648 
824.785 804.488 823.043 832.258 866.604 916.035 954.377 907.701 907.701 
885.234 959.302 957.905 815.998 815.998 769.202 868.493 793.492 864.216 
816.346 760.657 818.492 942.612 950.809 1027.05 868.771 641.726 641.726 
663.827 678.82 713.622 773.858 863.084 915.721 1250.19 897.563 863.707 
822.668 895.74 907.3 886.79 833.846 833.846 818.476 785.13 785.13 
773.455 771.431 771.431 796.955 803.65 803.65 757.429 757.429 803.864 
856.298 948.888 893.138 779.576 830.123 801.427 769.094 769.094 870.342 
768.203 789.633 706.115 739.693 712.381 816.399 871.016 1067.95 1039.24 
1108.89 1161.2 1169.82 1121.49 1018.21 1098.12 1027.7 990.092 995.102 
966.966 1110 1005.92 1157.53 1099.11 1152.09 1233.2 1091.19 1113.78 
1145.65 925.372 963.375 941.962 788.029 762.703 869.809 969.591 890.414 
935.106 794.182 854.228 722.998 792.622 942.781 872.528 784.275 824.379 
824.379 786.593 920.328 965.508 954.079 921.284 981.605 876.293 909.32 
838.495 785.167 824.786 801.233 838.426 915.674 895.087 1019.49 956.362 
965.435 778.234 778.234 718.949 801.75 754.882 754.882 739.353 780.344 
780.344 824.874 784.036 784.036 790.084 853.555 880.804 1006.26 981.785 
914.091 836.015 795.523 795.523 791.738 796.65 818.253 791.992 870.087 
946.714 883.369 822.588 759.611 830.879 797.325 794.807 834.17 786.394 
862.898 811.604 802.301 878.321 770.33 725.22 833.182 763.404 754.167 
749.359 752.089 756.351 740.686 810.977 827.651 838.472 725.868 732.684 
777.672 777.672 774.031 750.221 770.813 719.925 703.242 725.145 779.491 
779.491 828.809 937.56 937.56 838.016 838.366 902.736 955.133 902.447 
868.78 814.245 
FIELD FieldData 7
DY_minmax 1 668 double
0.222846 1 0.222378 0.161882 0.265499 0.155524 0.160869 0.23353 0.185875 
0.209495 0.363255 0.255656 0.34839 0.435383 0.23129 0.408117 0.282448 0.0696905 
0.194565 0.0939241 0.0746205 0.151002 0.668408 0.310254 0.25879 0.19211 0.14178 
0.289467 0.411698 0.125225 0.199296 0.198258 0.156969 0.171404 0.0744579 0.154264 
0.0268054 0.150475 0.289905 0.206687 0.33757 0.279819 0.173917 0.123435 0.130642 
0.0932747 0.115417 0.115417 0.127922 0.127922 0.0885339 0.058295 0.058295 0.0366402 
0.08656 0.13685 0.21366 0.203466 0.256499 0.217398 0.1938 0.1938 0.179329 
0.179329 0.180215 0.166154 0.166154 0.117205 0.113253 0.113253 0.0858216 0.044672 
0.0505019 0.0467589 0.0688642 0.0427973 0.0717669 0.096589 0.0601637 0.0449904 0.0410798 
0.0728418 0.0964838 0.156477 0.155833 0.157992 0.138211 0.178604 0.155588 0.115409 
0.0925893 0.0894687 0.235854 0.174008 0.114628 0.0859195 0.142857 0.101828 0.145021 
0.188496 0.204227 0.19825 0.151748 0.103116 0.105074 0.0534505 0.0813869 0.108468 
0.14098 0.128968 0.160438 0.106424 0.117064 0.177689 0.235728 0.26788 0.30526 
0.273721 0.273721 0.238131 0.22785 0.247178 0.302644 0.371844 0.171153 0.0552065 
0.075689 0.0882728 0.0882728 0.0807118 0.0690939 0.0701293 0.154423 0.15041 0.171021 
0.179626 0.189684 0.211489 0.148737 0.316008 0.253014 0.104669 0.185825 0.190718 
0.185171 0.236276 0.236276 0.296756 0.358098 0.427294 0.289094 0.412969 0.416458 
0.387043 0.398057 0.398018 0.413314 0.43383 0.43383 0.361384 0.194113 0.262122 
0.162702 0.27342 0.300764 0.322921 0.341195 0.466927 0.212685 0.220915 0.195454 
0.188796 0.199836 0.253363 0.195786 0.202724 0.237596 0.225032 0.259047 0.294049 
0.147051 0.242397 0.149815 0.095757 0.122397 0.139285 0.236896 0.16166 0.144245 
0.136326 0.128655 0.173537 0.189966 0.16952 0.218176 0.213598 0.183985 0.170658 
0.195699 0.20316 0.20316 0.263476 0.261472 0.261472 0.281965 0.248303 0.199761 
0.245077 0.245077 0.267851 0.269303 0.269303 0.265132 0.195621 0.13677 0.162245 
0.157437 0.157437 0.194595 0.254035 0.294608 0.26175 0.38053 0.309397 0.191006 
0.228335 0.208187 0.189348 0.355467 0.291902 0.206064 0.292942 0.204128 0.269043 
0.256422 0.130634 0.183682 0.209202 0.120619 0.171645 0.114153 0.0908825 0.0908825 
0.05341 0.0570631 0.145122 0.206211 0.267684 0.20324 0.111506 0.0849025 0.017324 
0.0316049 0.0398351 0.284669 0.311461 0.36769 0.307657 0.313782 0.191866 0.191866 
0.115974 0.135816 0.11137 0.102158 0.155451 0.27117 0.279158 0.478119 0.450278 
0.45349 0.385396 0.354753 0.322632 0.165776 0.198259 0.163579 0.134027 0.134027 
0.0985608 0.289364 0.352557 0.229319 0.346248 0.368968 0.469476 0.405539 0.450607 
0.441694 0.441694 0.360629 0.369736 0.265773 0.355102 0.280365 0.338409 0.240184 
0.197044 0.302248 0.19373 0.0864353 0.0320909 0.0579416 0.0579416 0.120631 0.120631 
0.136489 0.137073 0.103961 0.115639 0.14458 0.222631 0.181275 0.228971 0.260584 
0.210839 0.235077 0.152245 0.179873 0.00269272 0.0183237 0 0.0243204 0.0929972 
0.135498 0.142218 0.246523 0.212543 0.261523 0.20918 0.135003 0.105219 0.135376 
0.140531 0.140531 0.207008 0.253362 0.253362 0.171481 0.113413 0.144957 0.0279268 
0.0201757 0.0201757 0.0348171 0.106631 0.16432 0.161719 0.279903 0.193347 0.192839 
0.173398 0.177277 0.215363 0.209933 0.0990473 0.152025 0.145146 0.0752734 0.0813469 
0.112401 0.065468 0.0528033 0.0765651 0.0921124 0.105076 0.0530913 0.088341 0.142093 
0.264705 0.393215 0.309759 0.259762 0.316883 0.265602 0.245705 0.202573 0.240465 
0.266143 0.314097 0.363258 0.363386 0.409674 0.402502 0.378951 0.360013 0.341859 
0.342624 0.345351 0.167412 0.231125 0.29238 0.303333 0.330052 0.334895 0.343211 
0.354025 0.331755 0.315144 0.30455 0.306022 0.281663 0.325135 0.325278 0.351788 
0.319267 0.340276 0.356502 0.515228 0.426714 0.419697 0.397411 0.317073 0.268242 
0.231939 0.204791 0.194274 0.227201 0.256119 0.296907 0.291203 0.338916 0.329502 
0.288859 0.296868 0.300481 0.380958 0.406536 0.406523 0.393111 0.35297 0.334683 
0.399182 0.330202 0.263172 0.243481 0.298556 0.241181 0.280076 0.321126 0.341784 
0.259342 0.212313 0.2895 0.209087 0.236186 0.407421 0.413235 0.332845 0.306433 
0.274154 0.230714 0.230714 0.223016 0.241434 0.241359 0.187288 0.156906 0.141039 
0.101655 0.121399 0.145139 0.192168 0.166983 0.204723 0.195972 0.20928 0.249457 
0.251129 0.235252 0.249766 0.256974 0.28384 0.322506 0.352498 0.315988 0.315988 
0.298413 0.356351 0.355258 0.244255 0.244255 0.20765 0.285318 0.226651 0.281973 
0.244528 0.200966 0.246206 0.343296 0.349707 0.409344 0.285536 0.107935 0.107935 
0.125223 0.136951 0.164174 0.211293 0.281087 0.322261 0.58389 0.308057 0.281574 
0.249473 0.306632 0.315674 0.299631 0.258216 0.258216 0.246194 0.22011 0.22011 
0.210977 0.209394 0.209394 0.229359 0.234596 0.234596 0.198441 0.198441 0.234764 
0.275779 0.348205 0.304596 0.215765 0.255304 0.232858 0.207566 0.207566 0.286764 
0.206868 0.223632 0.158302 0.184567 0.163204 0.244569 0.287292 0.441335 0.418878 
0.473362 0.51428 0.521021 0.48322 0.402432 0.464934 0.409853 0.380436 0.384355 
0.362346 0.474228 0.392813 0.51141 0.465714 0.507151 0.570603 0.459517 0.477186 
0.502118 0.32981 0.359537 0.342787 0.222378 0.202567 0.286348 0.364399 0.302465 
0.337424 0.22719 0.274159 0.171508 0.22597 0.343428 0.288474 0.219441 0.250811 
0.250811 0.221254 0.325864 0.361206 0.352265 0.326612 0.373797 0.291419 0.317254 
0.261852 0.220138 0.25113 0.232706 0.261799 0.322224 0.30612 0.403429 0.354051 
0.361149 0.214715 0.214715 0.168341 0.23311 0.196448 0.196448 0.184302 0.216366 
0.216366 0.251198 0.219254 0.219254 0.223985 0.273633 0.294948 0.393083 0.373938 
0.320986 0.259913 0.228239 0.228239 0.225278 0.229121 0.246019 0.225477 0.286565 
0.346504 0.296954 0.24941 0.200148 0.255895 0.229649 0.227679 0.25847 0.221098 
0.280941 0.240818 0.233541 0.293006 0.208533 0.173247 0.257697 0.203115 0.195889 
0.192128 0.194264 0.197598 0.185345 0.240327 0.253371 0.261835 0.173753 0.179085 
0.214275 0.214275 0.211427 0.192803 0.208911 0.169105 0.156055 0.173188 0.215699 
0.215699 0.254276 0.339343 0.339343 0.261478 0.261752 0.312103 0.35309 0.311877 
0.285542 0.242884 
WidthEq 1 668 double
2.98746 1 3.13602 3.71196 3.18416 2.94763 3.51588 4.18922 5.16245 
5.02603 2.31946 5.61806 5.98359 2.92219 4.47483 4.94436 5.3661 4.86538 
4.93266 3.19807 2.86998 5.54775 2.25432 3.78649 4.89595 5.38294 5.60261 
2.59939 4.53155 4.56214 3.88936 5.73841 4.45023 4.93715 4.03406 4.14247 
3.501 2.75652 3.03744 3.6086 3.33759 3.44872 3.53155 3.87031 4.33867 
4.41084 4.57553 4.57553 4.52934 4.52934 4.43608 4.22598 4.22598 4.06219 
3.9131 3.90247 3.69058 3.71594 3.56541 3.69666 3.80258 3.80258 3.80265 
3.80265 3.68745 3.56318 3.56318 4.00744 3.97258 3.97258 4.0141 4.15441 
4.29857 4.49189 4.56581 5.18378 5.12618 5.18655 5.7599 5.87758 6.17286 
5.99621 5.84398 5.22762 4.98759 5.07687 5.256 4.97563 4.99964 5.10697 
5.44642 5.48678 3.83698 3.55255 3.51773 3.91642 4.20235 5.62044 5.462 
4.98587 4.48774 3.92897 4.08949 4.53192 4.83687 5.59604 5.48574 5.32711 
5.63552 5.93056 4.37514 3.65635 3.88406 4.34914 4.5048 4.51866 4.47295 
4.49311 4.49311 4.4777 4.48152 4.41035 4.45608 4.31659 4.68351 4.02473 
3.73391 3.73952 3.73952 4.45142 5.39954 4.66841 4.84584 5.38086 4.18796 
4.90545 5.65599 5.54534 5.00766 4.40341 5.10949 4.66185 5.84696 5.58654 
5.27196 4.31272 4.31272 3.7235 3.24482 2.91193 3.09197 2.76773 2.66915 
2.61846 2.46588 2.51075 2.60754 2.80287 2.80287 3.22954 4.26411 4.20693 
5.36433 5.6885 5.60382 5.21882 4.91978 4.06067 4.58406 4.19809 4.20116 
3.90473 3.78351 3.56028 3.76094 3.75599 3.69255 3.7004 3.59273 3.49158 
4.06248 3.66903 4.14433 4.27134 3.97342 4.07126 4.16195 4.52834 5.08001 
5.02786 5.05808 4.47337 4.27994 4.3644 4.07097 4.02795 4.10099 4.02705 
3.84474 3.79761 3.79761 3.48913 3.54587 3.54587 3.52019 3.68196 3.77179 
3.73559 3.73559 3.75309 3.89867 3.89867 3.95304 4.08158 4.23423 4.02891 
3.95957 3.95957 3.45759 3.18825 2.93722 3.07568 2.67635 2.98271 3.54724 
3.41643 3.7263 3.85263 3.33973 3.70758 4.10251 3.73954 4.25974 3.99221 
4.1043 4.67025 4.41862 4.18085 4.30019 4.16694 4.27229 4.38248 4.38248 
4.34187 4.18644 3.97703 3.70155 3.5666 3.73873 3.92568 4.13467 4.40151 
4.58227 4.84316 3.45067 3.36833 2.76004 2.76499 2.98313 4.09382 4.09382 
4.81618 4.8942 4.87594 4.2627 5.3708 4.76998 4.05625 3.46581 3.50715 
3.29444 3.65166 3.50447 3.48933 3.78724 3.81019 4.09904 4.00298 4.00298 
3.47012 5.35732 5.45493 4.99124 3.9427 3.34736 2.83705 2.88231 2.79817 
3.33069 3.33069 4.5731 5.13241 4.86129 3.76728 4.29928 4.22934 5.27916 
5.95903 4.33732 4.66207 5.84993 5.44496 4.88266 4.88266 3.94458 3.94458 
3.73375 3.71527 3.7666 3.83879 3.88309 3.42706 3.57918 3.14013 2.98245 
3.35763 4.01009 4.9425 5.04488 4.81576 4.49762 4.45977 4.25642 4.09603 
3.76622 3.61307 3.33832 3.37961 3.25885 3.51024 3.76306 3.83954 3.80831 
3.90097 3.90097 3.76583 3.81777 3.81777 4.03072 4.05046 4.00563 4.13929 
4.26411 4.26411 4.29057 4.12897 3.98989 3.88817 3.51722 3.86401 3.74257 
3.72076 3.76328 3.68554 3.93932 5.01588 4.96182 5.56961 6.14937 6.56613 
6.0673 5.88249 6.30754 5.31917 4.61035 4.67155 3.99078 3.73042 3.73831 
4.68249 4.1907 4.80493 5.49903 4.3453 4.28878 3.93446 3.71684 3.77067 
3.24875 3.19365 2.688 2.91406 2.90796 2.56314 2.94372 3.39811 3.85265 
4.84381 5.66841 4.67502 4.75871 5.45796 5.38133 5.38535 5.77418 5.14373 
5.05331 5.19868 5.41932 5.50062 5.46123 5.47812 5.69211 6.00083 3.68897 
4.1259 3.61972 3.38664 2.89987 3.08154 2.94146 2.81912 3.06016 3.17433 
3.356 3.40881 3.42059 3.54936 3.18045 2.64556 2.52428 2.3816 2.31721 
2.46942 2.64775 2.72096 2.76499 2.76605 2.7678 2.84038 2.84019 3.00731 
2.80327 2.81543 2.86313 2.83859 2.69432 2.72069 2.76278 2.98656 3.29769 
3.47145 3.6031 3.46048 3.57856 3.506 3.203 3.24727 3.44481 3.54821 
3.57883 3.46451 3.46451 4.61432 3.91151 3.36623 2.94242 3.05466 3.47702 
4.02833 4.4292 4.47527 4.38217 4.19561 4.07773 3.94411 3.66532 3.29501 
3.10899 3.05901 2.87047 2.72109 2.51121 2.45136 2.16076 2.19022 2.19022 
2.20055 2.16237 2.18784 2.63469 2.63469 2.79836 2.78906 3.00282 3.06297 
3.08078 4.46853 4.10233 3.55449 3.10145 2.81105 2.99062 4.26743 4.26743 
4.45429 4.62865 4.47246 3.82239 3.26429 3.1503 1.86079 3.55889 3.2911 
3.39647 3.13976 2.89553 2.97776 3.01768 3.01768 3.06991 3.0675 3.0675 
3.03154 3.04513 3.04513 2.94673 2.9973 2.9973 3.19836 3.19836 2.86421 
2.92296 2.7821 3.11834 3.51039 3.39366 3.44373 3.58205 3.58205 3.31075 
3.5638 3.48144 3.4472 3.52514 3.66391 3.10638 3.15788 2.6338 2.73731 
2.63484 2.48113 2.3373 2.54435 2.76309 2.67425 2.95559 3.09259 3.09842 
3.05351 2.79156 2.86286 2.6012 2.56599 2.38998 2.2408 2.51398 2.45222 
2.28724 2.69182 2.6611 2.76965 3.13602 5.04082 4.51819 3.99566 3.87873 
3.39172 3.57324 3.46292 3.6607 3.46278 3.05559 3.15211 3.20269 3.14663 
3.14663 3.37974 3.06635 3.10293 2.97778 2.58635 2.37481 2.68442 2.67602 
2.98676 3.20039 3.21887 3.23167 3.19922 3.12532 3.11489 2.64496 2.61789 
2.53831 2.80124 2.80124 3.02413 3.32917 3.25505 3.25505 2.94553 2.94056 
2.94056 2.983 3.2875 3.2875 3.41652 3.35624 3.1186 3.09464 3.20759 
3.39488 3.54362 3.53933 3.53933 3.43208 2.95718 2.91461 2.98143 2.88278 
2.83937 3.03194 3.46272 3.61161 3.50085 3.52153 3.58736 3.49353 3.4558 
3.25501 3.26851 2.97544 2.89854 2.83165 3.04787 2.85809 3.10486 3.02866 
3.1892 3.31097 3.34756 3.31259 2.80391 2.59689 2.75215 3.32132 3.37969 
3.04493 3.04493 3.06178 3.06624 3.10035 3.13193 3.12062 3.08505 2.88934 
2.88934 2.78338 2.46891 2.46891 2.5838 2.51044 2.36007 2.36301 2.56981 
2.76214 3.02464 
rRFP 1 668 double
3565.95 2666.8 3633.16 3893.72 3654.94 3547.93 3805.01 4109.64 4549.94 
4488.22 3263.74 4756.06 4921.43 3536.42 4238.85 4451.27 4642.07 4415.54 
4445.98 3661.23 3512.8 4724.25 3234.27 3927.44 4429.37 4649.69 4749.07 
3390.38 4264.51 4278.35 3973.98 4810.51 4227.72 4448.01 4039.44 4088.49 
3798.28 3461.47 3588.56 3846.96 3724.35 3774.63 3812.1 3965.36 4177.25 
4209.9 4284.41 4284.41 4263.51 4263.51 4221.32 4126.27 4126.27 4052.17 
3984.72 3979.91 3884.05 3895.52 3827.42 3886.8 3934.72 3934.72 3934.75 
3934.75 3882.63 3826.41 3826.41 4027.4 4011.63 4011.63 4030.41 4093.89 
4159.11 4246.57 4280.01 4559.59 4533.53 4560.84 4820.23 4873.47 5007.06 
4927.14 4858.27 4579.42 4470.83 4511.22 4592.26 4465.42 4476.28 4524.84 
4678.41 4696.67 3950.28 3821.6 3805.85 3986.22 4115.58 4757.14 4685.46 
4470.05 4244.69 3991.9 4064.52 4264.68 4402.64 4746.1 4696.2 4624.43 
4763.96 4897.44 4193.75 3868.56 3971.58 4181.99 4252.41 4258.68 4238 
4247.12 4247.12 4240.15 4241.88 4209.68 4230.37 4167.26 4333.26 4035.22 
3903.65 3906.19 3906.19 4228.26 4657.2 4326.43 4406.7 4648.75 4109.07 
4433.67 4773.22 4723.16 4479.91 4206.54 4525.98 4323.46 4859.62 4741.8 
4599.48 4165.51 4165.51 3898.94 3682.38 3531.78 3613.23 3466.54 3421.94 
3399.01 3329.98 3350.28 3394.07 3482.44 3482.44 3675.47 4143.52 4117.65 
4641.27 4787.93 4749.62 4575.44 4440.15 4051.48 4288.27 4113.65 4115.04 
3980.93 3926.09 3825.1 3915.88 3913.64 3884.94 3888.49 3839.78 3794.02 
4052.3 3874.3 4089.33 4146.79 4012.01 4056.27 4097.3 4263.06 4512.64 
4489.05 4502.72 4238.19 4150.68 4188.89 4056.14 4036.68 4069.72 4036.27 
3953.79 3932.47 3932.47 3792.91 3818.58 3818.58 3806.96 3880.15 3920.79 
3904.41 3904.41 3912.33 3978.19 3978.19 4002.79 4060.94 4130 4037.11 
4005.74 4005.74 3778.64 3656.79 3543.22 3605.86 3425.2 3563.8 3819.2 
3760.02 3900.21 3957.36 3725.32 3891.74 4070.41 3906.2 4141.54 4020.51 
4071.22 4327.26 4213.42 4105.85 4159.84 4099.56 4147.22 4197.07 4197.07 
4178.7 4108.38 4013.64 3889.01 3827.96 3905.83 3990.41 4084.96 4205.68 
4287.46 4405.49 3775.51 3738.26 3463.06 3465.3 3563.99 4066.48 4066.48 
4393.28 4428.58 4420.32 4142.88 4644.2 4372.38 4049.48 3782.36 3801.06 
3704.83 3866.44 3799.85 3793 3927.78 3938.16 4068.84 4025.38 4025.38 
3784.31 4638.1 4682.26 4472.48 3998.11 3728.77 3497.9 3518.38 3480.31 
3721.23 3721.23 4283.31 4536.35 4413.69 3918.75 4159.43 4127.79 4602.74 
4910.32 4176.64 4323.56 4860.96 4677.75 4423.36 4423.36 3998.96 3998.96 
3903.58 3895.22 3918.44 3951.1 3971.14 3764.83 3833.65 3635.02 3563.68 
3733.42 4028.6 4450.43 4496.75 4393.09 4249.16 4232.04 4140.04 4067.48 
3918.27 3848.98 3724.68 3743.36 3688.73 3802.46 3916.84 3951.44 3937.31 
3979.23 3979.23 3918.09 3941.59 3941.59 4037.93 4046.86 4026.58 4087.05 
4143.52 4143.52 4155.49 4082.38 4019.46 3973.44 3805.62 3962.51 3907.57 
3897.7 3916.94 3881.77 3996.58 4483.63 4459.17 4734.14 4996.43 5184.98 
4959.3 4875.69 5067.99 4620.84 4300.16 4327.85 4019.86 3902.07 3905.64 
4332.8 4110.31 4388.19 4702.21 4180.25 4154.68 3994.38 3895.93 3920.28 
3684.16 3659.23 3430.47 3532.74 3529.98 3373.98 3546.16 3751.73 3957.37 