# vtk DataFile Version 3.0
vtk output
ASCII
DATASET POLYDATA
POINTS 506 float
1.48707 0.102461 1.54823 2.99 -0.626981 1.2846 2.92106 -0.81997 1.28885 
6.44433 -0.14635 1.0844 0.391549 -0.00147894 1.06184 6.25602 0.402147 0.871062 
5.97011 0.566875 0.866345 5.83507 0.767351 0.661226 3.28509 -0.682843 0.686668 
1.01891 -1.83568 0.613519 6.41248 -0.734528 0.431046 4.30655 0.306743 0.266918 
6.0693 -0.858382 0.232766 -0.0338921 -1.4249 0.226498 6.51699 0.171285 0.0770106 
5.88529 -0.92445 0.100344 3.35212 -0.0446412 -0.328149 -0.794536 -0.601725 -0.59517 
2.61281 0.753593 -0.749063 2.52798 0.569758 -0.745081 2.40037 0.495204 -0.743762 
2.97184 0.0164445 -0.797566 -0.0971004 0.448927 -1.047 -0.625491 -0.685068 -0.926127 
-0.381609 -1.14291 -0.914766 -0.336663 -0.41574 -1.33155 0.0412065 0.123869 -1.54288 
-0.0646806 -0.830563 -1.52115 0.620934 -0.0874734 -1.73621 0.572264 -0.0617859 -1.73696 
0.51866 -0.0446562 -1.73752 0.457486 -0.0406581 -1.73781 0.403883 -0.0235286 -1.73838 
0.355268 0.00225405 -1.73913 0.307562 0.0296137 -1.73991 0.259887 0.0572396 -1.73329 
0.212111 0.0851124 -1.71186 0.1633 0.111827 -1.66818 0.108539 0.128646 -1.60947 
0.0104592 -0.810548 -1.52878 0.0856462 -0.790875 -1.55122 0.160808 -0.771662 -1.59588 
0.234417 -0.751711 -1.64798 0.299347 -0.726603 -1.69281 0.351009 -0.693534 -1.72305 
0.414188 -0.666943 -1.74569 0.477367 -0.640352 -1.76833 0.528958 -0.60677 -1.77636 
0.593724 -0.580463 -1.76935 0.667098 -0.558799 -1.74739 0.742072 -0.538216 -1.73281 
0.817165 -0.517859 -1.72563 0.892226 -0.497768 -1.72586 0.966379 -0.479254 -1.72605 
1.03549 -0.469488 -1.72606 1.09607 -0.474517 -1.72575 1.15831 -0.47667 -1.7255 
1.21293 -0.492024 -1.72497 1.26755 -0.507386 -1.72445 1.32975 -0.509618 -1.7242 
1.38936 -0.516327 -1.72385 1.45251 -0.516886 -1.72364 1.51303 -0.521602 -1.71593 
1.58039 -0.510359 -1.69375 1.64408 -0.484867 -1.64968 1.69551 -0.45006 -1.59845 
1.76011 -0.422992 -1.55442 1.83252 -0.403001 -1.53242 1.90156 -0.392914 -1.52503 
1.96306 -0.396129 -1.52476 2.03055 -0.385305 -1.52479 2.09435 -0.360669 -1.51775 
2.14588 -0.326547 -1.49615 2.21053 -0.299383 -1.45212 2.28381 -0.277035 -1.40053 
2.35869 -0.255767 -1.35633 2.43374 -0.235067 -1.33434 2.5088 -0.214538 -1.31976 
2.58376 -0.193784 -1.29777 2.65703 -0.171436 -1.24619 2.72149 -0.143532 -1.17253 
2.77125 -0.106655 -1.07938 2.82667 -0.0715567 -0.986163 2.88488 -0.028916 -0.890638 
-0.091626 -0.769101 -1.58934 -0.126189 -0.720428 -1.64244 -0.158264 -0.666591 -1.66601 
-0.193971 -0.617783 -1.64503 -0.226336 -0.562329 -1.59455 -0.262262 -0.512417 -1.52172 
-0.295654 -0.457684 -1.43418 -0.0921458 -0.878203 -1.52013 -0.119635 -0.925672 -1.51171 
-0.147289 -0.972573 -1.48107 -0.176638 -1.01771 -1.41345 -0.214855 -1.05695 -1.30892 
-0.26794 -1.08715 -1.18244 -0.318164 -1.11884 -1.04849 0.0207308 0.200582 -1.47063 
-0.000675818 0.276104 -1.38353 -0.0268172 0.344049 -1.27404 -0.0604423 0.399224 -1.15687 
-0.0218152 0.0967151 -1.54245 -0.0717023 0.0619932 -1.54181 -0.126069 0.0298517 -1.54124 
-0.174308 -0.00566222 -1.53316 -0.226977 -0.0383079 -1.51034 -0.264983 -0.0790875 -1.47247 
-0.294151 -0.124958 -1.43446 -0.320101 -0.172999 -1.4112 -0.337191 -0.226302 -1.39521 
-0.339483 -0.288131 -1.37896 -0.344683 -0.348127 -1.35536 -0.399684 -0.442894 -1.33112 
-0.449485 -0.477666 -1.33047 -0.502194 -0.510604 -1.32247 -0.540176 -0.551555 -1.292 
-0.569549 -0.59652 -1.21697 -0.597509 -0.641194 -1.09006 -0.428186 -1.11359 -0.915591 
-0.468893 -1.0743 -0.924041 -0.496948 -1.01349 -0.947762 -0.523969 -0.951526 -0.993733 
-0.557586 -0.901001 -1.03947 -0.583678 -0.836573 -1.05586 -0.604968 -0.762122 -1.01319 
-0.361697 -1.21551 -0.809295 -0.340798 -1.28661 -0.711258 -0.31397 -1.34722 -0.606044 
-0.273713 -1.38368 -0.471696 -0.227509 -1.40892 -0.30302 -0.178545 -1.43023 -0.119612 
-0.118227 -1.43987 0.0586304 -0.698848 -0.696449 -0.775435 -0.759868 -0.679754 -0.664875 
-0.163182 0.446525 -0.965641 -0.237228 0.425808 -0.90613 -0.300693 0.398732 -0.876068 
-0.340421 0.358414 -0.860437 -0.371278 0.312412 -0.874296 -0.409096 0.270263 -0.895667 
-0.459992 0.235334 -0.932071 -0.499371 0.193927 -0.960866 -0.538727 0.152349 -0.99708 
-0.589647 0.11759 -1.02608 -0.627322 0.0750438 -1.06226 -0.656365 0.0276815 -1.0909 
-0.683855 -0.0204178 -1.1121 -0.711225 -0.0681133 -1.11108 -0.737065 -0.116375 -1.09523 
-0.754227 -0.169795 -1.08664 -0.758144 -0.231003 -1.08524 -0.773625 -0.28539 -1.07662 
-0.789246 -0.338751 -1.02357 -0.793334 -0.397909 -0.928358 -0.808225 -0.451109 -0.811094 
-0.816665 -0.512677 -0.698557 2.94673 0.109936 -0.767699 2.92382 0.190168 -0.747401 
2.89734 0.256 -0.739124 2.8626 0.305991 -0.73792 2.82948 0.358661 -0.739243 
2.78778 0.396441 -0.740249 2.74019 0.42399 -0.741037 2.68756 0.442948 -0.741642 
2.63151 0.458556 -0.742181 2.58577 0.507834 -0.743466 3.06755 0.0241844 -0.661594 
3.13208 0.0106932 -0.549937 3.18205 -0.013057 -0.465256 3.23066 -0.0372224 -0.402797 
3.28509 -0.0516443 -0.357838 2.44885 0.536853 -0.744571 2.55717 0.646409 -0.746761 
2.58526 0.704354 -0.748012 -0.736291 -0.551888 -0.363974 -0.669226 -0.517159 -0.149686 
-0.605871 -0.485416 0.0374825 -0.554822 -0.448111 0.187443 -0.492089 -0.418267 0.305504 
-0.429263 -0.389107 0.393943 -0.377953 -0.35347 0.474784 -0.313518 -0.325395 0.555842 
-0.242028 -0.301228 0.644424 -0.177569 -0.273324 0.718073 -0.126103 -0.238251 0.776702 
-0.0615263 -0.211203 0.813332 0.0101283 -0.188234 0.850078 0.0747047 -0.161187 0.886698 
0.126108 -0.126235 0.937916 0.189107 -0.0979167 0.989336 0.253003 -0.069535 1.03333 
0.31071 -0.033526 1.05491 5.97009 -0.896243 0.164178 6.05851 -0.775697 0.136974 
6.07257 -0.717065 0.0393369 6.09829 -0.669475 -0.0481253 6.12588 -0.623386 -0.120723 
6.15347 -0.576602 -0.158767 6.181 -0.529474 -0.181996 6.20863 -0.482403 -0.205233 
6.23779 -0.436527 -0.243241 6.27403 -0.394729 -0.281143 6.31479 -0.35522 -0.304153 
6.33082 -0.301151 -0.312765 6.35987 -0.254424 -0.313753 6.40751 -0.218248 -0.307026 
6.43481 -0.170039 -0.285828 6.44036 -0.108826 -0.242774 6.4574 -0.0539158 -0.184714 
6.48288 -0.00371534 -0.119105 6.50828 0.0465399 -0.0534989 6.52352 0.10264 0.0119305 
6.59068 0.191739 0.173098 6.65753 0.200559 0.276834 6.70584 0.177002 0.373858 
6.73982 0.127736 0.441784 6.77546 0.0803078 0.472632 6.80758 0.0261293 0.481398 
6.84219 -0.0239539 0.475254 6.86678 -0.0881792 0.454591 6.87762 -0.156454 0.419154 
6.87276 -0.217779 0.383517 6.87056 -0.280293 0.370132 6.8535 -0.333768 0.378726 
6.8277 -0.381741 0.409392 6.80191 -0.429716 0.440057 6.78462 -0.482743 0.463454 
6.77892 -0.542928 0.464828 6.75144 -0.591032 0.443627 6.70052 -0.62579 0.414631 
6.65077 -0.661319 0.383186 6.58518 -0.687988 0.373712 6.50538 -0.710495 0.388803 
6.49595 0.242976 0.00859785 6.46898 0.304609 -0.0521892 6.42846 0.342958 -0.105069 
6.38192 0.371065 -0.150318 6.33347 0.395641 -0.202905 6.27903 0.409633 -0.262677 
6.21119 0.399943 -0.329356 6.13898 0.37902 -0.39579 6.07443 0.351609 -0.454637 
6.02291 0.316883 -0.49845 5.9582 0.290228 -0.520265 5.88478 0.268907 -0.527417 
5.80981 0.248762 -0.527189 5.73566 0.230247 -0.526996 5.66655 0.220481 -0.526989 
5.60592 0.225424 -0.527296 5.54277 0.225983 -0.527509 5.4831 0.232597 -0.527852 
5.42 0.233251 -0.528067 5.36036 0.239694 -0.535817 5.2973 0.240007 -0.550839 
5.23771 0.246107 -0.573395 5.17463 0.24659 -0.581018 5.11499 0.253471 -0.573955 
5.05273 0.256216 -0.55199 4.99812 0.272016 -0.537714 4.94441 0.289392 -0.523463 
4.88805 0.302376 -0.501716 4.84085 0.33188 -0.458096 4.77759 0.333742 -0.406465 
4.70522 0.319607 -0.361916 4.63613 0.310708 -0.332292 4.5754 0.316336 -0.302976 
4.51208 0.318094 -0.251354 4.45225 0.326536 -0.170237 4.39049 0.328817 -0.0519332 
4.34145 0.330361 0.0960658 0.0297197 -1.47601 0.252578 0.0830691 -1.51208 0.253581 
0.131669 -1.5416 0.219849 0.179517 -1.57027 0.17126 0.227309 -1.59875 0.127618 
0.275086 -1.62662 0.106188 0.323779 -1.65248 0.0995289 0.378351 -1.66793 0.100059 
0.445473 -1.66161 0.100126 0.512594 -1.65529 0.100193 0.567167 -1.67074 0.100724 
0.615837 -1.69643 0.101472 0.663519 -1.72362 0.109664 0.711099 -1.75056 0.132664 
0.758586 -1.77682 0.185286 0.806141 -1.80243 0.263831 0.856209 -1.82659 0.368276 
0.921758 -1.84358 0.483728 -0.0271914 -1.33051 0.449087 0.0118145 -1.27475 0.640574 
0.0474989 -1.22739 0.775429 0.0763789 -1.1787 0.858368 0.105542 -1.13093 0.90922 
0.144851 -1.08901 0.960239 0.206004 -1.05952 1.01903 0.268782 -1.03064 1.09266 
0.320068 -0.994835 1.18091 0.384433 -0.966247 1.28418 0.455804 -0.941853 1.38017 
0.518519 -0.913102 1.44638 0.558057 -0.871629 1.4826 0.588868 -0.825285 1.51126 
0.62671 -0.782677 1.55485 0.679168 -0.74849 1.59869 0.727313 -0.712291 1.62023 
0.781654 -0.680608 1.59744 0.830106 -0.646006 1.55233 0.884518 -0.614837 1.50733 
0.932899 -0.57972 1.48445 0.987289 -0.54775 1.47647 1.03727 -0.513083 1.47583 
1.10194 -0.486721 1.48283 1.17532 -0.465058 1.50479 1.2502 -0.443789 1.54899 
1.32505 -0.422349 1.60061 1.39836 -0.400172 1.64478 1.46298 -0.373468 1.66659 
1.51294 -0.338629 1.67336 1.5674 -0.306543 1.67279 1.61738 -0.271876 1.67214 
1.68197 -0.245867 1.67175 1.75343 -0.228165 1.67157 1.81558 -0.230255 1.67181 
1.85765 -0.267384 1.6728 1.90632 -0.293072 1.67355 1.96657 -0.298664 1.67387 
2.02013 -0.31588 1.67444 2.06874 -0.341663 1.67519 2.11645 -0.369022 1.67597 
2.1641 -0.396477 1.67676 2.21181 -0.423836 1.67754 2.26044 -0.44979 1.67089 
2.31412 -0.467434 1.64924 2.37543 -0.472459 1.6051 2.4292 -0.490788 1.55382 
2.47796 -0.517597 1.51014 2.52579 -0.545375 1.48871 2.57443 -0.571329 1.48205 
2.628 -0.588717 1.47521 2.68825 -0.594747 1.46073 2.73595 -0.622973 1.43189 
2.77025 -0.674569 1.40356 2.80768 -0.723534 1.36776 2.85123 -0.77767 1.3321 
6.17312 -0.837607 0.328942 6.25842 -0.814859 0.400306 6.33555 -0.783719 0.431939 
4.35366 0.283227 0.438027 4.40089 0.259292 0.586921 4.44916 0.236516 0.713555 
4.50341 0.223465 0.817768 4.57022 0.232009 0.914098 4.63714 0.240306 0.995631 
4.6925 0.228336 1.07017 4.74793 0.21629 1.13732 4.81588 0.225746 1.19659 
4.88888 0.24352 1.24086 4.95791 0.2538 1.26307 5.01948 0.250701 1.27075 
5.08865 0.260562 1.27074 5.16274 0.278981 1.27055 5.23684 0.2974 1.27036 
5.30601 0.30726 1.27035 5.3676 0.30399 1.27062 5.43676 0.313851 1.27061 
5.51092 0.332365 1.27042 5.58588 0.352511 1.27019 5.65933 0.373661 1.26994 
5.72402 0.399851 1.26954 5.77394 0.434397 1.26148 5.82682 0.466767 1.23126 
5.86671 0.505672 1.1564 5.90825 0.542519 1.02972 4.24518 0.279422 0.304405 
4.2054 0.240295 0.371861 4.17419 0.196863 0.469093 4.13593 0.157337 0.5588 
4.08319 0.125205 0.603827 4.03502 0.0891769 0.589694 3.98089 0.0559533 0.545828 
3.93281 0.0192404 0.502072 3.88017 -0.0142067 0.487855 3.84046 -0.0544812 0.503484 
3.79927 -0.0932677 0.548702 3.73934 -0.1211 0.60103 3.68652 -0.153182 0.646056 
3.65843 -0.19999 0.669276 3.60569 -0.232757 0.68469 3.54595 -0.26133 0.707387 
3.50644 -0.301079 0.752633 3.47694 -0.346448 0.805462 3.44757 -0.392043 0.850876 
3.40973 -0.43339 0.866536 3.35895 -0.467911 0.852349 3.32297 -0.511592 0.808793 
3.30432 -0.565418 0.758104 3.30045 -0.627599 0.715078 1.11632 -1.79654 0.749991 
1.1969 -1.76295 0.886547 1.26228 -1.7324 1.0046 1.31194 -1.69545 1.09652 
1.36448 -1.66068 1.16998 1.40385 -1.61864 1.22841 1.44327 -1.57694 1.27202 
1.49587 -1.54315 1.30105 1.544 -1.50678 1.33 1.59817 -1.4737 1.37386 
1.64702 -1.43951 1.42509 1.70559 -1.42288 1.46194 1.76455 -1.42686 1.46222 
1.82776 -1.42796 1.4328 1.88848 -1.43358 1.40349 1.95759 -1.42382 1.40348 
2.03162 -1.40489 1.42551 2.10567 -1.38612 1.44013 2.1749 -1.37678 1.41791 
2.23664 -1.38107 1.37374 2.30594 -1.37224 1.3293 2.38016 -1.35424 1.3069 
2.45525 -1.33432 1.29926 2.53027 -1.31408 1.29903 2.60371 -1.29293 1.29878 
2.66841 -1.26674 1.29838 2.7183 -1.23202 1.29773 2.77099 -1.19891 1.29713 
2.80881 -1.15739 1.28888 2.83634 -1.11027 1.26565 2.85378 -1.05764 1.22744 
2.85946 -0.998028 1.19644 2.8849 -0.948441 1.19538 2.92042 -0.899321 1.2314 
6.35794 -0.664854 0.654013 6.33662 -0.595671 0.844998 6.3497 -0.538417 0.979552 
6.37496 -0.48796 1.05503 6.40047 -0.438561 1.0836 6.4159 -0.38383 1.0898 
6.40959 -0.316727 1.08823 6.40327 -0.249623 1.08666 6.41873 -0.195064 1.08544 
5.87565 0.728481 0.691892 5.90857 0.676752 0.737645 5.94316 0.628337 0.79815 
6.03744 0.571652 0.79976 6.09203 0.555594 0.778079 6.13967 0.528748 0.801077 
6.1813 0.49192 0.839111 6.21531 0.441436 0.862612 0.462062 -0.040482 1.0926 
0.528898 -0.0518852 1.13753 0.584194 -0.0673169 1.18994 0.639667 -0.0798611 1.24227 
0.707666 -0.0707486 1.28672 0.78058 -0.052898 1.33841 0.848556 -0.0436138 1.39028 
0.904061 -0.0561731 1.4352 0.959637 -0.0692465 1.45791 1.02781 -0.0608945 1.46534 
1.10191 -0.0424756 1.46515 1.17697 -0.0223847 1.46492 1.25199 -0.00214392 1.46469 
1.32542 0.0191942 1.47555 1.39028 0.0446978 1.49739 1.44032 0.0742856 1.53021 
0.373509 0.100175 0.955702 0.355984 0.182506 0.864828 0.348203 0.250604 0.796541 
0.363619 0.304321 0.750896 0.387716 0.35343 0.7276 0.404805 0.406733 0.711608 
0.408856 0.467549 0.69539 0.42616 0.520571 0.671993 0.453767 0.567814 0.656174 
0.493169 0.60842 0.647948 0.55451 0.636543 0.647493 0.617436 0.663752 0.647063 
0.667237 0.698524 0.646417 0.720018 0.731579 0.64582 0.759673 0.772196 0.645007 
0.800914 0.8119 0.64422 0.863967 0.838909 0.643795 0.936353 0.858442 0.643573 
1.00537 0.868262 0.643565 1.06595 0.863233 0.643874 1.12819 0.861089 0.644121 
1.18279 0.845898 0.652058 1.23729 0.830962 0.674802 1.29837 0.828078 0.719515 
1.35184 0.812414 0.779323 1.40116 0.789757 0.846691 1.45361 0.772755 0.921341 
1.50852 0.760212 1.00332 1.54721 0.719986 1.09327 1.58097 0.674624 1.17594 
1.59656 0.617762 1.2514 1.59236 0.560361 1.3194 1.59174 0.498802 1.3875 
1.58648 0.439784 1.45554 1.59429 0.373083 1.51638 1.6005 0.30683 1.55498 
1.58344 0.253373 1.56728 1.54935 0.208328 1.5608 1.50902 0.16226 1.55803 
2.93898 -0.73683 1.28698 2.96306 -0.676574 1.28566 
LINES 29 567
12 28 29 30 31 32 33 34 35 36 37 38 26 
47 27 39 40 41 42 43 44 45 46 47 48 49 50 51 52 53 54 55 56 57 58 59 60 61 62 63 64 65 66 67 68 69 70 71 72 73 74 75 76 77 78 79 80 81 82 83 21 
9 27 84 85 86 87 88 89 90 25 
9 27 91 92 93 94 95 96 97 24 
13 26 102 103 104 105 106 107 108 109 110 111 112 25 
8 25 113 114 115 116 117 118 23 
9 24 119 120 121 122 123 124 125 23 
9 24 126 127 128 129 130 131 132 13 
4 23 133 134 17 
12 21 157 158 159 160 161 162 163 164 165 166 19 
7 21 167 168 169 170 171 16 
3 20 172 19 
4 19 173 174 18 
20 17 175 176 177 178 179 180 181 182 183 184 185 186 187 188 189 190 191 192 4 
3 15 193 12 
21 12 194 195 196 197 198 199 200 201 202 203 204 205 206 207 208 209 210 211 212 14 
23 14 213 214 215 216 217 218 219 220 221 222 223 224 225 226 227 228 229 230 231 232 233 10 
39 14 234 235 236 237 238 239 240 241 242 243 244 245 246 247 248 249 250 251 252 253 254 255 256 257 258 259 260 261 262 263 264 265 266 267 268 269 270 11 
58 13 289 290 291 292 293 294 295 296 297 298 299 300 301 302 303 304 305 306 307 308 309 310 311 312 313 314 315 316 317 318 319 320 321 322 323 324 325 326 327 328 329 330 331 332 333 334 335 336 337 338 339 340 341 342 343 344 2 
5 12 345 346 347 10 
28 11 348 349 350 351 352 353 354 355 356 357 358 359 360 361 362 363 364 365 366 367 368 369 370 371 372 373 6 
26 11 374 375 376 377 378 379 380 381 382 383 384 385 386 387 388 389 390 391 392 393 394 395 396 397 8 
11 10 432 433 434 435 436 437 438 439 440 3 
5 7 441 442 443 6 
7 6 444 445 446 447 448 5 
4 2 504 505 1 
29 26 98 99 100 101 22 135 136 137 138 139 140 141 142 143 144 145 146 147 148 149 150 151 152 153 154 155 156 17 
55 13 271 272 273 274 275 276 277 278 279 280 281 282 283 284 285 286 287 288 9 398 399 400 401 402 403 404 405 406 407 408 409 410 411 412 413 414 415 416 417 418 419 420 421 422 423 424 425 426 427 428 429 430 431 2 
58 4 449 450 451 452 453 454 455 456 457 458 459 460 461 462 463 464 0 503 502 501 500 499 498 497 496 495 494 493 492 491 490 489 488 487 486 485 484 483 482 481 480 479 478 477 476 475 474 473 472 471 470 469 468 467 466 465 4 

POINT_DATA 506
SCALARS DY_raw double
LOOKUP_TABLE default
236.326 325.823 260.25 297.585 213.186 282.053 259.113 180.979 129.547 
215.776 252.984 187.236 182.448 250.088 257.754 97.7192 293.742 187.284 
309.343 198.045 163.817 234.658 233.717 214.419 272.249 291.622 199.916 
164.23 161.951 161.951 146.812 148.77 148.77 159.565 172.632 174.086 
174 181.95 196.552 181.838 209.366 235.414 229.457 260.94 260.167 
261.715 276.8 265.911 276.409 274.466 264.949 256.354 257.815 245.301 
240.156 245.35 235.845 210.913 210.913 194.851 201.127 188.643 184.121 
211.84 239.49 267.879 267.115 282.046 272.795 254.776 235.6 232.604 
222.142 230.303 217.11 211.39 211.39 231.102 203.362 197.498 205.644 
217.685 224.938 233.697 166.807 180.803 163.165 205.389 210.138 231.109 
278.479 164.23 157.113 171.769 181.805 230.717 217.391 223.267 211.842 
226.02 212.722 234.275 178.431 172.485 193.888 197.986 197.986 225.173 
242.72 251.661 252.366 252.366 265.815 250.943 222.368 206.419 191.799 
230.72 218.259 255.571 255.571 263.367 259.025 271.298 270.909 224.265 
271.089 231.708 201.39 223.45 242.856 227.786 231.298 223.879 180.378 
236.544 228.327 218.914 221.328 207.137 207.137 203.142 206.509 191.157 
215.329 215.329 222.818 225.878 226.088 232.814 238.469 238.469 223.25 
220.731 207.184 206.645 180.417 226.538 217.813 225.49 275.955 289.316 
297.627 297.627 256.542 227.782 208.877 260.026 257.063 247.177 254.818 
266.698 178.62 221.024 251.98 235.041 251.728 238.343 235.467 215.695 
205.23 195.719 180.056 201.804 205.654 192.11 172.902 172.902 184.791 
205.028 204.277 210.374 202.1 159.966 183.861 192.057 182.302 213.862 
196.8 235.434 235.434 243.208 263.112 263.112 257.597 254.781 254.781 
243.084 256.936 269.456 261.404 255.045 260.246 310.497 337.015 343.044 
373.342 334.313 354.324 373.079 384.88 352.746 366.96 311.623 311.623 
347.432 328.831 341.809 301.388 274.584 274.584 250.398 258.751 256.807 
240.481 266.902 278.018 313.955 322.244 319.267 316.178 299.021 251.341 
241.323 214.628 213.935 213.935 248.564 245.677 276.273 330.743 320.629 
351.891 412.745 412.745 349.738 340.095 303.631 313.805 298.616 274.391 
289.97 289.97 287.745 298.338 310.229 232.9 213.769 241.012 236.659 
245.18 249.344 259.504 241.715 202.263 202.263 227.765 239.38 239.38 
252.26 213.245 213.245 172.782 193.789 198.604 190.078 197.632 209.03 
206.635 251.382 274.844 265.398 210.737 219.013 202.162 209.951 208.603 
233.118 232.183 253.316 248.833 254.552 203.251 203.046 209.879 224.904 
256.675 243.603 200.142 201.541 185.199 175.306 167.302 166.905 210.171 
233.156 248.618 235.317 249.119 230.466 217.512 228.687 224.576 262.524 
262.524 293.142 287.497 287.497 267.116 257.7 257.7 258.38 258.38 
253.753 245.169 211.308 193.075 242.075 242.075 248.99 273.396 273.396 
284.571 234.851 252.147 203.411 220.611 233.061 264.207 317.833 303.731 
306.294 269.804 287.539 239.934 234.085 257.915 229.243 253.168 251.419 
243.262 237.425 245.613 215.689 209.685 202.072 218.801 236.137 254.793 
260.391 343.125 342.237 330.31 312.816 187.236 181.708 164.389 199.277 
224.14 191.429 191.429 165.353 165.353 196.513 288.101 278.77 267.13 
267.786 249.192 259.393 281.305 311.036 246.854 220.433 220.433 186.477 
169.717 151.697 273.169 362.632 374.914 197.235 159.066 185.518 167.152 
185.805 193.498 231.455 279.437 322.828 314.457 279.924 278.023 265.31 
256.399 256.399 279.488 263.796 209.242 201.194 208.14 227.835 248.185 
244.503 252.476 248.475 252.539 220.319 218.291 190.953 203.763 243.927 
289.033 284.864 274.385 277.308 250.646 250.646 249.39 302.165 302.165 
164.072 181.814 192.603 212.765 233.443 276.179 307.777 308.971 213.825 
215.199 246.447 221.385 226.596 242.823 261.029 256.435 238.332 247.423 
252.396 211.346 211.346 211.499 206.934 237.806 210.319 188.856 181.099 
194.501 204.123 201.8 201.8 167.346 167.346 164.108 209.645 209.645 
224.562 218.003 223.648 227.751 231.055 239.94 239.474 222.78 222.78 
209.507 199.374 202.269 218.98 275.255 248.292 218.363 235.362 228.889 
226.24 240.876 252.332 318.781 306.875 279.617 257.445 244.715 238.348 
293.449 311.395 
FIELD FieldData 7
DY_minmax 1 506 double
0.439984 0.72408 0.515928 0.634443 0.366531 0.585137 0.51232 0.264296 0.101033 
0.374753 0.492862 0.284158 0.268959 0.483671 0.508006 0 0.622243 0.284309 
0.671767 0.318469 0.209816 0.434692 0.431702 0.370444 0.554016 0.615512 0.324408 
0.211127 0.203893 0.203893 0.155837 0.162054 0.162054 0.196319 0.237799 0.242414 
0.24214 0.267378 0.31373 0.267022 0.354406 0.43709 0.41818 0.518118 0.515666 
0.520579 0.568464 0.533897 0.567222 0.561055 0.530846 0.503562 0.508199 0.468474 
0.452143 0.468631 0.438457 0.359315 0.359315 0.308329 0.328252 0.288624 0.274269 
0.362257 0.45003 0.540145 0.537721 0.585116 0.55575 0.498553 0.43768 0.428171 
0.394961 0.420867 0.378986 0.36083 0.36083 0.423402 0.335345 0.316731 0.342589 
0.380812 0.403835 0.43164 0.219308 0.263736 0.207746 0.341779 0.356857 0.423426 
0.573793 0.211127 0.188538 0.235059 0.266917 0.422179 0.37988 0.398532 0.362264 
0.40727 0.365059 0.433474 0.256208 0.237333 0.305274 0.31828 0.31828 0.404583 
0.460281 0.488665 0.490902 0.490902 0.533592 0.486385 0.395677 0.34505 0.29864 
0.42219 0.382635 0.501075 0.501075 0.525822 0.512039 0.550997 0.549763 0.4017 
0.550336 0.425327 0.329087 0.399111 0.460712 0.412877 0.424025 0.400474 0.262386 
0.440677 0.414595 0.384715 0.392376 0.347331 0.347331 0.334649 0.345337 0.296602 
0.373333 0.373333 0.397106 0.406819 0.407486 0.428837 0.446787 0.446787 0.398479 
0.390481 0.347479 0.345768 0.262512 0.408914 0.381218 0.405587 0.565782 0.608195 
0.634575 0.634575 0.504158 0.412862 0.352853 0.515217 0.505812 0.47443 0.498685 
0.536398 0.256805 0.39141 0.489677 0.435907 0.488877 0.446387 0.437258 0.374497 
0.341277 0.311084 0.261366 0.330401 0.342622 0.299628 0.238656 0.238656 0.276396 
0.340635 0.338249 0.357604 0.331341 0.197593 0.273444 0.299459 0.268494 0.368677 
0.314517 0.437153 0.437153 0.46183 0.525014 0.525014 0.507506 0.498569 0.498569 
0.461437 0.505407 0.545152 0.519592 0.499406 0.515915 0.675428 0.759607 0.778744 
0.874921 0.75103 0.814551 0.874086 0.911547 0.80954 0.854662 0.679002 0.679002 
0.792672 0.733628 0.774825 0.646513 0.56143 0.56143 0.484656 0.511168 0.505 
0.453174 0.537044 0.57233 0.686407 0.712717 0.703267 0.693463 0.639 0.487647 
0.455846 0.371107 0.368908 0.368908 0.478833 0.469669 0.566792 0.739697 0.707593 
0.806827 1 1 0.799994 0.769382 0.653635 0.685929 0.637715 0.560818 
0.610269 0.610269 0.603205 0.636831 0.674577 0.429111 0.368382 0.454861 0.441041 
0.468092 0.481309 0.51356 0.457092 0.331856 0.331856 0.412811 0.44968 0.44968 
0.490564 0.366717 0.366717 0.238275 0.304958 0.320244 0.293178 0.317158 0.353338 
0.345734 0.487777 0.562253 0.532269 0.358757 0.385029 0.331539 0.356263 0.351982 
0.429803 0.426834 0.493917 0.479688 0.497842 0.334993 0.334343 0.356033 0.40373 
0.504581 0.463085 0.325125 0.329566 0.277691 0.246288 0.220881 0.219619 0.356959 
0.429923 0.479003 0.436783 0.480596 0.421385 0.380264 0.415735 0.402686 0.523148 
0.523148 0.620339 0.602418 0.602418 0.537723 0.507834 0.507834 0.509992 0.509992 
0.495305 0.468056 0.360571 0.302693 0.458234 0.458234 0.480185 0.557659 0.557659 
0.59313 0.435305 0.490205 0.335501 0.3901 0.429619 0.528489 0.698717 0.653951 
0.662087 0.546256 0.602553 0.451439 0.432873 0.508517 0.417501 0.493448 0.487897 
0.462004 0.443475 0.469465 0.374476 0.355417 0.33125 0.384356 0.439384 0.498606 
0.516375 0.779002 0.776182 0.738322 0.682791 0.284158 0.266608 0.211631 0.32238 
0.401301 0.297468 0.297468 0.214692 0.214692 0.313606 0.604337 0.574716 0.537767 
0.539851 0.480825 0.513209 0.582764 0.677141 0.473406 0.389535 0.389535 0.281746 
0.228546 0.171344 0.556936 0.840924 0.879909 0.315896 0.194736 0.278703 0.220404 
0.279614 0.304034 0.424524 0.576833 0.714571 0.688001 0.578379 0.572346 0.531989 
0.503703 0.503703 0.576996 0.527183 0.354011 0.328465 0.350514 0.413031 0.477629 
0.465943 0.491252 0.478551 0.491452 0.389174 0.382737 0.295955 0.33662 0.464115 
0.607297 0.594061 0.560797 0.570077 0.485441 0.485441 0.481455 0.64898 0.64898 
0.210627 0.266947 0.301194 0.365195 0.430834 0.566493 0.666795 0.670584 0.368561 
0.372921 0.472112 0.392557 0.4091 0.460607 0.5184 0.503817 0.446352 0.475212 
0.490996 0.360691 0.360691 0.361177 0.346685 0.444684 0.357431 0.289298 0.264675 
0.307218 0.337763 0.330389 0.330389 0.221021 0.221021 0.21074 0.355291 0.355291 
0.402641 0.381822 0.399741 0.412766 0.423255 0.451458 0.449979 0.396987 0.396987 
0.354853 0.322688 0.331877 0.384923 0.563559 0.47797 0.382966 0.436924 0.416379 
0.407968 0.454427 0.490795 0.701726 0.663931 0.577404 0.507023 0.466614 0.446404 
0.621313 0.678278 
WidthEq 1 506 double
2.60086 1.6842 3.01783 2.40214 3.1314 2.63029 4.08181 2.5666 1.27931 
4.14073 3.65799 3.98529 4.77638 4.32708 5.47983 2.91602 2.55524 6.60404 
1.82015 4.11417 3.58389 4.29851 4.15153 4.59648 4.49325 2.93439 3.47931 
5.02869 5.11816 5.11816 5.22357 5.05578 5.05578 4.57495 3.80915 3.47961 
3.47082 3.43721 3.60256 5.03448 4.47021 3.87666 3.74934 3.37756 3.26844 
2.97224 2.95025 3.04565 2.7879 3.11241 2.89225 3.12291 3.47556 3.50644 
3.70147 3.80237 4.09066 4.64595 4.64595 5.10776 5.2895 5.41255 5.29608 
4.66278 3.96037 3.51308 3.43938 3.18608 3.31209 3.438 3.78163 4.0771 
4.2277 4.02822 4.04303 4.1537 4.1537 3.82126 4.02308 4.00162 4.13099 
4.2511 4.54246 4.47011 5.17126 4.15061 3.60489 3.35837 3.14151 3.05786 
2.82787 5.02869 4.6506 4.00679 3.63659 3.41272 3.7732 4.56843 3.79355 
3.82989 4.08994 3.98878 3.76129 4.05119 3.54571 3.72376 3.72376 3.63027 
3.50578 3.55005 3.5143 3.5143 3.20701 3.44636 4.03049 4.1302 4.17882 
4.13935 4.35987 4.39209 4.39209 3.83469 3.62155 3.53033 3.46364 4.25015 
4.59236 5.12606 5.28298 5.18936 5.12379 5.36482 5.00739 5.48118 6.41638 
3.99415 4.04599 3.91103 3.75335 3.69871 3.69871 3.74654 3.56401 3.6411 
3.75431 3.75431 3.79871 3.4327 3.69127 3.47849 3.2819 3.2819 3.30096 
3.69074 4.04573 5.09996 6.06123 4.41971 3.97769 3.36894 2.73168 2.81108 
2.91516 2.91516 3.583 3.94457 4.21009 4.11094 3.89243 3.78854 3.61961 
3.33602 4.1617 3.46371 2.67914 5.69492 4.97954 4.45477 3.71645 3.61316 
3.64094 3.51684 3.44699 3.48145 3.49534 3.33388 2.93485 2.93485 2.6615 
2.45352 2.61357 2.73138 3.11435 4.68868 4.9333 4.7031 4.43107 4.18626 
4.17948 4.03506 4.03506 3.7123 3.37552 3.37552 3.54531 4.07605 4.07605 
4.59101 4.80584 4.79455 5.14927 5.6354 5.68221 5.18048 4.73362 4.42777 
3.30633 3.59301 3.09736 2.95318 2.87326 2.91823 2.42956 2.73523 2.73523 
2.42189 2.34875 2.29058 2.27034 2.33703 2.33703 2.74811 2.96178 3.3295 
5.02764 4.47037 3.83598 3.1108 3.00605 2.98923 3.27989 3.67777 4.02828 
4.20206 4.36487 4.37952 4.37952 3.81234 3.63412 3.15872 2.81727 2.75034 
2.64122 2.32156 2.32156 2.52295 2.57667 2.55188 2.66749 2.70693 2.73026 
2.87668 2.87668 2.76878 2.59619 2.47805 2.53006 2.48881 2.42864 2.68155 
3.26735 3.853 3.32608 3.14503 3.33869 3.33869 3.45874 3.32555 3.32555 
3.10375 2.92866 2.92866 2.94453 2.99548 3.19908 3.53603 3.71013 3.86735 
3.96551 4.40947 3.51578 3.28055 3.43974 3.38948 3.41983 3.22999 3.3084 
3.45285 3.4435 3.24658 3.14134 3.04456 2.98169 2.84976 2.7991 2.50204 
2.05887 1.98569 2.19959 2.11575 2.47772 3.17502 3.11455 3.1237 3.07679 
2.77171 2.47851 2.44279 2.12826 2.50076 2.46883 2.21207 2.20104 2.11177 
2.11177 2.13501 2.27113 2.27113 2.36201 2.41517 2.41517 2.49296 2.49296 
2.61818 2.57084 2.73823 2.74639 2.59507 2.59507 2.53203 2.40263 2.40263 
2.44516 3.01221 3.05513 4.61583 4.39403 4.11683 3.61266 2.83007 2.98291 
2.70166 2.30371 2.44322 2.28396 2.088 2.03714 1.90528 1.96028 1.97579 
1.92759 1.83565 1.78167 1.65062 1.68558 1.65675 1.72472 1.83513 2.0802 
2.15358 2.47044 2.78448 3.11777 3.61181 3.98529 3.3062 2.714 2.6138 
1.69216 1.48567 1.48567 1.1793 1.1793 1.09408 1 1.00994 1.2193 
1.50848 1.68854 2.2176 2.39068 2.29996 2.92517 3.07277 3.07277 2.87645 
2.93412 2.43216 3.55239 2.47094 1.9245 2.22958 2.59069 2.52338 2.95582 
3.10342 2.96428 2.82487 2.41876 2.07572 1.9112 1.9669 1.89866 1.85945 
1.92615 1.92615 1.91229 2.12214 2.21553 2.37617 2.30408 2.31049 2.30111 
2.23801 2.02954 2.04544 2.01232 2.1064 2.39974 2.65946 2.80012 2.82224 
3.11573 3.10721 3.20412 3.11715 3.48257 3.48257 3.36357 2.85894 2.85894 
4.26075 4.59332 4.52376 4.54506 4.16098 3.41529 3.36877 3.16613 3.07162 
3.03673 3.01599 3.18545 3.04374 2.8887 2.70656 2.43743 2.34233 2.31155 
2.1651 2.3604 2.3604 2.34308 2.45132 2.47538 3.15198 3.10375 2.89953 
2.79475 2.80341 2.8277 2.8277 2.86233 2.86233 2.82345 2.28758 2.28758 
2.10384 2.408 2.33229 2.73237 2.69178 2.85288 2.99548 3.23588 3.23588 
3.2923 3.32726 3.42273 3.46055 3.16165 3.09305 3.09443 3.16722 3.24227 
3.09009 2.70567 2.56377 2.28976 2.3391 2.51992 2.67763 2.75558 2.7274 
2.6773 2.18768 
rRFP 1 506 double
3048.16 2769.69 3174.83 2987.79 3209.33 3057.1 3498.05 3037.75 2646.69 
3515.95 3369.3 3468.73 3709.05 3572.56 3922.75 3143.9 3034.3 4264.27 
2810.99 3507.88 3346.79 3563.88 3519.23 3654.4 3623.04 3149.48 3315.02 
3785.7 3812.88 3812.88 3844.9 3793.93 3793.93 3647.86 3415.22 3315.11 
3312.44 3302.23 3352.46 3787.46 3616.04 3435.73 3397.05 3284.11 3250.96 
3160.98 3154.3 3183.28 3104.98 3203.56 3136.68 3206.75 3313.88 3323.26 
3382.51 3413.16 3500.74 3669.43 3669.43 3809.72 3864.93 3902.31 3866.93 
3674.54 3461.16 3325.28 3302.89 3225.94 3264.22 3302.47 3406.86 3496.62 
3542.37 3481.77 3486.27 3519.89 3519.89 3418.9 3480.21 3473.69 3512.99 
3549.48 3637.99 3616.01 3829.01 3518.95 3353.17 3278.28 3212.4 3186.99 
3117.12 3785.7 3670.84 3475.26 3362.8 3294.79 3404.3 3645.88 3410.48 
3421.52 3500.52 3469.79 3400.68 3488.75 3335.19 3389.28 3389.28 3360.88 
3323.06 3336.51 3325.65 3325.65 3232.3 3305.01 3482.46 3512.75 3527.52 
3515.53 3582.52 3592.31 3592.31 3422.98 3358.23 3330.52 3310.26 3549.19 
3653.15 3815.28 3862.95 3834.51 3814.59 3887.81 3779.23 3923.16 4207.26 
3471.42 3487.17 3446.17 3398.27 3381.67 3381.67 3396.2 3340.75 3364.17 
3398.56 3398.56 3412.05 3300.86 3379.41 3314.77 3255.05 3255.05 3260.84 