# vtk DataFile Version 3.0
vtk output
ASCII
DATASET POLYDATA
POINTS 429 float
2.40275 0.806618 2.00935 2.75873 -0.347334 1.6846 2.78219 0.801241 1.792 
3.13678 -0.145008 1.59628 2.99064 0.765209 1.58307 0.293455 0.985665 1.50041 
3.30537 -0.014234 1.18527 0.0432984 0.849747 1.31447 3.21078 -0.315486 0.862379 
3.29036 1.09344 0.961551 3.43212 0.929923 0.491421 1.2518 1.76221 0.438725 
3.94482 0.0418903 -0.113247 3.46318 1.42881 -0.0548701 3.5701 1.07421 -0.252245 
4.21831 -0.0871473 -0.656851 3.5737 0.889989 -0.849153 0.590747 1.37997 -0.724462 
3.46126 0.228316 -1.23013 3.32956 0.469729 -1.22942 1.93208 1.17328 -1.18133 
1.90425 0.771398 -1.77207 1.20896 0.333697 -1.79773 1.55697 0.110666 -2.00891 
1.52175 0.488078 -1.94879 1.4765 0.110275 -1.97311 1.41362 0.117456 -1.94817 
1.36044 0.139077 -1.93139 1.31228 0.188825 -1.90804 1.26357 0.255343 -1.86277 
1.55033 0.425835 -2.03773 1.56414 0.367006 -2.08157 1.5757 0.310042 -2.0685 
1.56546 0.255583 -2.03223 1.56971 0.190702 -2.00876 1.58399 0.534572 -1.95263 
1.64623 0.581066 -1.95647 1.7088 0.627722 -1.9529 1.77238 0.674861 -1.92715 
1.83764 0.722807 -1.86441 1.4651 0.480267 -1.94605 1.4053 0.449438 -1.93772 
1.34508 0.415947 -1.91448 1.28287 0.388934 -1.86656 1.61793 0.0481194 -1.97818 
1.67352 0.00983471 -1.95762 1.72448 -0.029349 -1.94918 1.77559 -0.0609548 -1.94834 
1.82582 -0.0975749 -1.94982 1.87848 -0.117396 -1.95178 1.93258 -0.127225 -1.95402 
1.98662 -0.135306 -1.96372 2.04061 -0.141638 -1.98086 2.096 -0.138187 -1.99828 
2.15464 -0.120921 -1.98648 2.21105 -0.127764 -1.9444 2.26447 -0.157508 -1.89426 
2.31987 -0.164834 -1.87435 2.37784 -0.147891 -1.87735 2.43426 -0.143847 -1.87259 
2.49053 -0.147302 -1.8454 2.54832 -0.142405 -1.81105 2.60787 -0.121041 -1.79197 
2.66626 -0.103293 -1.78758 2.72684 -0.0704489 -1.78363 2.78809 -0.0372822 -1.76488 
2.84817 -0.0187286 -1.72352 2.90907 0.00338918 -1.67484 2.96746 0.0102489 -1.63314 
3.02518 0.0167857 -1.60624 3.08506 0.0383209 -1.57976 3.14488 0.0550638 -1.53834 
3.20638 0.0791534 -1.48232 3.26749 0.0983985 -1.41876 3.33103 0.134443 -1.35567 
3.39601 0.180479 -1.29288 1.12848 0.333198 -1.76193 1.06531 0.338371 -1.73692 
1.00994 0.346028 -1.72469 0.955948 0.354242 -1.71252 0.902852 0.364555 -1.68809 
0.852192 0.385235 -1.64174 0.804048 0.421174 -1.58842 0.753664 0.443773 -1.54213 
0.702288 0.465987 -1.51803 0.652742 0.503039 -1.50175 0.602793 0.535137 -1.47794 
0.55485 0.574634 -1.43213 0.506244 0.607377 -1.37871 0.458362 0.645126 -1.32544 
0.407717 0.665915 -1.2791 0.355964 0.676873 -1.22508 0.304287 0.686191 -1.1636 
0.252915 0.695454 -1.09471 0.201282 0.702915 -1.02578 0.147887 0.700332 -0.963965 
0.0919743 0.68249 -0.909123 0.0376294 0.677665 -0.862055 -0.0160436 0.673162 -0.800186 
-0.0709484 0.655804 -0.723142 -0.123002 0.653866 -0.631745 -0.173948 0.661749 -0.548012 
-0.224356 0.673362 -0.464394 -0.272376 0.697189 -0.366322 -0.314638 0.748584 -0.232016 
-0.349683 0.812019 -0.0612226 -0.35989 0.874306 0.130717 -0.316493 0.927158 0.327848 
-0.251565 0.964624 0.516919 -0.187357 0.974308 0.691799 -0.125928 0.969775 0.844867 
-0.0668145 0.951379 0.990913 -0.0112499 0.906244 1.14513 1.95559 0.751139 -1.80363 
2.00578 0.727165 -1.84988 2.06031 0.733266 -1.89699 2.11477 0.734585 -1.92916 
2.16941 0.728466 -1.93151 2.2238 0.720656 -1.9338 2.27784 0.712575 -1.9435 
2.3312 0.704063 -1.96798 2.38497 0.694072 -1.97763 2.43831 0.674683 -1.96479 
2.49082 0.640841 -1.92193 2.54557 0.620338 -1.87205 2.59998 0.599674 -1.82957 
2.65147 0.565249 -1.80891 2.7042 0.543779 -1.80341 2.7566 0.522147 -1.80532 
2.80743 0.487499 -1.79945 2.86111 0.468271 -1.77922 2.91724 0.459508 -1.73708 
2.97457 0.45469 -1.68024 3.03367 0.460015 -1.61628 3.09529 0.480598 -1.54537 
3.15533 0.488056 -1.46666 3.21543 0.493766 -1.38052 3.27542 0.500908 -1.3018 
1.86422 0.835518 -1.67523 1.83665 0.898244 -1.5641 1.83787 0.956987 -1.44676 
1.85874 1.01266 -1.33767 1.88718 1.06639 -1.25855 1.896 1.12213 -1.20825 
3.37138 0.406399 -1.28927 3.40477 0.345137 -1.31912 3.42542 0.287202 -1.29654 
3.39314 0.516868 -1.20366 3.45762 0.564507 -1.15571 3.5212 0.612908 -1.08548 
3.57366 0.663348 -0.999967 3.59857 0.71738 -0.928102 3.60878 0.772923 -0.87786 
3.60406 0.8298 -0.856637 3.51508 0.197085 -1.16514 3.575 0.205865 -1.09389 
3.63652 0.221459 -1.00802 3.70005 0.244442 -0.900148 3.7619 0.249309 -0.769563 
3.82142 0.232762 -0.618619 3.87602 0.186855 -0.451983 3.92009 0.122438 -0.281994 
0.614435 1.43208 -0.726673 0.66297 1.48057 -0.729933 0.723175 1.52725 -0.733683 
0.785029 1.57185 -0.737462 0.845561 1.60654 -0.740965 0.903917 1.62615 -0.744041 
0.964174 1.65894 -0.747491 1.02443 1.69172 -0.75094 1.08277 1.71122 -0.754013 
1.14335 1.74406 -0.750058 1.20434 1.77542 -0.731261 1.26299 1.78409 -0.689616 
1.32171 1.79112 -0.640508 1.38199 1.81105 -0.599182 1.43908 1.81541 -0.57962 
1.49407 1.80956 -0.574568 1.54846 1.80175 -0.576867 1.60284 1.79383 -0.579162 
1.65688 1.78575 -0.588858 1.71025 1.77735 -0.613345 1.76262 1.76846 -0.660024 
1.81431 1.75925 -0.721504 1.86567 1.74988 -0.790385 1.91702 1.74051 -0.859265 
1.96872 1.7313 -0.920746 2.02108 1.72241 -0.967425 2.07447 1.71412 -0.991915 
2.12879 1.70795 -1.00166 2.18487 1.71182 -1.00429 2.2431 1.73058 -1.00735 
2.29892 1.73266 -1.00992 2.35248 1.71692 -1.00459 2.40572 1.69461 -0.984274 
2.46428 1.70265 -0.94261 2.52243 1.70574 -0.893392 2.57909 1.70059 -0.851354 
2.63414 1.69299 -0.838848 2.68757 1.68284 -0.85589 2.73857 1.66232 -0.894844 
2.78773 1.62697 -0.925972 2.84039 1.60714 -0.92793 2.89556 1.59605 -0.900524 
2.94955 1.57677 -0.872886 2.99976 1.54005 -0.874365 3.04877 1.50571 -0.912917 
3.09465 1.45415 -0.965801 3.13943 1.39276 -1.01099 3.18496 1.33005 -1.03394 
3.23081 1.26739 -1.04949 3.27634 1.20468 -1.07244 3.32112 1.14329 -1.11763 
3.36732 1.09178 -1.16311 3.41704 1.05591 -1.17941 3.46761 1.00651 -1.12871 
3.51978 0.948665 -1.01115 3.61336 0.945447 -0.651908 3.6033 1.00814 -0.452565 
4.16429 -0.0789575 -0.647159 4.11169 -0.0683265 -0.610389 4.06202 -0.0457029 -0.51469 
4.01077 -0.00128233 -0.342747 3.56449 1.1308 -0.245805 3.54447 1.1899 -0.223937 
3.52885 1.249 -0.18002 3.49859 1.31043 -0.12806 3.4697 1.37146 -0.0835835 
3.53022 1.03011 -0.0244995 3.49625 0.981779 0.222856 3.88952 -0.0151031 0.0190677 
3.86699 -0.0693056 0.117684 3.85713 -0.122363 0.181096 3.83778 -0.173602 0.23748 
3.79213 -0.220832 0.299916 3.73684 -0.266446 0.370174 3.68955 -0.313114 0.440092 
3.65739 -0.360036 0.509319 3.61195 -0.392984 0.578854 3.56051 -0.397702 0.648046 
3.50863 -0.390526 0.709579 3.45619 -0.381619 0.758734 3.40005 -0.371502 0.793201 
3.32517 -0.352755 0.825859 1.1974 1.77002 0.441023 1.14275 1.77603 0.443373 
1.08667 1.77216 0.446002 1.02842 1.75329 0.449057 0.972336 1.74942 0.451687 
0.917666 1.75532 0.454039 0.863316 1.76127 0.463795 0.80795 1.75586 0.488674 
0.749721 1.72415 0.536504 0.690461 1.68096 0.59947 0.631369 1.63601 0.669886 
0.574506 1.59084 0.747615 0.529665 1.54412 0.832262 0.510005 1.49395 0.92324 
0.489782 1.44344 0.999433 0.445615 1.39578 1.05439 0.400549 1.34763 1.08715 
0.380329 1.29585 1.11887 0.372467 1.2427 1.16488 0.366741 1.18945 1.21823 
0.359323 1.13644 1.27163 0.342029 1.08487 1.32546 0.310653 1.03599 1.40211 
3.38314 1.00911 0.687234 3.3378 1.06635 0.843791 3.4105 0.853001 0.555887 
3.3981 0.790757 0.587474 3.38925 0.734973 0.584146 3.38259 0.679964 0.573292 
3.38427 0.62395 0.567017 3.39139 0.567355 0.567928 3.36855 0.515123 0.570103 
3.35126 0.462293 0.579459 3.34441 0.408363 0.603194 3.34844 0.353479 0.648703 
3.36015 0.297896 0.708718 3.35213 0.245397 0.776981 3.36407 0.189992 0.844402 
3.36731 0.135853 0.91218 3.35282 0.0845067 0.98813 3.32223 0.0359264 1.07958 
3.26652 -0.208822 0.862469 3.31368 -0.13766 0.910694 3.32667 -0.0776107 1.02499 
3.1743 -0.266817 1.1275 3.16028 -0.209282 1.37164 3.09378 -0.397267 0.933742 
3.01811 -0.43409 0.982485 2.96748 -0.472443 1.01281 2.93366 -0.518346 1.04254 
2.88786 -0.549489 1.09722 2.83927 -0.53999 1.18327 2.79784 -0.49024 1.31263 
2.76853 -0.423084 1.48308 0.102986 0.859119 1.37832 0.16593 0.893191 1.43405 
0.22989 0.938635 1.47465 -0.0015403 0.80177 1.35464 -0.0244489 0.749968 1.37164 
-0.0484733 0.697699 1.36645 -0.0983507 0.648563 1.34012 -0.16025 0.600969 1.30689 
-0.225065 0.553169 1.25154 -0.290996 0.5049 1.174 -0.35827 0.455987 1.06687 
-0.426107 0.406735 0.944928 -0.492035 0.357205 0.82291 -0.545507 0.306282 0.715196 
-0.571306 0.251959 0.628549 -0.586349 0.19649 0.556277 -0.606772 0.142224 0.499052 
-0.629371 0.0889059 0.464153 -0.610802 0.0304335 0.457175 -0.58124 -0.0290096 0.471959 
-0.572925 -0.0853587 0.487648 -0.566202 -0.141476 0.503395 -0.5445 -0.199774 0.51852 
-0.525419 -0.257271 0.548575 -0.489116 -0.317065 0.585308 -0.441819 -0.37783 0.643821 
-0.392051 -0.438535 0.71706 -0.341488 -0.498824 0.805072 -0.291335 -0.557634 0.878252 
-0.240427 -0.606884 0.936351 -0.18801 -0.64136 0.97922 -0.13716 -0.688851 1.02986 
-0.0862959 -0.736244 1.08051 -0.0336014 -0.7688 1.12333 0.0173472 -0.806955 1.1441 
0.068959 -0.838355 1.15728 0.119587 -0.876563 1.17064 0.171871 -0.90764 1.19861 
0.223171 -0.945525 1.22678 0.275806 -0.976332 1.26215 0.327382 -1.01231 1.29026 
0.38172 -1.03132 1.3253 0.437501 -1.04034 1.36004 0.494214 -1.04724 1.40953 
0.550942 -1.05403 1.45903 0.607335 -1.06099 1.50112 0.663072 -1.06815 1.52841 
0.71907 -1.07352 1.55566 0.777166 -1.06868 1.59741 0.837779 -1.04858 1.64615 
0.896168 -1.04171 1.68784 0.954161 -1.03325 1.71469 1.01576 -0.999823 1.74084 
1.07939 -0.95454 1.77405 1.14327 -0.907458 1.8072 1.20624 -0.862389 1.82562 
1.26734 -0.827349 1.83691 1.32447 -0.807046 1.84871 1.37412 -0.770128 1.86791 
1.40807 -0.721044 1.88012 1.44706 -0.671065 1.88468 1.4806 -0.620502 1.88206 
1.53065 -0.574294 1.87878 1.5893 -0.541281 1.88282 1.64595 -0.537069 1.89498 
1.69931 -0.55635 1.90782 1.74744 -0.603176 1.89182 1.79361 -0.652817 1.83889 
1.84068 -0.689664 1.76339 1.88681 -0.737448 1.70301 1.93623 -0.770994 1.67183 
1.99388 -0.754094 1.66142 2.05383 -0.723439 1.65803 2.11251 -0.703782 1.66236 
2.17403 -0.668706 1.68105 2.23773 -0.625063 1.72171 2.30059 -0.58945 1.77001 
2.36069 -0.570689 1.81136 2.42009 -0.547442 1.823 2.4756 -0.529694 1.80526 
2.52264 -0.4943 1.76526 2.55607 -0.44846 1.72814 2.60534 -0.412103 1.70533 
2.67124 -0.389142 1.69442 3.24783 -0.0584703 1.29268 3.19164 -0.102062 1.42969 
0.346627 0.941268 1.59539 0.402382 0.921249 1.66746 0.458819 0.91244 1.71701 
0.515547 0.90565 1.76649 0.572552 0.900769 1.81594 0.630648 0.90561 1.85769 
0.689902 0.924956 1.87683 0.746321 0.929001 1.8816 0.800975 0.92299 1.87925 
0.855369 0.91518 1.87695 0.909764 0.907369 1.87466 0.964754 0.901521 1.87971 
1.02186 0.905987 1.89927 1.0824 0.927736 1.94054 1.14253 0.944531 1.98937 
1.20307 0.96628 2.03065 1.26018 0.970746 2.05021 1.31517 0.964898 2.05526 
1.36954 0.956978 2.05296 1.42333 0.947097 2.04332 1.47559 0.928863 2.02651 
1.52652 0.903561 2.00251 1.58102 0.898666 1.99272 1.6333 0.87401 1.99831 
1.68724 0.856582 2.01849 1.74203 0.847185 2.03103 1.79673 0.839318 2.03614 
1.85111 0.831398 2.03385 1.90548 0.823479 2.03155 1.95986 0.815559 2.02926 
2.01424 0.80764 2.02696 2.06862 0.799721 2.02467 2.12301 0.79191 2.02237 
2.17767 0.7859 2.02002 2.23375 0.789783 2.01739 2.292 0.808645 2.01433 
2.34808 0.812519 2.0117 2.83473 -0.278331 1.61784 2.89982 -0.224921 1.54697 
2.96017 -0.18038 1.48887 3.01968 -0.14801 1.46816 3.07807 -0.141151 1.50986 
2.93929 0.77458 1.65195 2.88759 0.783789 1.71343 2.83523 0.792676 1.76011 

LINES 29 491
7 23 25 26 27 28 29 22 
7 24 30 31 32 33 34 23 
7 24 35 36 37 38 39 21 
6 24 40 41 42 43 22 
34 23 44 45 46 47 48 49 50 51 52 53 54 55 56 57 58 59 60 61 62 63 64 65 66 67 68 69 70 71 72 73 74 75 18 
39 22 76 77 78 79 80 81 82 83 84 85 86 87 88 89 90 91 92 93 94 95 96 97 98 99 100 101 102 103 104 105 106 107 108 109 110 111 112 7 
27 21 113 114 115 116 117 118 119 120 121 122 123 124 125 126 127 128 129 130 131 132 133 134 135 136 137 19 
8 21 138 139 140 141 142 143 20 
5 19 144 145 146 18 
9 19 147 148 149 150 151 152 153 16 
10 18 154 155 156 157 158 159 160 161 12 
57 17 162 163 164 165 166 167 168 169 170 171 172 173 174 175 176 177 178 179 180 181 182 183 184 185 186 187 188 189 190 191 192 193 194 195 196 197 198 199 200 201 202 203 204 205 206 207 208 209 210 211 212 213 214 215 216 16 
4 16 217 218 14 
6 15 219 220 221 222 12 
7 14 223 224 225 226 227 13 
4 14 228 229 10 
16 12 230 231 232 233 234 235 236 237 238 239 240 241 242 243 8 
25 11 244 245 246 247 248 249 250 251 252 253 254 255 256 257 258 259 260 261 262 263 264 265 266 5 
4 10 267 268 9 
18 10 269 270 271 272 273 274 275 276 277 278 279 280 281 282 283 284 6 
5 8 285 286 287 6 
4 8 288 289 3 
10 8 290 291 292 293 294 295 296 297 1 
5 7 298 299 300 5 
83 7 301 302 303 304 305 306 307 308 309 310 311 312 313 314 315 316 317 318 319 320 321 322 323 324 325 326 327 328 329 330 331 332 333 334 335 336 337 338 339 340 341 342 343 344 345 346 347 348 349 350 351 352 353 354 355 356 357 358 359 360 361 362 363 364 365 366 367 368 369 370 371 372 373 374 375 376 377 378 379 380 381 1 
4 6 382 383 3 
39 5 384 385 386 387 388 389 390 391 392 393 394 395 396 397 398 399 400 401 402 403 404 405 406 407 408 409 410 411 412 413 414 415 416 417 418 419 420 0 
7 1 421 422 423 424 425 3 
5 4 426 427 428 2 

POINT_DATA 429
SCALARS DY_raw double
LOOKUP_TABLE default
1939.89 2231.9 1364.38 3276.19 1342.26 1544.95 1803.91 1589.05 1876.24 
1819.21 1694.17 1515.93 1852.51 1957.22 1460.4 2500.36 1459.62 1490.87 
1603.72 1470.02 1484.19 1380.52 1622.9 1553.77 1719.73 1527.84 1636.51 
1670.56 1695.69 1698.51 1574.55 1670.71 1501.17 1406.5 1485.94 1718.23 
1807.06 1594.95 1334.89 1423.54 1719.73 1722.19 1602.24 1569.21 1622.12 
1822.77 1829.4 1807.18 1762.29 1762.29 1731.89 1760.61 1760.61 1663.98 
1779.15 1779.15 1940.14 2093.71 2093.71 2067.19 1804.9 1948.52 2098.43 
2010.14 1795.49 1789.57 1704.92 1963.73 1865.82 1865.82 2182.02 2052.17 
2285 2017.8 1838.2 1655.49 1653.36 1587.48 1650.91 1565.21 1389.81 
1541.51 1628.84 1585.06 1465.68 1236.29 1254.02 1426.08 1261.72 1162.08 
1294.18 1273.42 1418.03 1419.67 1348.7 1453.65 1389.87 1203.35 1442.84 
1416.28 1411.63 1402.61 1592.79 1489.94 1332.1 1237.56 1326.67 1502.75 
1471.68 1430.2 1435.72 1496.71 1625.63 1645.41 1481.58 1450.84 1638.28 
1638.28 1681.96 1701.47 1724.49 1618.37 1524.93 1680.91 1687 1827.62 
1620.61 1511.17 1561.05 1451.74 1319.66 1475.43 1437.86 1405.65 1614.18 
1497.67 1504.98 1487 1337.99 1356.01 1526.83 1549.97 1630.27 1437.22 
1632.38 1596.29 1496.91 1470.02 1286.49 1278.6 1402.84 1341.9 1407.8 
1429.28 1666.33 1582.18 1541.71 1767.91 1628.11 1786.38 1502.63 1537.72 
1526.45 1398.83 1499.51 1430.76 1546.81 1923.29 1923.29 2050.12 1789.43 
1789.43 1571.76 1684.25 1622.64 1866.21 1866.21 1997.64 1974.87 1974.87 
2059.29 2159.72 1992.99 2054.3 2065.02 1905.38 1859.64 1859.64 1647.34 
1589.14 1589.14 1537.55 1478.03 1478.03 1612.79 1600.33 1754.67 2049.05 
2397.63 2197.3 2158.3 2020.43 1876.54 1785.66 1785.66 1737.32 1552.41 
1460.36 1386.81 1253.11 1253.11 1291.6 1188.41 1057.29 1132.67 1231.22 
1385.86 1438.87 1466.2 1855.08 1620.73 1681.77 1897.38 1460.4 1516.65 
1703.5 1824.4 1946.44 1782.76 1671.81 1763.99 2050.72 1997.56 2264.79 
2113.76 2402.36 2215.12 2116.79 2109.78 2025.15 2157.74 2079.61 2178.24 
2014.68 1343.16 1343.16 1289.22 1312.86 1312.86 1316.03 1291.66 1291.66 
1321.84 1403.65 1581.77 1553.53 1398.73 1576.84 1431.74 1357.28 1446.72 
1446.72 1492.03 1443.24 1530.23 1554.4 1424.38 1644.24 1700.33 1827.62 
1906.78 1852.78 1623.62 1529.23 1386.62 1386.62 1279.55 1270.05 1341.54 
1300.67 1366.75 1388.32 1398.55 1540.07 1614.44 1927.78 1976.78 2039.59 
2309.95 2510 1891.31 1748.04 1608.54 1406.76 1470.48 1673.54 1973.94 
2204.07 1523.5 1418 1373.04 1835.04 1782.46 1856.87 1711.52 1553.88 
1472.67 1529.98 1394.18 1711.86 1629.35 1242.83 1284.54 1145.44 1046.4 
947.785 1035.95 1010.43 941.496 1109.12 1064.07 1078.09 1195.92 1323.56 
1378.3 1375.7 1313.02 1187.17 1103.67 1123.64 1198.93 1282.64 1264.51 
1415.05 1418.8 1392.85 1514.81 1550.44 1550.44 1609.69 1669.48 1669.48 
1733.09 1682.77 1738.41 1553.97 1583.65 1691.73 1751.48 1823.11 1764.8 
1907.13 1907.13 1891.64 1807.88 1729.91 1743.37 1617.77 1617.77 1480.86 
1384.46 1338.78 1509.09 1603.25 1979.59 1979.59 1866.05 1703.19 1821.57 
1654.93 1938.48 1883.37 2018.23 2446.55 2332.43 2291.11 2291.11 2191.72 
2066.15 2151.54 2103.8 2143.39 1783.86 2628 1635.76 1760.3 1883.07 
2054.06 1868.78 1973.94 1819.91 1547.44 1547.44 1310.79 1286.78 1286.78 
1466.94 1523.98 1407.54 1452.19 1562.65 1562.65 1443.16 1443.16 1283.98 
1317.68 1317.68 1403.07 1544.55 1612.81 1977.61 1937.12 1937.12 1647.33 
1647.33 1537.66 1365.66 1365.66 1448.11 1803.69 1803.69 2091.67 2159.45 
2173.63 2518.15 2996.98 1409.51 1488 1429.81 
FIELD FieldData 7
DY_minmax 1 429 double
0.427632 0.55271 0.181129 1 0.171655 0.258472 0.369391 0.277362 0.40037 
0.375945 0.322387 0.246044 0.390205 0.435055 0.222256 0.667693 0.221922 0.235306 
0.283643 0.226378 0.232448 0.188044 0.291858 0.26225 0.333335 0.251143 0.297688 
0.312272 0.323039 0.324244 0.27115 0.312339 0.239722 0.199172 0.233198 0.332692 
0.370739 0.279888 0.168498 0.20647 0.333335 0.334386 0.283012 0.268864 0.291524 
0.377469 0.380309 0.370792 0.351564 0.351564 0.33854 0.350846 0.350846 0.309457 
0.358784 0.358784 0.427741 0.493518 0.493518 0.48216 0.369813 0.431331 0.495541 
0.457724 0.365784 0.363248 0.326991 0.437845 0.395909 0.395909 0.531341 0.475725 
0.57545 0.461002 0.384078 0.30582 0.304908 0.276688 0.303856 0.267152 0.192022 
0.257 0.294405 0.275654 0.224519 0.126268 0.133861 0.20756 0.137159 0.0944811 
0.151061 0.142172 0.20411 0.204813 0.174414 0.219365 0.192049 0.112159 0.214738 
0.203361 0.201366 0.197506 0.278963 0.234911 0.167303 0.126812 0.164979 0.240397 
0.22709 0.209322 0.211685 0.23781 0.293031 0.301502 0.231331 0.218163 0.298446 
0.298446 0.317156 0.325511 0.335375 0.28992 0.249897 0.316707 0.319315 0.379547 
0.29088 0.244003 0.265369 0.218548 0.161977 0.228694 0.212602 0.198808 0.288126 
0.238221 0.241352 0.233649 0.169828 0.177546 0.25071 0.260623 0.295017 0.21233 
0.295918 0.280463 0.237895 0.226378 0.14777 0.14439 0.197604 0.171503 0.199729 
0.208927 0.310461 0.274418 0.257085 0.35397 0.294092 0.36188 0.240346 0.255377 
0.25055 0.195885 0.239009 0.209562 0.259268 0.420521 0.420521 0.474848 0.363189 
0.363189 0.269957 0.318138 0.291749 0.396074 0.396074 0.452369 0.442615 0.442615 
0.478775 0.521793 0.450379 0.476637 0.48123 0.412851 0.39326 0.39326 0.302328 
0.277399 0.277399 0.255303 0.229809 0.229809 0.287528 0.282192 0.3483 0.474387 
0.623694 0.537888 0.521182 0.462132 0.4005 0.361575 0.361575 0.34087 0.261669 
0.222242 0.190737 0.133469 0.133469 0.149955 0.105759 0.0495983 0.0818818 0.124093 
0.190331 0.213038 0.224742 0.391306 0.290931 0.317075 0.409423 0.222256 0.24635 
0.326382 0.378168 0.430437 0.360331 0.31281 0.352292 0.475105 0.452335 0.566796 
0.502107 0.625719 0.545522 0.503405 0.5004 0.464153 0.520942 0.487478 0.529725 
0.459669 0.172043 0.172043 0.148938 0.159064 0.159064 0.16042 0.149984 0.149984 
0.162909 0.197952 0.274243 0.262149 0.195843 0.27213 0.209983 0.17809 0.216396 
0.216396 0.235806 0.214906 0.252165 0.262521 0.206832 0.300998 0.325024 0.379548 
0.413454 0.390324 0.292166 0.25174 0.190654 0.190654 0.144797 0.140728 0.171348 
0.153843 0.182144 0.191384 0.195767 0.256382 0.288235 0.422446 0.443433 0.470337 
0.586137 0.671825 0.406827 0.34546 0.285707 0.199282 0.226575 0.313549 0.442219 
0.540785 0.249285 0.204095 0.184841 0.382722 0.360202 0.392076 0.329817 0.262298 
0.227513 0.252059 0.193895 0.329962 0.294622 0.129067 0.146931 0.0873527 0.0449332 
0.00269375 0.0404559 0.0295261 0 0.071796 0.0525005 0.0585056 0.108977 0.163648 
0.187091 0.185977 0.159133 0.105226 0.0694639 0.0780143 0.110263 0.14612 0.138353 
0.202835 0.20444 0.193323 0.245561 0.260822 0.260822 0.286202 0.31181 0.31181 
0.339058 0.317503 0.341335 0.262336 0.27505 0.32134 0.346935 0.377615 0.352638 
0.4136 0.4136 0.406968 0.371091 0.337696 0.343458 0.289664 0.289664 0.231021 
0.189729 0.170165 0.243113 0.283444 0.444639 0.444639 0.396005 0.32625 0.376955 
0.305578 0.427027 0.403424 0.461189 0.644646 0.595768 0.57807 0.57807 0.535499 
0.481713 0.518286 0.497839 0.514798 0.360802 0.722364 0.297368 0.350712 0.403297 
0.476533 0.397174 0.442218 0.376242 0.25954 0.25954 0.158175 0.147893 0.147893 
0.225057 0.249489 0.199616 0.218743 0.266053 0.266053 0.214873 0.214873 0.146695 
0.161127 0.161127 0.197702 0.258301 0.287538 0.443792 0.426447 0.426447 0.302323 
0.302323 0.255349 0.181677 0.181677 0.216993 0.369294 0.369294 0.492645 0.521674 
0.52775 0.675316 0.880407 0.20046 0.234078 0.209155 
WidthEq 1 429 double
1.33445 2.22324 2.51584 1.51387 2.66052 3.1308 2.66145 3.70246 2.10385 
1.93235 3.14826 2.09417 3.13576 1.6158 3.507 1 3.45062 2.43718 
3.21921 3.77747 3.05334 3.15921 2.21005 2.23839 2.08636 2.13414 1.88672 
1.73027 1.71227 1.95452 2.14217 1.95965 1.99132 2.15195 2.26636 2.16998 
2.20036 2.36945 3.02922 2.94388 2.08636 1.88852 1.89789 2.06028 2.18232 
1.99664 2.0408 1.97908 2.12877 2.12877 2.19381 2.24825 2.24825 2.34524 
2.31322 2.31322 2.15272 2.03562 2.03562 1.96882 2.19813 2.12215 1.97012 
2.081 2.21998 2.31257 2.3506 2.23024 2.4624 2.4624 2.20677 2.48081 
2.28808 2.57986 3.02934 3.38381 2.30769 2.47568 2.44604 2.56731 2.68928 
2.53067 2.39169 2.29206 2.46135 2.66395 2.71213 2.46918 2.71103 2.8576 
2.66634 2.69322 2.52952 2.66728 2.84317 2.68923 2.89687 3.42851 3.04885 
3.21947 3.36935 3.38658 3.12309 3.31569 3.45782 3.60773 3.62594 3.35105 
3.22528 3.43902 3.5344 3.54128 3.57633 2.92664 3.09605 2.97168 2.58994 
2.58994 2.44861 2.39849 2.35583 2.34001 2.3415 2.28534 2.18513 2.08777 
2.22248 2.30314 2.24083 2.45146 2.95156 2.77709 3.19473 3.44568 3.06083 
3.59469 3.49535 3.70676 3.02183 2.83756 2.72935 2.95153 2.87528 3.2133 
3.62217 3.57048 3.46741 3.77747 3.83536 3.6299 3.54221 3.71247 3.67406 
3.62488 3.22575 2.97018 3.10663 2.89913 2.86813 2.66763 3.20196 3.48643 
2.7523 2.97006 2.71288 2.80985 2.55405 2.11558 2.11558 1.92904 2.19844 
2.19844 2.55452 2.57268 2.77728 2.67489 2.67489 2.57269 2.52057 2.52057 
2.37654 2.02676 2.2151 1.89403 1.7852 1.87964 1.82313 1.82313 2.04415 
2.42898 2.42898 2.64737 2.87052 2.87052 2.70853 2.64847 2.50026 2.07699 
1.76858 1.90982 1.89686 1.96124 2.09183 2.25629 2.25629 2.42109 2.76801 
2.7322 2.91554 3.01901 3.01901 3.11235 3.23236 3.3624 3.36968 3.43824 
3.55242 3.30892 3.26228 2.21728 2.82047 3.18063 3.00248 3.507 3.18038 
2.50701 2.41196 1.90683 3.23703 3.34664 3.12452 2.52899 2.18298 1.78278 
1.4952 1.44273 1.66309 1.7405 1.64428 1.61752 1.55993 1.56268 1.61001 
1.77948 3.08605 3.08605 3.31832 3.32194 3.32194 3.13277 3.0165 3.0165 
2.68008 2.4179 2.21697 2.26434 2.37771 2.37555 2.64117 2.61335 2.66868 
2.66868 2.68171 2.75244 2.70538 2.77795 3.22075 3.26473 2.9092 2.90201 
2.68452 2.6514 2.91209 3.04565 3.17052 3.17052 3.10972 3.16379 3.17531 
3.30861 3.28923 3.33401 3.27779 3.16654 3.12003 2.0644 2.10257 2.26098 
2.03872 2.00562 2.18219 2.46888 2.79124 3.06408 2.91086 2.53314 2.34089 
2.20905 3.63472 3.65834 3.53192 3.23317 3.18979 2.94636 2.59647 2.74043 
2.73709 2.78337 2.90995 2.45806 2.47599 2.91869 2.76269 2.76773 2.88613 
2.86292 2.95697 2.996 3.10033 3.06973 3.18638 3.34305 3.14222 2.71829 
2.42021 2.4719 2.6489 2.87853 3.05433 3.0546 2.95883 2.7641 2.77429 
2.55112 2.60949 2.54934 2.46835 2.3099 2.3099 2.22953 2.1951 2.1951 
2.16959 2.29024 2.24182 2.49502 2.46704 2.33347 2.19144 2.08022 2.08631 
1.99513 1.99513 2.05861 2.1746 2.28345 2.34557 2.58166 2.58166 2.88711 
3.11048 3.18165 2.92856 2.87841 2.30456 2.30456 2.28831 2.60476 2.45872 
2.6945 2.34821 2.35457 2.02216 1.72946 1.75218 1.84199 1.84199 1.99633 
2.18677 2.20687 2.33464 2.33184 2.52533 1.99774 2.99269 2.62132 2.14887 
2.02688 2.12758 2.06764 2.21566 2.51835 2.51835 2.92395 2.97053 2.97053 
2.6578 2.39471 2.54198 2.22495 2.05414 2.05414 2.19256 2.19256 2.46511 
2.59005 2.59005 2.46432 2.19678 2.14225 1.70018 1.71802 1.71802 1.99188 
1.99188 2.11112 2.56442 2.56442 2.49734 1.93726 1.93726 2.27121 2.13646 
2.05667 1.90739 1.69079 2.80384 2.68612 2.65556 
rRFP 1 429 double
3125.46 3730.31 3929.43 3247.56 4027.89 4347.93 4028.52 4736.96 3649.06 
3532.35 4359.81 3642.47 4351.3 3316.93 4603.94 2897.86 4565.57 3875.9 
4408.09 4788 4295.21 4367.26 3721.33 3740.62 3637.16 3669.67 3501.3 
3394.83 3382.58 3547.44 3675.14 3550.93 3572.48 3681.79 3759.65 3694.06 
3714.74 3829.81 4278.8 4220.72 3637.16 3502.52 3508.9 3619.41 3702.46 
3576.1 3606.15 3564.15 3666.02 3666.02 3710.28 3747.33 3747.33 3813.33 
3791.54 3791.54 3682.32 3602.63 3602.63 3557.17 3713.22 3661.51 3558.05 
3633.51 3728.09 3791.1 3816.98 3735.07 3893.06 3893.06 3719.1 3905.59 
3774.43 3973 4278.88 4520.11 3787.78 3902.1 3881.93 3964.46 4047.46 
3939.52 3844.94 3777.14 3892.35 4030.22 4063.01 3897.68 4062.26 4162.01 
4031.85 4050.14 3938.74 4032.49 4152.19 4047.43 4188.73 4550.53 4292.16 
4408.27 4510.27 4521.99 4342.68 4473.75 4570.47 4672.49 4684.88 4497.81 
4412.22 4557.68 4622.59 4627.27 4651.12 4208.99 4324.28 4239.64 3979.86 
3979.86 3883.68 3849.57 3820.54 3809.77 3810.79 3772.57 3704.37 3638.12 
3729.79 3784.68 3742.28 3885.62 4225.95 4107.22 4391.43 4562.21 4300.31 
4663.62 4596.01 4739.88 4273.77 4148.37 4074.73 4225.93 4174.04 4404.07 
4682.32 4647.14 4577 4788 4827.4 4687.58 4627.9 4743.77 4717.63 
4684.16 4412.54 4238.62 4331.48 4190.27 4169.17 4032.73 4396.35 4589.94 
4090.35 4238.54 4063.52 4129.51 3955.43 3657.04 3657.04 3530.1 3713.43 
3713.43 3955.75 3968.11 4107.35 4037.67 4037.67 3968.12 3932.65 3932.65 
3834.63 3596.6 3724.77 3506.27 3432.21 3496.48 3458.02 3458.02 3608.43 
3870.32 3870.32 4018.94 4170.8 4170.8 4060.56 4019.69 3918.83 3630.78 
3420.9 3517.02 3508.2 3552.01 3640.88 3752.8 3752.8 3864.95 4101.04 
4076.67 4201.44 4271.85 4271.85 4335.37 4417.04 4505.54 4510.49 4557.15 
4634.85 4469.14 4437.4 3726.25 4136.74 4381.84 4260.6 4603.94 4381.67 
3923.42 3858.74 3514.98 4420.22 4494.81 4343.65 3938.38 3702.91 3430.56 
3234.86 3199.15 3349.11 3401.79 3336.31 3318.1 3278.91 3280.78 3312.99 
3428.32 4317.47 4317.47 4475.54 4478 4478 4349.27 4270.14 4270.14 
4041.2 3862.78 3726.04 3758.28 3835.43 3833.96 4014.72 3995.79 4033.44 
4033.44 4042.31 4090.44 4058.42 4107.8 4409.14 4439.07 4197.12 4192.23 
4044.22 4021.68 4199.09 4289.98 4374.96 4374.96 4333.58 4370.38 4378.22 
4468.93 4455.74 4486.22 4447.96 4372.25 4340.6 3622.21 3648.19 3755.99 
3604.74 3582.21 3702.37 3897.47 4116.85 4302.52 4198.25 3941.2 3810.37 
3720.65 4690.86 4706.93 4620.9 4417.59 4388.07 4222.41 3984.3 4082.27 
4080 4111.49 4197.63 3890.11 3902.31 4203.58 4097.42 4100.85 4181.42 
4165.63 4229.63 4256.19 4327.19 4306.37 4385.75 4492.37 4355.7 4067.2 
3864.35 3899.53 4019.98 4176.25 4295.89 4296.07 4230.9 4098.38 4105.31 
3953.44 3993.16 3952.23 3897.11 3789.28 3789.28 3734.59 3711.16 3711.16 
3693.8 3775.9 3742.95 3915.26 3896.22 3805.32 3708.67 3632.98 3637.12 
3575.07 3575.07 3618.27 3697.21 3771.28 3813.56 3974.22 3974.22 4182.09 
4334.1 4382.53 4210.3 4176.17 3785.65 3785.65 3774.59 3989.94 3890.56 
4051.01 3815.35 3819.68 3593.47 3394.28 3409.74 3470.86 3470.86 3575.89 
3705.49 3719.17 3806.12 3804.21 3935.89 3576.85 4253.94 4001.21 3679.7 
3596.68 3665.21 3624.42 3725.15 3931.14 3931.14 4207.16 4238.86 4238.86 
4026.04 3847 3947.22 3731.47 3615.23 3615.23 3709.43 3709.43 3894.91 
3979.93 3979.93 3894.37 3712.3 3675.19 3374.35 3386.49 3386.49 3572.86 
3572.86 3654.01 3962.49 3962.49 3916.84 3535.69 3535.69 3762.95 3671.25 
3616.95 3515.36 3367.96 4125.42 4045.31 4024.51 
rGFP 1 429 double
5098.26 7471.65 5942.14 7469.3 6080.69 7346.52 7310.6 8392.99 6456.91 
6024.94 7843.28 5684.2 8318.59 5672.06 7631.19 5009.94 7546.16 6143.09 
7672.28 8062.53 7041.32 6870.94 6096.26 5987.53 6097.57 5770.2 5597.22 
5400.1 5413.07 5829.36 5882.54 5783.6 5498.9 5536.3 5877.26 6238.1 
6485.77 6288.74 6553.25 6700.31 6097.57 5761.96 5550.47 5742.6 6049.56 
6149 6243.02 6086.14 6261.1 6261.1 6309.01 6467.89 6467.89 6412.02 
6625.14 6625.14 6686.17 6771.59 6771.59 6579.52 6476.98 6644.63 6643.74 
6692.69 6495.54 6648.09 6517.17 6889.17 7103.98 7103.98 7324.79 7600.62 
7737.83 7715.22 8078.12 8111.46 6325.04 6439.67 6547.77 6527.98 6247.17 
6410.64 6405.26 6142.64 6117.14 5803 5910.65 6030.85 5930.14 5830.35 
5960.3 5939.19 6096.52 6296.25 6344.17 6418.78 6535.86 6635.3 6908.6 
7069.26 7265.85 7259.64 7484.01 7449.77 7115.73 6974.38 7320.01 7545.37 
7256.16 7428.07 7583.98 7809.85 8323.38 7325.11 7096.64 6821.01 6752.63 
6752.63 6628.05 6590.53 6572.2 6296.58 6080.21 6351.04 6195.89 6325.25 
6111.36 5990.01 6007.64 6068.47 6404.65 6606.98 7103.14 7353.01 7450.32 
7893.25 7770.01 8021.51 6552.77 6357.35 6676.83 7084.37 7197.07 7127.81 
8422.33 8209.11 7699.98 8062.53 7443.75 7150.79 7478.74 7491.36 7681.93 
7690.54 7884.73 7208.94 7299.11 7634.98 7179.21 7274.98 7320.94 7870.74 
6710.85 6664.19 6577.57 6529.8 6460.2 6578.44 6578.44 6464.36 6443.54 
6443.54 6524.68 6842.62 7016.12 7501.49 7501.49 7648.9 7487.38 7487.38 
7403.56 6886.83 6924.27 6400.48 6196.06 6091.01 5899.94 5899.94 5876.99 
6369.57 6369.57 6580.05 6752.3 6752.3 6877.86 6748.01 6896.72 6765.43 
6749.99 6706.04 6603.58 6472.14 6434.99 6538.56 6538.56 6715.8 6806.68 
6499.59 6552.89 6292.72 6292.72 6529.48 6350.95 6064.63 6326.3 6742.8 
7432.74 7270.7 7292.73 6622.8 7080.81 7858.68 8206.41 7631.19 7333.11 
6780.27 6909.98 6221.1 8280.43 8104.53 8021.2 7695.84 6870.22 6547.2 
5670.09 5975.54 6193.53 6193.86 5978.65 5785.31 5875.51 5759.35 6016.58 
6094.68 6654.65 6654.65 6787.63 6870.83 6870.83 6632.4 6405.88 6405.88 
6052.22 5903.48 6016.32 6027.32 5835.36 6255.44 6291.06 6056.64 6370.4 
6370.4 6510.78 6482 6649.43 6827.63 7097.17 7877.57 7456.17 7813.37 
7628.38 7422.05 7237.7 7167.09 6905.88 6905.88 6488.63 6527.77 6769.4 
6813 7005.12 7138.26 7093.75 7386.28 7546.68 6489.28 6665.9 7121.05 
7218.93 7543.69 6636.78 6825.28 6999.4 6820 6789.94 6748.88 7130.36 
7378.47 8047.09 7697.09 7359.06 8442.56 8195.25 7980.6 6953.49 6767.89 