# vtk DataFile Version 3.0
vtk output
ASCII
DATASET POLYDATA
POINTS 656 float
0.144576 -0.190327 2.35024 2.26505 -0.140857 2.16602 2.44134 -0.311714 2.00547 
1.93483 -1.34748 2.0931 1.71235 -1.31412 2.06454 2.35079 0.438554 1.89267 
0.453717 -0.571722 1.82687 2.61469 0.0134579 1.77648 1.89916 -1.23206 1.87038 
2.62697 0.148479 1.55623 0.288317 -0.825375 1.33631 2.93656 -0.216501 1.43671 
2.11911 -1.83517 1.57087 1.4558 1.29143 1.06997 1.00539 1.0277 0.941604 
1.32632 1.30134 0.783939 2.95561 0.538509 0.793676 3.28747 -0.257459 0.668066 
3.1576 0.198597 0.65911 0.241471 -1.23636 0.338742 3.22179 -0.485791 0.489317 
1.06275 -1.78271 0.434646 0.625877 1.46286 -0.261213 0.111775 1.22629 -0.0811287 
-0.0510301 1.215 -0.0971305 -0.426134 0.757794 -0.0747838 -0.737239 0.149103 -0.0924108 
4.66481 -0.511764 0.445442 4.149 -0.136816 0.13531 4.04863 -0.0949739 0.118741 
3.60144 0.0122769 0.0557969 -0.413703 1.0581 -0.791441 4.32753 -0.348194 -0.0194376 
3.1172 -0.773893 -0.0914703 0.981585 1.64037 -0.653291 -0.0821573 1.37128 -0.731027 
5.19677 -0.194355 -0.149871 -0.681254 0.593415 -0.891818 5.08918 -0.108332 -0.376311 
4.79536 0.155875 -0.850326 -0.472146 0.986029 -1.53227 2.57374 -0.539395 -1.1974 
-0.39191 -0.550041 -1.51569 -0.621448 0.172933 -1.7074 -0.548135 -0.0281046 -1.80724 
0.522719 -1.00731 -1.76033 -0.463253 -0.319199 -1.96113 0.950448 -1.14444 -1.8984 
0.714196 -0.919535 -2.09011 0.0448524 -0.727341 -2.05332 -0.427007 -0.17438 -2.18014 
0.284601 -0.56839 -2.25233 -0.185173 -0.0817434 -2.43749 0.0267947 0.312564 -2.60414 
0.859298 0.244207 -2.70802 0.908697 0.224289 -2.69243 0.956524 0.206374 -2.66226 
1.00199 0.191465 -2.6102 1.04667 0.17756 -2.55083 1.09214 0.162652 -2.49876 
1.14001 0.144838 -2.4686 1.19017 0.126685 -2.45318 1.24506 0.11667 -2.44588 
1.30678 0.119613 -2.44716 1.36401 0.109369 -2.45461 1.42203 0.0981219 -2.46937 
1.48379 0.101157 -2.47065 1.53866 0.0939186 -2.45622 1.59118 0.0896867 -2.41989 
1.64817 0.0986419 -2.37739 1.69756 0.0956412 -2.31902 1.743 0.0835022 -2.25981 
1.78851 0.0686944 -2.20775 1.83633 0.0507797 -2.17758 1.88573 0.0308613 -2.162 
1.93509 0.0108422 -2.1464 1.98215 -0.00883841 -2.11607 2.02291 -0.0346526 -2.06302 
2.05685 -0.0734235 -2.00139 2.09684 -0.101013 -1.94818 2.13837 -0.130697 -1.90955 
2.1739 -0.17425 -1.86965 2.20995 -0.21097 -1.81561 2.24234 -0.250515 -1.74653 
2.27993 -0.275188 -1.67141 2.31752 -0.299861 -1.59629 2.34986 -0.339497 -1.52721 
2.38514 -0.377991 -1.473 2.41601 -0.43235 -1.43213 2.4476 -0.485034 -1.39141 
2.4876 -0.512623 -1.3382 2.53068 -0.527393 -1.27137 0.796822 0.202784 -2.7993 
0.72967 0.167474 -2.84681 0.656986 0.141947 -2.8361 0.585865 0.131334 -2.79719 
0.525442 0.145496 -2.76053 0.471303 0.168559 -2.73946 0.418713 0.192385 -2.72585 
0.366166 0.216312 -2.71224 0.314362 0.239137 -2.70592 0.26184 0.260296 -2.69945 
0.204583 0.273319 -2.68485 0.139764 0.274475 -2.65441 0.0809343 0.289501 -2.62521 
0.820613 0.328475 -2.626 0.785076 0.408732 -2.57319 0.753429 0.48388 -2.55684 
0.723379 0.554255 -2.56223 0.68862 0.613725 -2.56662 0.641589 0.650424 -2.55417 
0.587488 0.679224 -2.51885 0.531837 0.707261 -2.47606 0.47693 0.734194 -2.44056 
0.424427 0.758222 -2.42697 0.374216 0.78191 -2.42811 0.327956 0.814748 -2.43009 
0.286104 0.863441 -2.41873 0.235951 0.90138 -2.38424 0.181781 0.932849 -2.34175 
0.131627 0.970788 -2.30726 0.0897363 1.01939 -2.29589 0.0419226 1.05145 -2.29041 
-0.0146146 1.06614 -2.27597 -0.0816652 1.0675 -2.23075 -0.148188 1.07403 -2.16361 
-0.214601 1.06409 -2.07166 -0.270299 1.03945 -1.96901 -0.333792 1.01812 -1.8451 
-0.394873 0.997688 -1.69849 -0.236501 0.0164232 -2.4164 -0.28183 0.102695 -2.35042 
-0.336498 0.167534 -2.22988 -0.415635 0.18544 -2.07543 -0.511649 0.182358 -1.89738 
-0.106045 -0.0557986 -2.39994 -0.0474684 -0.0603386 -2.37044 -0.000602026 -0.0897012 -2.35885 
0.03949 -0.138802 -2.36031 0.0818078 -0.186415 -2.37177 0.115848 -0.24755 -2.36722 
0.145043 -0.314256 -2.34739 0.175917 -0.371526 -2.31364 0.213847 -0.416876 -2.28829 
0.248617 -0.482192 -2.26805 -0.262852 -0.130515 -2.36898 -0.343644 -0.158098 -2.28367 
0.201911 -0.618669 -2.22426 0.153096 -0.663628 -2.17824 0.109406 -0.700867 -2.11768 
0.365985 -0.593192 -2.27023 0.425653 -0.629317 -2.29643 0.469801 -0.678907 -2.31494 
0.51531 -0.710833 -2.30565 0.560825 -0.731277 -2.26786 0.60204 -0.758011 -2.21963 
0.637667 -0.802102 -2.17715 0.676903 -0.848581 -2.13646 0.608003 -0.959176 -1.92818 
-0.417094 -0.234519 -2.13321 -0.433256 -0.281091 -2.06089 -0.492154 -0.111855 -1.99273 
0.0638868 -0.783686 -1.94578 0.0900164 -0.834901 -1.86826 0.126827 -0.8755 -1.82864 
0.165513 -0.923053 -1.81793 0.213306 -0.957986 -1.83054 0.266665 -0.985683 -1.85858 
0.320074 -1.01061 -1.87948 0.372576 -1.02956 -1.87122 0.434561 -1.03208 -1.82659 
-0.0246332 -0.736989 -2.02189 -0.0834623 -0.721964 -1.99271 -0.135254 -0.684988 -1.95072 
-0.184268 -0.627469 -1.87368 -0.243139 -0.581475 -1.76604 -0.312198 -0.55342 -1.64198 
0.786425 -0.929768 -2.01576 0.842104 -0.944064 -1.96267 0.890801 -0.964121 -1.93461 
0.933245 -0.997871 -1.92039 0.955139 -1.06127 -1.90932 0.851349 -1.16765 -1.80814 
0.767126 -1.18864 -1.74667 0.696737 -1.20151 -1.72242 0.640977 -1.19047 -1.72242 
0.595151 -1.15776 -1.73186 0.558751 -1.09342 -1.74462 1.00038 -1.18278 -1.75992 
1.03467 -1.22117 -1.63816 1.07323 -1.24135 -1.54852 1.1219 -1.24618 -1.48997 
1.18121 -1.24033 -1.46934 1.23766 -1.24957 -1.4695 1.29568 -1.26082 -1.48426 
1.3574 -1.25788 -1.48553 1.41155 -1.26679 -1.47095 1.4609 -1.28117 -1.44109 
1.51431 -1.28898 -1.41923 1.57438 -1.28136 -1.39875 1.63163 -1.27746 -1.37056 
1.6886 -1.26574 -1.32092 1.73884 -1.26676 -1.26271 1.79054 -1.26722 -1.21196 
1.85382 -1.24937 -1.18504 1.91867 -1.23351 -1.1727 1.97509 -1.23999 -1.16573 
2.0308 -1.24813 -1.1586 2.09176 -1.24409 -1.15259 2.14668 -1.25123 -1.13816 
2.20074 -1.2547 -1.1093 2.2617 -1.23373 -1.06049 2.32259 -1.2101 -1.00453 
2.37822 -1.19865 -0.947471 2.43994 -1.17592 -0.898826 2.50088 -1.15218 -0.842881 
2.55655 -1.14064 -0.78582 2.61825 -1.11513 -0.730036 2.68468 -1.08149 -0.682382 
2.75026 -1.04417 -0.620279 2.81431 -1.00475 -0.543587 2.87668 -0.963287 -0.452331 
2.93826 -0.922121 -0.368622 2.99216 -0.877061 -0.286287 3.04009 -0.824587 -0.198091 
-0.454465 -0.365384 -1.76585 -0.440957 -0.417583 -1.61436 -0.41958 -0.479804 -1.53584 
-0.526683 -0.258619 -1.7883 -0.573702 -0.181795 -1.66105 -0.595734 -0.110717 -1.62055 
-0.581279 -0.0622044 -1.67829 -0.584845 0.064535 -1.75124 -0.675489 0.287299 -1.5234 
-0.693559 0.375366 -1.35698 -0.700471 0.45274 -1.20794 -0.707829 0.52961 -1.05887 
-0.412407 -0.589413 -1.38466 -0.408398 -0.640348 -1.26444 -0.391244 -0.698786 -1.16433 
-0.370711 -0.759862 -1.07854 -0.348573 -0.820316 -1.00017 -0.321701 -0.872632 -0.929929 
-0.287226 -0.912993 -0.875556 -0.25644 -0.967544 -0.834667 -0.225615 -1.022 -0.793786 
-0.190373 -1.06059 -0.739575 -0.158748 -1.1019 -0.670335 -0.125105 -1.13571 -0.594386 
-0.0942473 -1.17315 -0.510726 -0.0575121 -1.19416 -0.421158 -0.0182515 -1.20649 -0.325006 
0.0192503 -1.22572 -0.235599 0.0548216 -1.25225 -0.152931 0.0982427 -1.25975 -0.0695203 
0.13289 -1.2807 0.0373561 0.176433 -1.27767 0.176982 -0.461856 1.04818 -1.17375 
-0.539682 0.96357 -1.43871 -0.581038 0.9275 -1.37055 -0.606015 0.881232 -1.33681 
-0.618543 0.828426 -1.31586 -0.617923 0.770813 -1.28533 -0.634182 0.722933 -1.22787 
-0.660944 0.682128 -1.14244 -0.681727 0.641527 -1.02631 4.85623 0.176638 -0.801502 
4.90796 0.173408 -0.757881 4.95498 0.159273 -0.71327 5.00125 0.140586 -0.675636 
5.04268 0.110944 -0.637021 5.07253 0.0562161 -0.60373 5.08698 -0.00361138 -0.556355 
5.0836 -0.0553934 -0.48194 4.74359 0.132913 -0.68733 4.68103 0.111748 -0.55581 
4.62545 0.0843048 -0.460287 4.55596 0.0613128 -0.38191 4.47891 0.0414712 -0.304769 
4.40863 0.0194803 -0.219102 4.35541 -0.0109678 -0.145458 4.30072 -0.0421549 -0.0869145 
4.26064 -0.0801066 -0.0333888 4.21664 -0.114398 0.0417666 4.75276 0.222588 -0.788891 
4.70015 0.26898 -0.718211 4.64687 0.313796 -0.647398 4.60185 0.369275 -0.599714 
4.55718 0.41425 -0.58063 4.51216 0.4528 -0.575743 4.45442 0.461875 -0.568171 
4.39644 0.475756 -0.546251 4.33783 0.486498 -0.516454 4.27618 0.47318 -0.461117 
4.22552 0.443864 -0.387351 4.17862 0.412247 -0.297841 4.16098 0.366963 -0.218323 
4.13198 0.324398 -0.16297 4.08397 0.287731 -0.133033 4.04644 0.246692 -0.101364 
4.00559 0.208393 -0.0553974 3.94257 0.180005 -0.00564845 3.87868 0.151305 0.0365167 
3.82915 0.114554 0.0587803 3.76644 0.081261 0.0641128 3.69025 0.0486649 0.0603754 
5.12366 -0.128905 -0.27201 5.15599 -0.165766 -0.195794 5.00714 -0.124743 -0.285146 
4.92921 -0.144896 -0.215589 4.86453 -0.17259 -0.166126 4.82455 -0.210583 -0.112584 
4.79476 -0.252146 -0.0499311 4.76752 -0.2941 0.020572 4.74782 -0.339199 0.0923207 
4.73294 -0.386303 0.164853 4.69138 -0.421613 0.240422 4.66374 -0.461378 0.333138 
-0.635309 0.636096 -0.697222 -0.593727 0.662925 -0.515954 -0.546867 0.691912 -0.356969 
-0.495359 0.716187 -0.21188 -0.388105 1.17287 -0.771858 -0.354098 1.24254 -0.755203 
-0.2957 1.28177 -0.744265 -0.22589 1.31245 -0.738444 -0.154074 1.34189 -0.734744 
-0.0745704 1.32617 -0.520988 -0.0649617 1.27601 -0.310038 -0.0205126 1.41361 -0.632437 
0.0435612 1.45026 -0.562893 0.107578 1.47266 -0.528989 0.167206 1.47643 -0.515555 
0.228894 1.48214 -0.509689 0.283046 1.47323 -0.495104 0.331635 1.45708 -0.465091 
0.377361 1.44239 -0.413033 0.426182 1.43095 -0.353553 0.499753 1.43275 -0.300755 
0.901403 1.62318 -0.561819 0.834155 1.59845 -0.490483 0.789524 1.56066 -0.429947 
0.731811 1.51561 -0.354794 3.18563 -0.705534 0.0117881 3.21371 -0.635752 0.14059 
3.22036 -0.562175 0.30415 3.14029 -0.848154 0.0189744 3.15308 -0.911783 0.0967604 
3.15139 -0.967819 0.141875 3.1531 -1.02525 0.180024 3.13752 -1.07409 0.230165 
3.11019 -1.11736 0.285803 3.0711 -1.15639 0.332062 3.00966 -1.18814 0.352354 
2.94058 -1.21804 0.356535 2.87974 -1.25206 0.354647 2.83429 -1.29249 0.3553 
2.78423 -1.331 0.355191 2.74055 -1.37216 0.356134 2.69059 -1.41071 0.356042 
[...]
POINT_DATA 656
SCALARS DY_raw double
LOOKUP_TABLE default
600.874 727.654 719.015 891.553 688.052 897.944 506.189 819.471 663.518 
699.921 591.853 698.815 698.026 779.121 619.354 680.956 642.966 585.891 
626.059 553.355 740.257 662.105 523.499 974.45 820.075 554.243 497.488 
1552.55 764.125 605.169 636.034 619.27 860.973 521.254 527.849 534.202 
1608.35 577.944 631.876 335.938 533.395 923.004 561.359 419.153 478.469 
463.203 485.162 468.219 364.333 499.045 487.817 540.792 495.404 517.899 
512.791 510.232 510.232 568.593 633.875 701.041 687.814 687.814 686.344 
700.971 602.462 605.969 544.582 597.187 547.71 570.877 625.134 611.126 
554.199 575.132 518.156 557.462 535.663 533.254 579.548 533.967 504.69 
504.69 511.465 561.869 572.937 504.375 534.412 505.933 501.332 518.216 
624.773 734.315 499.102 474.275 578.528 664.286 710.475 753.489 634.054 
578.476 689.155 623.807 536.99 538.116 579.034 449.696 539.332 505.649 
489.022 468.689 512.601 536.976 555.935 555.935 564.891 546.109 538.458 
538.458 550.257 520.618 569.355 521.581 481.579 450.156 486.728 510.299 
511.642 503.37 538.259 480.647 457.993 519.556 546.675 464.499 447.413 
487.809 549.684 560.328 626.701 610.672 613.56 609.299 600.271 569.573 
548.466 520.115 497.713 528.17 528.236 468.557 492.746 478.627 434.691 
417.802 391.048 365.925 360.489 361.244 391.98 487.817 488.748 474.32 
540.733 593.637 602.485 602.485 585.045 497.118 434.599 426.687 444.063 
496.639 547.306 600.802 639.328 733.944 667.957 377.074 406.333 441.035 
444.492 458.902 478.939 533.637 566.021 535.36 524.05 483.051 547.465 
619.793 646.889 682.992 731.775 633.731 633.731 633.431 643.406 552.62 
581.749 579.783 511.267 584.351 552.219 608.762 677.156 653.939 691.087 
738.056 738.056 731.102 778.376 709.618 735.93 640.6 707.874 607.22 
595.334 580.992 542.057 555.582 477.972 503.988 462.806 467.143 516.87 
458.247 459.141 565.208 502.113 535.815 564.495 561.232 440.564 468.64 
532.463 515.459 535.165 611.957 638.286 647.873 627.229 641.056 617.974 
575.528 514.375 559.256 531.404 524.917 573.006 532.324 467.703 521.124 
533.543 562.873 576.171 549.443 543.01 606.53 493.387 517.265 539.809 
522.901 522.901 507.8 495.099 512.637 360.97 403.555 403.555 438.445 
441.813 520.471 583.107 628.255 434.371 525.61 515.803 523.778 537.85 
559.638 530.802 550.76 522.836 663.449 356.489 394.856 416.571 497.94 
475.54 475.54 485.568 479.614 483.043 501.722 488.406 514.53 499.956 
519.689 537.495 528.723 535.936 510.126 574.548 599.941 624.903 617.196 
961.692 1067.98 633.328 653.501 560.317 637.545 657.819 735.821 768.992 
814.329 868.498 1076.99 620.612 590.726 632.47 575.382 627.903 649.601 
687.665 620.028 620.028 649.304 638.98 598.126 611.588 588.116 575.466 
571.087 571.087 601.024 575.065 575.472 552.59 461.6 470.812 452.669 
476.106 578.629 610.614 613.689 608.958 688.04 761.191 743.188 772.93 
879.713 925.396 834.95 979.557 876.031 767.977 853.605 762.205 811.388 
803.996 803.996 755.565 878.834 734.6 704.862 660.526 628.714 593.865 
601.645 653.963 544.92 605.962 631.637 541.993 592.123 631.093 576.92 
648.613 587.392 588.053 588.053 557.49 602.017 633.863 618.682 775.381 
775.381 705.065 614.743 626.563 594.742 562.508 645.912 617.775 665.414 
730.926 675.354 670.73 694.276 637.607 647.382 660.494 676.14 702.557 
681.561 654.787 516.497 658.294 556.757 592.916 619.053 618.361 539.241 
530.414 516.266 586.881 589.215 490.63 490.836 487.322 519.431 566.538 
587.089 587.089 595.365 656.78 637.055 714.755 675.365 595.371 876.383 
570.031 504.756 453.495 491.533 669.174 720.345 653.765 676.062 676.062 
642.863 610.884 640.989 603.696 571.034 557.502 597.095 604.029 710.509 
686.55 741.378 888.351 921.887 775.35 737.833 670.962 689.005 732.15 
732.15 681.635 638.188 602.572 549.892 522.318 533.991 626.899 626.899 
584.161 599.906 699.094 745.191 807.768 695.558 675.117 617.46 546.566 
529.043 641.793 713.302 762.024 699.344 623.723 761.652 750.001 789.777 
739.561 739.561 787.458 756.593 776.277 720.124 689.974 573.15 608.531 
598.769 508.684 585.501 610.981 602.762 538.33 486.042 459.343 550.552 
515.354 579.12 657.593 627.741 591.238 569.843 617.494 607.195 601.382 
601.382 662.696 734.629 828.859 788.165 788.165 687.743 658.15 723.841 
605.548 539.561 646.742 577.039 659.418 748.589 694.861 675.104 546.937 
488.671 727.717 769.695 782.301 669.061 629.462 617.864 685.183 702.508 
607.198 641.103 693.636 734.488 666.989 703.423 717.35 642.154 672.904 
613.46 585.881 621.567 712.117 632.571 627.538 612.298 694.021 707.266 
707.266 751.556 774.539 774.539 750.438 750.438 740.503 716.196 649.855 
660.798 655.914 655.914 632.869 609.404 609.404 560.956 546.253 546.253 
540.008 506.127 493.804 493.359 493.359 485.715 427.717 449.45 412.124 
442.394 505.078 651.02 598.429 609.466 585.891 568.758 615.853 609.5 
585.426 583.826 576.745 746.25 773.217 841.367 851.671 915.874 950.575 
852.397 511.107 457.546 743.086 777.804 782.902 818.241 834.892 759.59 
682.521 720.826 491.32 517.779 554.961 576.809 627.85 524.204 601.026 
657.4 619.14 690.474 726.195 818.561 857.074 857.074 815.149 709.956 
709.956 631.803 572.856 498.57 607.25 564.269 583.637 732.871 667.704 
660.304 716.352 627.942 725.104 752.275 717.771 818.197 836.136 836.136 
816.906 724.334 751.97 742.393 733.996 725.395 716.614 735.779 
FIELD FieldData 7
DY_minmax 1 656 double
0.208215 0.307852 0.301063 0.436661 0.276729 0.441684 0.133801 0.380012 0.257447 
0.286056 0.201125 0.285187 0.284567 0.3483 0.222739 0.271152 0.241295 0.19644 
0.228008 0.17087 0.317757 0.256337 0.147405 0.501811 0.380487 0.171567 0.126963 
0.956146 0.336515 0.211591 0.235848 0.222672 0.412628 0.145641 0.150824 0.155817 
1 0.190194 0.23258 0 0.155183 0.461379 0.17716 0.0653994 0.112016 
0.100019 0.117276 0.10396 0.0223158 0.128187 0.119362 0.160996 0.125325 0.143005 
0.13899 0.136979 0.136979 0.182845 0.234151 0.286937 0.276541 0.276541 0.275386 
0.286882 0.209463 0.212219 0.163975 0.205317 0.166433 0.18464 0.227281 0.216272 
0.171533 0.187984 0.143206 0.174097 0.156966 0.155072 0.191455 0.155632 0.132624 
0.132624 0.137948 0.177561 0.186259 0.132376 0.155982 0.1336 0.129984 0.143253 
0.226998 0.313087 0.128231 0.10872 0.190653 0.258051 0.294351 0.328156 0.234291 
0.190612 0.277596 0.226239 0.158008 0.158893 0.191051 0.089403 0.159849 0.133377 
0.12031 0.10433 0.138841 0.157997 0.172897 0.172897 0.179936 0.165174 0.159162 
0.159162 0.168435 0.145142 0.183444 0.145898 0.114461 0.089765 0.118507 0.137032 
0.138087 0.131586 0.159006 0.113728 0.0959236 0.144307 0.16562 0.101037 0.0876093 
0.119356 0.167984 0.176349 0.228513 0.215915 0.218185 0.214836 0.207741 0.183615 
0.167027 0.144746 0.12714 0.151076 0.151129 0.104226 0.123236 0.11214 0.0776106 
0.0643371 0.0433113 0.0235666 0.0192948 0.0198882 0.0440435 0.119362 0.120094 0.108756 
0.16095 0.202527 0.209481 0.209481 0.195775 0.126672 0.0775384 0.0713206 0.0849759 
0.126296 0.166115 0.208159 0.238436 0.312795 0.260936 0.0323289 0.055324 0.0825961 
0.0853134 0.0966382 0.112386 0.155373 0.180824 0.156727 0.147838 0.115617 0.16624 
0.223084 0.244379 0.272752 0.311091 0.234037 0.234037 0.233802 0.241641 0.170292 
0.193185 0.191639 0.137793 0.195229 0.169977 0.214414 0.268166 0.249919 0.279114 
0.316027 0.316027 0.310562 0.347715 0.293677 0.314357 0.239436 0.292307 0.213202 
0.203861 0.192589 0.161991 0.17262 0.111626 0.132072 0.0997061 0.103115 0.142196 
0.0961235 0.0968264 0.180185 0.130598 0.157085 0.179624 0.17706 0.0822266 0.104291 
0.15445 0.141087 0.156574 0.216925 0.237617 0.245152 0.228927 0.239794 0.221654 
0.188295 0.140235 0.175507 0.153618 0.14852 0.186313 0.154341 0.103555 0.145539 
0.155299 0.17835 0.188801 0.167795 0.162739 0.21266 0.123741 0.142506 0.160224 
0.146935 0.146935 0.135067 0.125085 0.138869 0.0196727 0.0531411 0.0531411 0.0805611 
0.0832077 0.145025 0.194252 0.229734 0.0773591 0.149064 0.141357 0.147624 0.158684 
0.175808 0.153145 0.16883 0.146885 0.257393 0.0161512 0.0463043 0.0633699 0.127319 
0.109714 0.109714 0.117595 0.112916 0.11561 0.130291 0.119826 0.140357 0.128903 
0.144411 0.158405 0.151511 0.15718 0.136895 0.187526 0.207481 0.2271 0.221042 
0.491784 0.575315 0.233721 0.249574 0.176341 0.237035 0.252968 0.31427 0.34034 
0.375971 0.418542 0.582397 0.223728 0.20024 0.233047 0.188181 0.229457 0.24651 
0.276425 0.223268 0.223268 0.246277 0.238163 0.206055 0.216635 0.198188 0.188246 
0.184805 0.184805 0.208333 0.187931 0.188251 0.170268 0.0987582 0.105998 0.0917394 
0.110159 0.190732 0.21587 0.218286 0.214568 0.27672 0.334209 0.32006 0.343435 
0.427357 0.463259 0.392177 0.505825 0.424463 0.339542 0.406838 0.335006 0.373659 
0.36785 0.36785 0.329788 0.426665 0.313311 0.28994 0.255096 0.230094 0.202706 
0.208821 0.249938 0.16424 0.212214 0.232392 0.16194 0.201338 0.231964 0.189389 
0.245733 0.197619 0.198139 0.198139 0.174119 0.209113 0.234141 0.22221 0.345361 
0.345361 0.290099 0.219115 0.228404 0.203396 0.178063 0.243611 0.221497 0.258937 
0.310424 0.266749 0.263116 0.28162 0.237083 0.244766 0.25507 0.267367 0.288128 
0.271627 0.250586 0.141903 0.253342 0.173543 0.201961 0.222502 0.221958 0.159778 
0.15284 0.141721 0.197218 0.199052 0.121573 0.121735 0.118973 0.144209 0.18123 
0.197381 0.197381 0.203885 0.252152 0.23665 0.297715 0.266758 0.20389 0.424739 
0.183975 0.132675 0.0923885 0.122283 0.261892 0.302108 0.249782 0.267306 0.267306 
0.241214 0.216082 0.239741 0.210432 0.184763 0.174129 0.205245 0.210694 0.294378 
0.275548 0.318638 0.434145 0.460501 0.345336 0.315852 0.263298 0.277478 0.311386 
0.311386 0.271685 0.23754 0.209549 0.168148 0.146478 0.155651 0.228668 0.228668 
0.19508 0.207454 0.285407 0.321635 0.370814 0.282628 0.266563 0.22125 0.165534 
0.151763 0.240374 0.296573 0.334864 0.285603 0.226172 0.334572 0.325415 0.356675 
0.31721 0.31721 0.354853 0.330596 0.346065 0.301934 0.278239 0.186426 0.214232 
0.206561 0.135763 0.196133 0.216158 0.209699 0.159061 0.117968 0.0969851 0.168667 
0.141004 0.191118 0.252791 0.22933 0.200642 0.183828 0.221277 0.213183 0.208614 
0.208614 0.256801 0.313334 0.38739 0.355408 0.355408 0.276486 0.253229 0.304856 
0.211888 0.160029 0.244263 0.189483 0.254225 0.324305 0.28208 0.266553 0.165825 
0.120034 0.307902 0.340892 0.3508 0.261804 0.230683 0.221567 0.274474 0.28809 
0.213185 0.239831 0.281117 0.313223 0.260175 0.288809 0.299754 0.240657 0.264824 
0.218107 0.196432 0.224478 0.295642 0.233126 0.229171 0.217193 0.28142 0.291829 
0.291829 0.326637 0.344699 0.344699 0.325759 0.325759 0.31795 0.298847 0.24671 
0.25531 0.251472 0.251472 0.23336 0.214918 0.214918 0.176843 0.165288 0.165288 
0.16038 0.133753 0.124068 0.123718 0.123718 0.117711 0.0721294 0.08921 0.0598753 
0.0836646 0.132928 0.247625 0.206294 0.214968 0.19644 0.182975 0.219987 0.214994 
0.196074 0.194817 0.189252 0.322467 0.343661 0.39722 0.405318 0.455776 0.483048 
0.405889 0.137666 0.0955725 0.31998 0.347265 0.351272 0.379045 0.392131 0.332951 
0.272382 0.302486 0.122116 0.14291 0.172132 0.189302 0.229416 0.14796 0.208335 
0.252639 0.222571 0.278632 0.306706 0.379296 0.409564 0.409564 0.376615 0.293943 
0.293943 0.232522 0.186196 0.127813 0.213226 0.179447 0.194668 0.311952 0.260737 
0.254921 0.29897 0.229488 0.305848 0.327202 0.300085 0.37901 0.393109 0.393109 
0.377996 0.305243 0.326962 0.319436 0.312836 0.306077 0.299176 0.314237 
WidthEq 1 656 double
1.35726 2.6165 2.46899 1.69542 1.83263 2.16154 3.74606 2.08589 2.50969 
2.32763 4.32453 2.70951 2.27146 2.67202 3.36243 2.92332 3.60346 3.87405 
3.10221 4.60546 3.27102 4.7338 3.23253 1.75567 2.26489 3.93438 3.86987 
1.13734 2.08371 2.00267 2.30559 4.22804 1.27575 4.53879 1.931 4.06886 
1 4.89212 2.79172 3.47545 5.21363 1.98138 4.97176 7.11674 5.84749 
4.95764 4.57959 4.50884 5.82144 4.56937 4.53704 4.02416 4.87878 3.62102 
4.09774 4.12539 4.12539 3.77701 3.54855 3.13098 3.07699 3.07699 3.02665 
2.87469 3.22519 3.21933 3.3337 3.23273 3.39563 3.38534 3.19294 3.2289 
3.363 3.26621 3.46207 3.36255 3.46059 3.5931 3.4473 3.70724 3.85495 
3.85495 3.96741 3.69813 3.60096 4.33787 4.07941 4.30534 4.31729 4.17076 
3.41103 2.64322 3.68663 3.57587 3.07013 2.77362 2.74787 2.82273 3.56395 
3.94157 3.57937 4.02867 4.57596 4.46795 4.23292 4.06258 3.73324 3.68403 
3.77245 3.80644 3.86143 3.9326 3.89424 3.89424 3.96473 3.99654 3.92822 
3.92822 3.82104 4.20314 4.00455 4.47954 5.05596 5.14571 5.10344 5.03833 
5.09365 4.89841 4.8781 5.21277 4.85253 4.56271 4.68237 6.04325 6.90383 
5.30821 5.1255 4.99498 4.24364 4.05156 3.76599 3.78084 3.73219 3.95592 
4.11023 4.35335 4.28824 3.9448 3.93764 4.31045 4.09613 4.04991 4.18692 
4.30507 4.80763 5.15252 5.51552 5.87734 5.58053 4.53704 4.53732 4.7144 
4.38576 4.17697 4.04432 4.04432 4.08349 4.21486 4.44551 4.58582 4.74204 
4.25626 3.37938 3.09512 3.04774 3.07175 4.03521 5.84842 5.68448 5.30937 
5.09362 4.86558 4.53549 4.26345 3.72029 4.05406 4.17482 4.76636 4.24284 
4.01104 3.86747 3.61994 3.36623 3.76364 3.76364 3.79712 3.70434 4.03696 
3.95033 3.91087 4.17066 3.94295 4.12215 3.93063 3.52283 3.65247 3.4471 
2.99467 2.99467 2.58898 2.35998 2.4847 2.49905 3.03391 2.88158 3.46575 
3.74155 3.93043 4.24286 4.19758 4.46958 4.52883 4.64297 4.64064 4.43194 
5.2692 5.77143 4.87462 4.71515 4.48347 4.59454 4.53384 6.79945 5.95262 
5.19051 4.99187 5.22292 3.51797 2.99399 2.9531 3.07378 2.99066 3.1726 
3.78012 4.12859 4.00601 4.38738 4.6603 4.28639 4.82195 5.62558 4.97659 
5.03206 4.80059 4.63769 4.70668 4.7437 4.80059 5.60137 5.2999 5.12608 
4.81184 4.81184 4.82791 5.46143 5.34595 4.37772 4.95581 4.95581 4.89558 
4.78366 3.92294 3.03602 2.68108 3.43242 2.91546 2.98818 2.71011 2.27609 
2.2117 2.2231 2.3685 2.54966 2.41653 3.90333 3.32233 3.20974 3.05102 
3.05237 3.05237 3.16809 3.2746 3.38331 3.27287 3.07962 3.10694 2.87732 
2.85415 2.64878 2.14684 2.18764 1.96766 2.04041 2.00412 2.03503 2.15989 
1.7296 1.63006 2.73215 2.68539 3.01205 2.89009 2.74161 2.7776 2.6186 
2.51808 2.48828 1.88064 4.25679 4.16525 3.66209 3.92041 4.02907 3.81726 
3.50472 3.69021 3.69021 3.24285 3.14651 3.8885 3.83909 4.00753 3.96789 
3.7418 3.7418 3.50141 3.32158 3.20616 3.06519 2.94418 3.64291 3.77418 
3.61145 4.28308 3.86043 3.58158 4.13625 3.35113 2.66378 2.49141 2.41788 
2.18481 2.08489 2.3285 2.03287 2.21691 2.41731 2.30454 2.51552 2.45029 
2.52922 2.52922 2.75353 2.55887 2.91754 3.04315 3.20954 3.38361 3.36375 
3.30949 3.06324 3.23058 3.15154 3.15229 3.6369 3.52914 3.41191 3.73637 
3.41181 3.71761 3.63359 3.63359 3.99238 4.04868 4.05459 4.86658 1.76817 
1.76817 2.22956 3.88778 3.72274 3.7552 3.93984 3.44492 3.17375 2.86062 
2.62228 2.4879 2.56974 2.58159 3.00739 3.09524 2.28563 2.22996 2.24256 
2.39652 2.67715 3.9021 2.17847 3.2768 2.94336 2.65496 2.66318 2.81146 
2.79207 3.02765 2.99147 3.22184 4.42913 4.31819 4.30918 3.89677 3.63745 
3.25559 3.25559 3.02172 2.7644 2.83435 2.7206 3.01919 3.45864 2.07672 
4.32711 4.40574 4.43517 3.99529 3.17984 2.80182 2.81434 2.92898 2.92898 
3.17628 3.88259 3.77942 4.25811 4.91469 5.04153 5.11779 5.83817 4.84009 
4.86603 4.02817 3.18354 2.9376 3.13268 2.93286 3.11034 2.80419 2.55414 
2.55414 2.42274 2.41014 2.44335 2.49286 2.74892 2.76781 2.50443 2.50443 
4.08657 3.95882 3.35306 3.32381 2.94829 3.30227 3.33861 3.64526 3.85585 
3.67381 2.74432 2.60217 2.10454 2.05516 2.26805 1.95138 2.01254 1.97435 
2.12648 2.12648 2.15533 2.34648 2.3969 2.52336 2.54517 4.49832 4.29282 
4.19498 5.24072 3.16494 3.15217 3.46693 4.02594 4.08033 3.9579 2.92545 
2.91666 2.6181 2.28075 2.41806 2.28986 2.37924 2.30158 2.27226 2.38232 
2.38232 2.02861 1.95947 1.7755 1.82579 1.82579 2.16507 2.42852 2.3288 
2.91751 3.2581 3.00233 3.39969 3.2299 3.09046 3.0088 3.09895 3.66895 
4.19285 2.87607 2.72468 2.62476 2.74464 2.68414 3.58303 3.22159 2.7337 
2.7499 2.65008 2.73976 2.66921 3.14265 2.76753 2.65231 2.71211 2.57831 
2.59524 2.51079 2.48815 2.39512 3.23253 3.188 3.10456 2.86773 2.38923 
2.38923 2.08286 2.0492 2.0492 2.14992 2.14992 2.169 2.25573 2.35845 
2.36171 2.3977 2.3977 2.52514 2.61517 2.61517 2.97213 3.0576 3.0576 
3.083 3.16684 3.11693 3.0963 3.0963 3.29684 4.19611 4.1499 5.23802 
5.29757 5.09284 3.07649 3.07651 3.04636 3.07165 3.08007 3.00389 3.05515 
3.20491 3.44687 3.44039 2.83237 2.59554 2.13239 1.974 1.86348 1.8135 
2.37173 4.39903 3.94457 2.22019 2.14819 2.12355 2.18759 2.17587 2.23124 
2.27854 2.01825 3.93038 3.68691 3.26456 2.41996 1.92504 3.57146 3.08122 
2.63025 2.46677 1.94642 1.90638 1.67744 1.55863 1.55863 1.70003 2.13713 
2.13713 2.47723 2.68534 2.808 2.59656 2.74499 2.66841 2.42762 2.51775 
2.36729 2.09082 2.04524 1.8189 2.00167 2.397 2.25698 2.15919 2.15919 
2.10667 2.1052 2.08396 2.18679 2.38029 2.57731 2.52937 2.52722 
rRFP 1 656 double
2773.22 3276.05 3217.15 2908.25 2963.04 3094.38 3727.1 3064.17 3233.4 
3160.7 3958.09 3313.19 3138.27 3298.22 3573.91 3398.57 3670.16 3778.21 
3470 4070.27 3537.41 4121.52 3522.04 2932.31 3135.65 3802.3 3776.54 
2685.4 3063.3 3030.94 3151.9 3919.56 2740.67 4043.65 3002.32 3856 
2630.56 4184.74 3346.02 3619.04 4313.12 3022.44 4216.54 5073.06 4566.23 
4210.9 4059.94 4031.69 4555.83 4055.86 4042.95 3838.15 4179.41 3677.17 
3867.53 3878.57 3878.57 3739.46 3648.23 3481.49 3459.93 3459.93 3439.83 
3379.15 3519.11 3516.77 3562.44 3522.12 3587.17 3583.06 3506.23 3520.59 
3574.14 3535.49 3613.7 3573.96 3613.11 3666.02 3607.8 3711.6 3770.58 
3770.58 3815.49 3707.96 3669.16 3963.42 3860.21 3950.43 3955.2 3896.69 
3593.32 3286.72 3703.37 3659.14 3457.19 3338.79 3328.51 3358.4 3654.38 
3805.17 3660.54 3839.95 4058.49 4015.36 3921.51 3853.49 3721.98 3702.33 
3737.64 3751.21 3773.17 3801.59 3786.27 3786.27 3814.42 3827.12 3799.84 
3799.84 3757.04 3909.62 3830.32 4019.99 4250.16 4286 4269.12 4243.12 
4265.21 4187.25 4179.14 4312.78 4168.93 4053.2 4100.98 4644.4 4988.04 
4350.89 4277.93 4225.81 3925.79 3849.09 3735.06 3740.99 3721.56 3810.9 
3872.52 3969.6 3943.6 3806.46 3803.6 3952.47 3866.89 3848.43 3903.14 
3950.32 4151 4288.72 4433.67 4578.15 4459.63 4042.95 4043.06 4113.77 
3982.54 3899.17 3846.2 3846.2 3861.84 3914.3 4006.4 4062.43 4124.81 
3930.83 3580.68 3467.17 3448.25 3457.84 3842.56 4566.6 4501.14 4351.35 
4265.2 4174.14 4042.33 3933.7 3716.81 3850.09 3898.31 4134.52 3925.47 
3832.91 3775.58 3676.74 3575.43 3734.12 3734.12 3747.49 3710.44 3843.26 
3808.67 3792.91 3896.65 3805.72 3877.28 3800.8 3637.96 3689.73 3607.72 
3427.06 3427.06 3265.06 3173.62 3223.42 3229.15 3442.73 3381.9 3615.17 
3725.3 3800.72 3925.48 3907.4 4016.01 4039.67 4085.25 4084.32 4000.98 
4335.31 4535.86 4177.75 4114.07 4021.56 4065.91 4041.67 4946.36 4608.21 
4303.89 4224.57 4316.83 3636.02 3426.79 3410.46 3458.65 3425.46 3498.11 
3740.7 3879.85 3830.9 3983.19 4092.17 3942.86 4156.72 4477.62 4218.47 
4240.62 4148.19 4083.14 4110.69 4125.47 4148.19 4467.95 4347.57 4278.16 
4152.68 4152.68 4159.1 4412.07 4365.96 3979.33 4210.17 4210.17 4186.12 
4141.43 3797.73 3443.57 3301.84 3601.86 3395.43 3424.47 3313.43 3140.12 
3114.41 3118.96 3177.02 3249.36 3196.2 3789.9 3557.9 3512.94 3449.56 
3450.1 3450.1 3496.31 3538.84 3582.25 3538.15 3460.98 3471.89 3380.2 
3370.95 3288.94 3088.51 3104.8 3016.96 3046.01 3031.52 3043.86 3093.72 
2921.9 2882.15 3322.23 3303.56 3434 3385.3 3326.01 3340.38 3276.89 
3236.75 3224.85 2982.21 3931.04 3894.49 3693.57 3796.72 3840.11 3755.53 
3630.73 3704.8 3704.8 3526.16 3487.69 3783.98 3764.25 3831.51 3815.68 
3725.4 3725.4 3629.41 3557.6 3511.51 3455.22 3406.9 3685.91 3738.33 
3673.35 3941.54 3772.77 3661.42 3882.91 3569.4 3294.93 3226.1 3196.74 
3103.67 3063.77 3161.05 3043 3116.49 3196.51 3151.48 3235.73 3209.68 
3241.2 3241.2 3330.77 3253.04 3396.26 3446.42 3512.86 3582.37 3574.44 
3552.77 3454.44 3521.26 3489.7 3490 3683.51 3640.48 3593.67 3723.23 
3593.63 3715.74 3682.19 3682.19 3825.46 3847.94 3850.3 4174.54 2937.3 
2937.3 3121.54 3783.69 3717.79 3730.75 3804.48 3606.85 3498.57 3373.53 
3278.36 3224.7 3257.38 3262.11 3432.14 3467.22 3143.93 3121.7 3126.73 
3188.21 3300.27 3789.41 3101.14 3539.72 3406.57 3291.41 3294.69 3353.9 
3346.16 3440.23 3425.78 3517.77 3999.86 3955.56 3951.96 3787.28 3683.73 
3531.25 3531.25 3437.86 3335.11 3363.04 3317.62 3436.85 3612.33 3060.51 