# vtk DataFile Version 3.0
vtk output
ASCII
DATASET POLYDATA
POINTS 642 float
0.157047 -0.214806 0.744097 1.37798 -0.255304 0.820665 6.08078 -0.0178184 1.19756 
-0.359391 -0.918854 0.371627 5.73126 0.667662 0.695956 6.72522 -0.301 0.740302 
1.642 -1.6025 0.131157 7.04532 -0.082465 0.272891 2.45053 0.944538 -0.401494 
7.18298 0.26126 -0.0202609 1.98803 -1.7999 -0.358753 -0.268494 -1.51929 -0.904093 
4.69627 0.518698 -0.58163 6.99252 -0.188336 -0.325526 3.52197 -0.968302 -0.859189 
6.43602 -1.36102 -0.451464 1.30159 1.15811 -1.322 3.80252 0.12417 -1.01601 
5.09745 1.00177 -1.00245 6.97656 -0.427988 -0.840049 7.19036 -0.051674 -0.848097 
7.30313 -0.492035 -0.740148 -0.323092 -1.26898 -1.40472 3.65358 -0.746819 -1.14029 
5.45472 -1.21892 -1.10921 -0.0537307 -1.40432 -1.63822 2.86429 -1.66493 -1.31095 
6.16498 1.06543 -1.32699 6.69466 -0.132308 -1.16182 6.87561 -0.0605784 -1.22194 
7.04598 0.0247098 -1.14983 6.97585 0.591059 -1.21351 1.34312 0.974861 -1.90494 
4.80939 -0.882787 -1.4373 5.05429 -0.892873 -1.41668 5.72914 0.843209 -1.54073 
5.38943 -0.411895 -1.64089 6.50077 -0.38257 -1.62226 6.86092 0.0664611 -1.57228 
7.00773 0.181859 -1.73372 1.89001 0.765975 -2.24316 6.03352 -0.577741 -1.78154 
6.3386 -0.911641 -1.71543 6.85258 -0.442844 -1.7224 1.2501 0.552168 -2.47408 
1.76239 0.315404 -2.61053 2.9236 -0.527892 -2.63289 2.04412 -0.788997 -2.87813 
2.27627 -0.674464 -2.93854 2.22298 -0.754322 -2.93212 2.16978 -0.793932 -2.91737 
2.11192 -0.804299 -2.89603 2.35745 -0.692496 -2.89783 2.42229 -0.693506 -2.87013 
2.48427 -0.696824 -2.85488 2.53914 -0.685077 -2.8492 2.58956 -0.663744 -2.83988 
2.6388 -0.640904 -2.81588 2.69025 -0.62477 -2.76861 2.74724 -0.621572 -2.71208 
2.79966 -0.604267 -2.66485 2.85544 -0.573376 -2.64115 2.25121 -0.593237 -2.9165 
2.21701 -0.535665 -2.90273 2.16953 -0.494284 -2.90081 2.13639 -0.448913 -2.90562 
2.11256 -0.399795 -2.91256 2.09039 -0.349933 -2.91945 2.06832 -0.300028 -2.92633 
2.04566 -0.249369 -2.92586 2.02183 -0.197204 -2.91071 1.99633 -0.142735 -2.87352 
1.97191 -0.0867692 -2.82891 1.9572 -0.0274832 -2.79136 1.95798 0.0356809 -2.77536 
1.94385 0.0911681 -2.76724 1.91084 0.139306 -2.75241 1.85947 0.183691 -2.71625 
1.81391 0.241261 -2.66604 3.00291 -0.548956 -2.4974 3.07164 -0.565684 -2.37815 
3.13291 -0.573544 -2.2828 3.18771 -0.567184 -2.20438 3.24507 -0.566148 -2.13267 
3.30017 -0.559422 -2.06919 3.35793 -0.558142 -2.01242 3.41024 -0.543959 -1.96488 
3.4626 -0.530728 -1.90976 3.52274 -0.540432 -1.8442 3.57615 -0.56497 -1.77018 
3.60504 -0.601551 -1.68942 3.62193 -0.641586 -1.59433 3.6347 -0.679396 -1.46992 
3.64502 -0.714237 -1.31612 2.91462 -0.438801 -2.60539 2.92825 -0.358836 -2.58262 
2.95155 -0.282099 -2.55129 2.97301 -0.204534 -2.49777 2.98193 -0.129605 -2.42257 
2.96673 -0.0664737 -2.35556 2.94241 -0.0104642 -2.31096 2.91868 0.0417455 -2.2958 
2.89612 0.0924497 -2.29533 2.87571 0.143097 -2.30216 2.86276 0.197077 -2.30873 
2.85451 0.253162 -2.31514 2.81862 0.296888 -2.32249 2.78743 0.342719 -2.32968 
2.7637 0.391883 -2.33662 2.74153 0.441744 -2.34351 2.71946 0.49165 -2.35039 
2.69729 0.54151 -2.35727 2.67336 0.590584 -2.36422 2.63801 0.63545 -2.36417 
2.5775 0.669126 -2.35006 2.50836 0.691135 -2.31303 2.44296 0.699356 -2.26681 
2.37196 0.720532 -2.22984 2.29876 0.748415 -2.21614 2.22678 0.774693 -2.21712 
2.16008 0.78959 -2.22398 2.10343 0.781594 -2.22769 2.04613 0.771892 -2.23128 
1.9747 0.774647 -2.23727 1.78953 0.414621 -2.52142 1.81414 0.500614 -2.45358 
1.83826 0.580765 -2.40011 1.86289 0.666762 -2.33226 1.6612 0.344061 -2.62156 
1.57875 0.372004 -2.63102 1.50674 0.400328 -2.63968 1.44469 0.433425 -2.64056 
1.3948 0.474956 -2.61893 1.32813 0.51407 -2.56105 1.2179 0.491346 -2.5003 
1.17621 0.452572 -2.53701 1.12919 0.425277 -2.56785 1.07909 0.402646 -2.56954 
1.02733 0.381477 -2.54163 0.978984 0.351996 -2.50512 0.938527 0.306409 -2.48873 
0.894487 0.270648 -2.49606 0.851622 0.233382 -2.51807 0.812967 0.185444 -2.52372 
0.767752 0.15119 -2.51635 0.721408 0.118342 -2.49428 0.681726 0.0710031 -2.47767 
0.640559 0.027594 -2.46903 0.602786 -0.0229113 -2.46688 0.561665 -0.0664206 -2.45823 
0.522129 -0.114667 -2.43404 0.478071 -0.15441 -2.38867 0.43623 -0.199743 -2.33507 
0.392946 -0.241238 -2.28946 0.358339 -0.300354 -2.26376 0.330619 -0.369399 -2.25143 
0.313333 -0.436775 -2.2459 0.309925 -0.498067 -2.23989 0.292095 -0.564789 -2.227 
0.263976 -0.63408 -2.19974 0.232433 -0.701853 -2.1505 0.200303 -0.768871 -2.0939 
0.170421 -0.835902 -2.0446 0.151417 -0.901118 -2.01702 0.147514 -0.961617 -2.00366 
0.132042 -1.0283 -1.99806 0.116571 -1.09498 -1.99246 0.112657 -1.15549 -1.9791 
0.0931907 -1.22019 -1.94663 0.0602284 -1.28515 -1.87786 0.0137019 -1.34647 -1.77072 
1.26999 0.635049 -2.37642 1.29048 0.717178 -2.28609 1.31037 0.800059 -2.18843 
1.32792 0.885954 -2.06137 7.04314 0.302939 -1.65815 7.05761 0.392591 -1.58252 
7.04136 0.460281 -1.49215 7.01074 0.524539 -1.36823 7.06075 0.119722 -1.54084 
7.07216 0.0725779 -1.34686 6.92756 0.1054 -1.65609 6.7867 -0.429797 -1.72901 
6.72969 -0.437279 -1.72782 6.67062 -0.442845 -1.71206 6.59433 -0.421119 -1.67556 
6.87728 -0.36616 -1.68596 6.89621 -0.282848 -1.59838 6.89894 -0.183438 -1.43655 
6.89428 -0.456061 -1.51354 6.91437 -0.475118 -1.29833 6.93435 -0.475407 -1.07262 
6.40764 -0.934152 -1.67772 6.47023 -0.943778 -1.61945 6.52097 -0.928341 -1.54227 
6.57049 -0.9113 -1.45043 6.62995 -0.916161 -1.363 6.69073 -0.923428 -1.2827 
6.74675 -0.91937 -1.21141 6.80812 -0.92739 -1.13846 6.86813 -0.932905 -1.05839 
6.91624 -0.913259 -0.959455 6.95726 -0.879875 -0.832608 6.99692 -0.843986 -0.698665 
7.03948 -0.811763 -0.601456 7.08727 -0.786219 -0.570374 7.13845 -0.764296 -0.590937 
7.18675 -0.734716 -0.62746 7.22714 -0.688325 -0.653884 7.26715 -0.643212 -0.672746 
7.29394 -0.577551 -0.699744 6.10695 -0.548579 -1.80106 6.16703 -0.52178 -1.84382 
6.22163 -0.502221 -1.88628 6.27381 -0.482942 -1.89902 6.3255 -0.467003 -1.8542 
6.38126 -0.459929 -1.77079 6.43634 -0.432068 -1.68707 5.95294 -0.570856 -1.78121 
5.88951 -0.574868 -1.7784 5.83012 -0.579598 -1.76026 5.75984 -0.560121 -1.72306 
5.68429 -0.529224 -1.67997 5.60855 -0.497331 -1.64449 5.53453 -0.467597 -1.63105 
5.46169 -0.43937 -1.63229 1.79547 0.811743 -2.25541 1.71533 0.845618 -2.26529 
1.64209 0.873051 -2.26649 1.5722 0.89277 -2.24422 1.50494 0.903204 -2.17597 
1.42748 0.932667 -2.0582 6.80326 0.0689638 -1.68172 6.7532 0.0525741 -1.76621 
6.70156 0.0374472 -1.82108 6.64246 0.0363213 -1.84062 6.5925 0.0127927 -1.83473 
6.55576 -0.0420685 -1.80217 6.5257 -0.107857 -1.76048 6.50626 -0.169499 -1.70591 
6.51032 -0.223178 -1.65776 6.51562 -0.287573 -1.62833 6.84763 0.00649592 -1.39788 
5.3557 -0.471556 -1.63747 5.3159 -0.517479 -1.63594 5.27822 -0.568184 -1.63375 
5.23842 -0.614107 -1.63223 5.20469 -0.673767 -1.62881 5.17042 -0.732775 -1.61802 
5.12905 -0.777436 -1.58687 5.09086 -0.832179 -1.51709 5.32414 -0.368099 -1.55349 
5.28424 -0.317024 -1.49469 5.25972 -0.26415 -1.4722 5.24784 -0.208674 -1.47136 
5.24979 -0.147016 -1.47006 5.23508 -0.0907765 -1.45459 5.20037 -0.0404267 -1.41772 
5.14958 0.00375248 -1.37401 5.1131 0.0533156 -1.33719 5.08751 0.104693 -1.3221 
5.06417 0.156061 -1.31429 5.04034 0.208226 -1.29914 5.01464 0.262605 -1.26195 
4.98611 0.317749 -1.21013 4.94719 0.370281 -1.14393 4.89097 0.418006 -1.05621 
4.83552 0.469059 -0.931421 4.76629 0.506187 -0.768959 5.66272 0.85691 -1.53998 
5.60521 0.849315 -1.52139 5.55064 0.833353 -1.4793 5.49488 0.818898 -1.42252 
5.43332 0.816711 -1.35251 5.36138 0.841344 -1.27115 5.29259 0.882373 -1.17629 
5.23745 0.930584 -1.08853 5.17079 0.969698 -1.03065 4.98998 -0.881087 -1.45291 
4.93004 -0.880871 -1.4652 4.86695 -0.875282 -1.45587 5.12704 -0.924192 -1.43753 
5.19125 -0.960339 -1.46604 5.23939 -1.00266 -1.48774 5.2892 -1.03915 -1.47254 
5.32899 -1.07394 -1.41201 5.37216 -1.10465 -1.31727 5.4083 -1.15032 -1.21407 
1.3187 1.0488 -1.71279 1.31122 1.1176 -1.51875 -0.153758 -1.35152 -1.58191 
-0.240988 -1.30851 -1.50366 6.89971 0.622708 -1.16308 6.83228 0.639267 -1.17017 
6.77695 0.63364 -1.24125 6.7214 0.630488 -1.33501 6.66793 0.625694 -1.40601 
6.6155 0.644893 -1.44205 6.58028 0.685809 -1.45654 6.54542 0.729876 -1.46384 
6.49677 0.767906 -1.47163 6.45295 0.808088 -1.47926 6.40441 0.846162 -1.48704 
6.37077 0.891915 -1.48695 6.34508 0.943248 -1.47186 6.31757 0.996696 -1.43473 
6.27947 1.04433 -1.39036 6.22198 1.06944 -1.35272 7.00303 0.657471 -1.11357 
7.04317 0.692562 -0.986971 7.0953 0.693793 -0.833532 7.14113 0.676141 -0.686133 
7.15739 0.640009 -0.56161 7.16035 0.59375 -0.466992 7.18871 0.556813 -0.386244 
7.20314 0.513647 -0.305971 7.1958 0.461358 -0.221511 7.19889 0.412326 -0.136561 
7.20134 0.351738 -0.070393 6.97657 -0.0107123 -1.18412 7.11393 -0.00348433 -1.00556 
6.76916 -0.103414 -1.1912 2.89409 -1.59639 -1.31559 2.9326 -1.54755 -1.31752 
2.98801 -1.53691 -1.31418 3.04139 -1.5217 -1.31147 3.08752 -1.4901 -1.31102 
3.12685 -1.44311 -1.3127 3.17148 -1.4081 -1.31272 3.2161 -1.37309 -1.31274 
3.25539 -1.326 -1.31443 3.30075 -1.29265 -1.31422 3.34934 -1.26662 -1.313 
3.39334 -1.23076 -1.30569 3.42534 -1.1696 -1.27703 3.4533 -1.10174 -1.1971 
3.48669 -1.04141 -1.05123 -0.0877553 -1.47208 -1.49456 -0.113672 -1.50985 -1.32593 
-0.174065 -1.51998 -1.12554 7.29809 -0.106887 -0.842786 7.33872 -0.161121 -0.816047 
7.33736 -0.218231 -0.769963 7.34382 -0.269926 -0.724808 7.35005 -0.325955 -0.70611 
7.3334 -0.400222 -0.714772 7.21234 -0.48221 -0.810664 7.14256 -0.482145 -0.851102 
7.0673 -0.462865 -0.856605 3.62053 -0.815372 -1.08611 3.57878 -0.886622 -0.992503 
3.70477 -0.734705 -1.03287 3.73696 -0.678472 -0.946421 3.76085 -0.602314 -0.877616 
3.7844 -0.524242 -0.823979 3.80977 -0.449138 -0.784838 3.84095 -0.385458 -0.766467 
3.87958 -0.338028 -0.753297 3.91687 -0.287578 -0.740554 3.9591 -0.249466 -0.711205 
4.00138 -0.211446 -0.681843 4.03773 -0.160586 -0.6468 4.08078 -0.124326 -0.617196 
4.12785 -0.0971316 -0.586342 4.17677 -0.0729947 -0.56997 4.2256 -0.0480589 -0.56115 
[...]
POINT_DATA 642
SCALARS DY_raw double
LOOKUP_TABLE default
423.179 365.52 581.622 599.985 88.065 447.488 328.65 607.466 479.472 
609.782 307.553 347.931 584.604 831.197 557.606 353.351 433.652 428.648 
618.298 553.661 449.915 367.633 331.702 444.166 365.838 287.935 707.09 
763.116 886.27 629.533 524.054 539.762 398.16 911.485 609.186 389.594 
362.841 675.411 689.534 385.104 619.989 402.922 399.514 433.743 452.391 
510.396 386.622 654.387 380.149 415.59 429.598 503.003 354.644 368.177 
341.796 322.068 299.482 299.482 365.139 415.413 449.797 399.875 398.212 
446.429 437.221 430.882 430.882 400.96 400.96 399.76 361.257 385.351 
377.649 353.886 353.886 336.88 338.724 381.707 469.282 442.192 495.668 
534.904 451.568 506.581 419.313 433.266 430.513 418.023 363.145 329.843 
324.638 378.913 318.033 360.395 370.346 405.719 410.823 415.02 396.019 
365.66 393.086 411.184 398.014 398.014 386.268 376.509 376.509 380.504 
383.273 383.273 355.549 368.095 368.095 350.712 354.343 381.028 410.967 
496.512 509.434 575.525 587.823 596.961 631.301 615.294 524.926 472.631 
418.499 486.829 498.504 476.15 417.729 374.604 399.793 397.601 419.044 
430.067 432.031 416.653 493.248 496.876 540.852 451.261 461.557 461.557 
445.843 417.26 456.933 396.279 396.279 361.108 372.958 359.313 418.58 
497.479 436.276 479.396 487.421 550.484 540.547 474.375 536.049 498.237 
544.649 583.144 466.88 420.793 420.793 352.767 368.488 326.478 296.551 
476.341 496.172 518.913 446.424 480.72 448.943 497.288 476.26 515.521 
548.03 530.368 433.743 468.114 487.021 582.053 463.459 527.272 577.748 
470.526 474.8 483.658 361.615 369.061 337.402 345.73 375.987 417.161 
361.265 340.246 387.687 380.916 452.256 527.326 583.459 544.8 521.068 
464.114 440.192 405.16 406.009 411.934 408.865 417.133 459.647 613.992 
680.707 718.939 453.104 438.552 445.225 485.228 466.41 450.411 429.563 
398.696 595.103 558.312 487.202 416.986 418.646 379.905 560.528 549.969 
560.651 559.09 559.09 504.126 544.699 593.873 652.081 623.092 691.854 
379.813 371.664 408.683 394.701 394.701 380.006 422.609 464.708 451.74 
511.667 517.892 517.892 490.855 429.851 461.977 469.464 450.531 450.531 
431.401 379.966 413.88 367.116 390.015 395.067 475.199 612.491 418.441 
418.441 449.686 426.719 453.33 428.895 433.863 487.925 595.721 563.475 
626.346 811.829 517.192 495.725 413.648 412.552 429.399 440.717 364.74 
377.057 427.789 317.719 350.005 539.814 681.949 688.987 653.619 569.464 
581.162 595.757 633.425 549.942 507.303 507.303 437.322 437.322 517.986 
534.385 638.874 415.762 505.155 469.44 477.718 530.47 635.746 624.527 
551.676 545.63 596.513 563.668 558.712 508.763 752.559 599.149 595.168 
595.168 477.032 477.032 429.996 381.902 415.876 430.396 457.581 504.265 
512.054 497.899 520.794 551.524 302.046 299.648 304.992 412.59 451.116 
458.337 463.351 418.282 411.798 391.867 462.21 510.91 421.23 487.006 
327.948 424.655 448.953 433.81 505.382 465.174 468.853 521.292 465.494 
513.193 454.447 432.059 477.481 488.97 467.007 467.007 440.568 584.232 
584.232 638.902 640.283 687.926 557.37 611.437 539.266 581.208 335.891 
355.187 356.875 371.817 335.675 402.439 414.368 413.172 437.156 452.012 
477.519 458.623 442.887 520.588 499.692 462.496 503.341 591.866 522.431 
457.472 402.188 363.801 371.506 381.94 470.187 502.099 487.657 539.967 
548.504 588.646 586.891 640.115 675.58 676.074 646.493 635.241 635.241 
560.085 581.743 528.523 547.442 484.709 429.886 437.62 424.742 412.168 
590.162 647.031 548.165 598.493 695.878 470.24 470.24 449.654 434.199 
434.199 424.641 391.766 391.766 360.238 395.29 390.246 411.691 466.951 
488.831 524.283 441.477 421.539 430.442 424.705 443.893 427.567 458.99 
510.789 595.185 530.815 576.182 616.735 483.115 483.115 439.226 395.462 
442.544 380.512 433.879 433.879 501.112 518.505 490.161 470.28 519.92 
579.746 623.363 571.429 605.248 550.268 550.268 476.273 476.501 486.461 
494.891 559.539 588.449 546.299 569.861 565.941 459.633 487.699 434.089 
434.427 434.427 365.013 356.999 421.509 378.435 421.325 384.128 428.386 
410.281 417.49 417.49 436.393 485.821 478.029 474.901 487.162 494.774 
422.481 385.756 353.029 381.974 372.106 415.798 408.346 429.101 481.18 
481.18 340.446 358.003 387.091 428.815 436.077 408.01 462.47 473.3 
460.439 425.841 428.946 405.858 375.947 392.181 457.587 608.741 551.483 
510.91 477.387 413.983 423.415 398.055 426.312 426.312 429.011 421.529 
458.654 361.574 381.799 351.038 299.894 318.534 307.408 305.143 277.623 
269.103 280.18 300.713 298.688 259.569 320.124 372.255 375.573 410.349 
408.165 453.72 442.627 403.737 403.737 377.749 371.201 371.201 296.348 
311.13 309.045 840.164 723.017 575.524 522.319 499.573 471.864 510.251 
492.08 495.726 543.507 525.296 416.027 408.594 430.469 414.308 372.712 
360.108 403.916 337.29 280.771 244 328.095 324.975 381.817 380.345 
347.321 370.673 407.322 442.055 599.985 293.205 295.872 284.42 678.47 
722.208 718.735 614.201 530.179 490.431 535.744 546.329 537.556 549.595 
448.192 430.415 481.677 455.761 517.775 551.474 585.779 526.502 558.858 
586.511 458.821 628.665 547.789 485.017 556.56 499.355 449.54 368.671 
582.239 556.658 486.385 450.923 442.356 471.247 455.842 478.957 495.284 
437.341 491.237 541.473 
FIELD FieldData 7
DY_minmax 1 642 double
0.406978 0.336955 0.599399 0.6217 0 0.4365 0.292178 0.630786 0.475343 
0.633598 0.266557 0.315594 0.603021 0.902494 0.570233 0.322176 0.419698 0.413621 
0.643941 0.565441 0.439447 0.339521 0.295885 0.432466 0.33734 0.242731 0.751773 
0.819814 0.969378 0.657584 0.529486 0.548563 0.376595 1 0.632874 0.366191 
0.333702 0.713301 0.730452 0.360738 0.645994 0.382378 0.378239 0.419808 0.442455 
0.512899 0.362582 0.687768 0.354721 0.397762 0.414774 0.503921 0.323746 0.340182 
0.308143 0.284184 0.256755 0.256755 0.336492 0.397547 0.439304 0.378677 0.376657 
0.435214 0.424032 0.416333 0.416333 0.379995 0.379995 0.378538 0.331777 0.361038 
0.351685 0.322826 0.322826 0.302173 0.304413 0.356613 0.462968 0.430069 0.495012 
0.542663 0.441456 0.508265 0.402283 0.419229 0.415885 0.400717 0.33407 0.293626 
0.287306 0.353219 0.279284 0.33073 0.342816 0.385775 0.391972 0.39707 0.373994 
0.337125 0.370432 0.392411 0.376417 0.376417 0.362151 0.3503 0.3503 0.355152 
0.358515 0.358515 0.324845 0.340081 0.340081 0.318971 0.323381 0.355788 0.392148 
0.496037 0.51173 0.591995 0.60693 0.618027 0.659731 0.640292 0.530545 0.467035 
0.401295 0.484278 0.498456 0.471309 0.40036 0.347987 0.378577 0.375915 0.401957 
0.415343 0.417729 0.399053 0.492073 0.49648 0.549886 0.441082 0.453587 0.453587 
0.434503 0.399789 0.447971 0.37431 0.37431 0.331597 0.345987 0.329416 0.401393 
0.497212 0.422884 0.475251 0.484997 0.561583 0.549515 0.469153 0.544053 0.498132 
0.554497 0.601248 0.460051 0.404081 0.404081 0.321467 0.340559 0.289541 0.253196 
0.471541 0.495624 0.523242 0.435208 0.476859 0.438267 0.496979 0.471443 0.519122 
0.558604 0.537153 0.419808 0.461549 0.484511 0.599923 0.455896 0.533394 0.594695 
0.464479 0.469669 0.480427 0.332212 0.341255 0.302807 0.31292 0.349666 0.39967 
0.331787 0.306261 0.363875 0.355653 0.442291 0.533459 0.60163 0.55468 0.52586 
0.456692 0.42764 0.385095 0.386126 0.393322 0.389594 0.399636 0.451267 0.63871 
0.719732 0.766163 0.443321 0.425648 0.433752 0.482334 0.45948 0.44005 0.414731 
0.377246 0.615771 0.57109 0.484731 0.399457 0.401473 0.354424 0.573781 0.560958 
0.573931 0.572035 0.572035 0.505284 0.554558 0.614277 0.684968 0.649762 0.73327 
0.354313 0.344416 0.389373 0.372393 0.372393 0.354546 0.406286 0.457413 0.441664 
0.514443 0.522003 0.522003 0.489167 0.415081 0.454096 0.463189 0.440196 0.440196 
0.416964 0.354498 0.395685 0.338893 0.366703 0.372838 0.470154 0.636888 0.401225 
0.401225 0.43917 0.411277 0.443595 0.41392 0.419953 0.485608 0.616521 0.57736 
0.653714 0.878973 0.521152 0.495082 0.395403 0.394073 0.414533 0.428277 0.336007 
0.350966 0.412577 0.278902 0.318112 0.548625 0.721241 0.729788 0.686836 0.584633 
0.59884 0.616565 0.662311 0.560925 0.509142 0.509142 0.424154 0.424154 0.522117 
0.542032 0.668928 0.397971 0.506534 0.46316 0.473214 0.537277 0.66513 0.651505 
0.563031 0.555689 0.617484 0.577595 0.571576 0.510915 0.806993 0.620684 0.61585 
0.61585 0.47238 0.47238 0.415257 0.356849 0.398109 0.415743 0.448758 0.505452 
0.514912 0.497722 0.525526 0.562846 0.259869 0.256957 0.263447 0.394119 0.440906 
0.449676 0.455765 0.401031 0.393157 0.368952 0.45438 0.513523 0.404611 0.484493 
0.291325 0.408771 0.438279 0.419889 0.506809 0.457979 0.462447 0.526132 0.458368 
0.516295 0.444952 0.417763 0.472926 0.486878 0.460205 0.460205 0.428096 0.602569 
0.602569 0.668963 0.670639 0.7285 0.569946 0.635608 0.54796 0.598896 0.300972 
0.324406 0.326456 0.344602 0.300709 0.381791 0.396278 0.394825 0.423952 0.441995 
0.472971 0.450024 0.430913 0.525276 0.499899 0.454727 0.504331 0.61184 0.527514 
0.448626 0.381486 0.334867 0.344224 0.356896 0.464068 0.502823 0.485283 0.548811 
0.559179 0.607929 0.605797 0.670436 0.713506 0.714107 0.678181 0.664517 0.664517 
0.573243 0.599546 0.534913 0.55789 0.481703 0.415123 0.424516 0.408877 0.393607 
0.609771 0.678835 0.558768 0.619888 0.738157 0.464132 0.464132 0.439131 0.420362 
0.420362 0.408754 0.368829 0.368829 0.33054 0.373109 0.366983 0.393027 0.460137 
0.486709 0.529763 0.4292 0.404987 0.415799 0.408832 0.432134 0.412308 0.450468 
0.513376 0.61587 0.537696 0.592793 0.642042 0.479767 0.479767 0.426467 0.373317 
0.430496 0.355162 0.419973 0.419973 0.501624 0.522746 0.488325 0.46418 0.524466 
0.59712 0.650092 0.58702 0.628091 0.561322 0.561322 0.471458 0.471735 0.483831 
0.494069 0.57258 0.60769 0.556501 0.585116 0.580355 0.451249 0.485335 0.420228 
0.420638 0.420638 0.336338 0.326606 0.40495 0.35264 0.404727 0.359553 0.413302 
0.391314 0.40007 0.40007 0.423026 0.483054 0.47359 0.469791 0.484682 0.493927 
0.406131 0.36153 0.321785 0.356937 0.344953 0.398015 0.388964 0.414171 0.477417 
0.477417 0.306503 0.327826 0.363152 0.413823 0.422643 0.388556 0.454695 0.467848 
0.452229 0.410212 0.413982 0.385943 0.349617 0.369333 0.448765 0.632334 0.562797 
0.513523 0.472811 0.395811 0.407265 0.376466 0.410783 0.410783 0.414061 0.404974 
0.450061 0.332163 0.356725 0.319366 0.257256 0.279893 0.266381 0.26363 0.230209 
0.219861 0.233313 0.25825 0.25579 0.208282 0.281823 0.345134 0.349164 0.391397 
0.388745 0.444068 0.430597 0.383368 0.383368 0.351806 0.343853 0.343853 0.252949 
0.2709 0.268369 0.913384 0.771116 0.591993 0.527379 0.499755 0.466103 0.512723 
0.490655 0.495083 0.55311 0.530994 0.398292 0.389266 0.415831 0.396205 0.345689 
0.330382 0.383584 0.30267 0.234031 0.189374 0.291503 0.287715 0.356747 0.354959 
0.314853 0.343213 0.38772 0.429902 0.6217 0.249132 0.25237 0.238463 0.717016 
0.770133 0.765915 0.638965 0.536924 0.488653 0.543683 0.556538 0.545883 0.560504 
0.437356 0.415766 0.478022 0.446548 0.52186 0.562785 0.604448 0.532459 0.571754 
0.605337 0.450264 0.65653 0.558311 0.482078 0.568963 0.49949 0.438992 0.340781 
0.600148 0.569082 0.483738 0.440672 0.430267 0.465354 0.446646 0.474718 0.494546 
0.424178 0.489631 0.550641 
WidthEq 1 642 double
2.82702 2.09131 2.16129 2.29203 1 3.25404 4.11451 3.11562 3.98802 
4.20738 4.29134 4.54367 3.05693 3.30978 3.20309 2.27914 5.08581 2.19643 
2.92143 4.93903 5.16692 4.46384 3.61883 4.38365 3.25326 4.64527 1.05908 
1.77777 2.88744 4.67509 5.57626 3.36896 4.70364 1.99509 2.8702 3.28831 
2.65566 3.8316 3.15437 3.65113 3.12601 3.95 2.88191 5.43385 3.51164 
3.55129 3.54833 1.99233 4.7421 4.54355 4.15343 3.37675 4.94176 4.78629 
4.71411 4.20708 3.95935 3.95935 3.42139 3.30479 3.29363 3.44061 4.53016 
4.06935 3.80925 3.41018 3.41018 3.29426 3.29426 3.26669 3.34962 3.32742 
3.50274 3.81271 3.81271 3.93619 3.92515 3.76955 3.58885 3.54374 3.28618 
3.15293 3.73572 3.54584 4.3123 4.33451 4.36325 4.43943 4.5265 4.42112 
4.36028 4.25324 4.75955 4.81781 3.35836 3.04662 2.81719 3.03403 3.24453 
3.84252 3.86543 3.6662 3.8237 3.8237 3.81123 3.78502 3.78502 3.75795 
4.04535 4.04535 4.31008 4.56666 4.56666 4.56578 4.56516 4.16992 3.74535 
3.23703 3.09274 2.84923 2.81145 2.8247 2.85492 3.01261 3.29689 3.13779 
3.45123 3.4952 3.28574 3.00673 2.94651 3.27881 3.50048 3.7409 3.83001 
3.72232 3.26943 3.49582 3.28228 3.25569 3.22832 3.40321 3.34707 3.34707 
3.19986 3.62426 3.54145 3.83413 3.83413 4.00917 3.82543 3.93619 3.60406 
3.15689 3.35374 3.10125 3.13851 3.00166 3.01349 3.21323 3.06294 2.98277 
2.7973 2.75586 3.07544 3.33695 3.33695 3.91571 3.87564 4.13312 4.48211 
3.69977 3.50126 3.15303 4.38472 3.30886 3.15852 3.23793 3.34501 4.37516 
4.68893 3.77705 5.43385 5.35963 5.18917 4.60428 5.09977 4.77016 4.68091 
5.06415 4.91004 5.33353 3.3821 3.5064 4.31288 4.65923 4.48629 4.29866 
4.15259 4.1386 3.84752 3.75023 3.18721 2.56472 2.2717 2.74228 2.80498 
2.95543 2.99295 3.49061 3.97956 3.76304 3.63192 3.36937 3.10803 2.86524 
2.98723 3.2971 3.67256 3.66685 3.4396 2.92465 2.65808 2.63812 2.58636 
2.78213 3.26202 3.43375 3.7486 4.31692 4.30382 4.76907 3.63374 3.75777 
3.33179 3.30758 3.30758 3.8473 3.83978 3.79883 3.68855 4.01483 3.85028 
2.55477 2.64931 2.166 2.34305 2.34305 2.74458 3.3719 3.34859 2.44159 
2.33827 2.30004 2.30004 2.38782 2.43425 2.4068 2.39453 2.45185 2.45185 
2.77193 2.94699 3.03142 3.57752 3.66187 3.93486 3.89249 3.2846 4.06433 
4.06433 4.17508 4.81375 4.57403 4.75663 4.58955 3.99632 2.90253 3.19142 
2.92398 2.11957 2.87299 2.89204 2.31834 2.17028 2.33273 2.68759 3.1652 
5.19538 5.07522 4.3178 4.02641 3.35861 2.30478 2.2067 2.37289 2.6877 
2.69346 2.4519 2.43889 2.28065 2.3439 2.3439 2.3743 2.3743 2.31864 
2.22213 2.0089 4.04285 3.83258 4.09093 3.94407 3.75231 3.32753 3.41499 
3.77474 3.87281 4.00728 4.15053 5.33938 5.56846 3.67205 1.96501 2.27639 
2.27639 2.82051 2.82051 2.92425 2.90126 2.74004 2.64841 2.39078 2.27193 
2.23819 2.38804 2.51325 2.91736 4.38136 4.21462 4.28022 4.78381 4.62809 
4.4969 4.54678 4.48141 4.50967 4.69418 4.76509 5.06499 4.71815 3.97315 
4.68573 3.97079 2.92286 2.61203 2.36539 2.0796 1.93307 1.90537 1.9714 
1.9173 2.119 2.35508 2.26605 2.24187 2.34865 2.34865 2.3463 2.06563 
2.06563 2.03044 2.14547 1.96225 2.67303 2.44508 3.14024 3.07426 3.76653 
3.69142 3.59175 3.6684 3.64277 3.7647 4.00126 4.38402 4.52163 4.40863 
3.79693 3.86573 3.5762 3.14576 3.0975 3.05647 2.81637 2.89821 2.94976 
3.18202 3.4248 3.5884 3.67048 3.58361 3.14812 2.94082 2.88435 2.57319 
2.51984 2.48058 2.46669 2.3821 2.28628 2.30653 2.36256 2.35732 2.35732 
2.46421 2.31716 2.37485 2.17297 2.19494 2.12513 2.03162 2.02453 2.06526 
4.69577 4.10591 4.93104 4.53351 4.27542 2.59266 2.59266 2.79429 2.83995 
2.83995 2.84423 2.89519 2.89519 3.03334 2.93004 2.96424 2.78066 2.59645 
2.46419 2.25034 2.40224 2.49893 2.44478 3.09592 3.15737 3.78548 4.07359 
4.39057 3.81723 3.40265 3.31056 3.02414 3.50106 3.50106 3.60856 3.43959 
3.37984 3.52342 3.26461 3.26461 2.96891 2.87073 3.04189 3.03946 2.95985 
2.7522 2.52518 2.67913 2.58779 2.85042 2.85042 3.05689 3.14907 3.10339 
3.22957 3.09163 2.99272 3.14367 2.96008 2.97868 3.31094 3.14748 3.19 
3.18352 3.18352 3.52091 3.60644 3.23847 3.68672 3.15731 5.60387 5.56511 
4.67859 4.43949 4.43949 3.57768 3.20071 3.11028 3.09209 2.90516 2.96494 
3.18062 3.29253 3.36291 3.16552 3.08045 3.02679 3.09335 3.36931 3.48997 
3.48997 3.25962 3.43364 3.33241 3.0715 2.66917 2.57267 2.27069 2.39069 
2.63769 2.85889 2.8496 2.98273 3.11777 3.23712 3.27467 2.77838 2.6606 
2.62384 2.61248 2.58398 2.67365 2.59147 2.46741 2.46741 2.43365 2.53289 
2.44329 2.81872 2.76602 2.8801 3.24709 3.09497 3.19596 3.18561 2.94963 
2.91998 3.00595 2.95323 2.94902 2.79943 2.88609 2.79686 2.69866 2.6742 
2.63522 2.56992 2.47928 2.27882 2.27882 2.2221 2.00998 2.00998 2.12748 
2.24239 2.30735 2.86204 3.10324 3.09561 3.0111 2.87286 2.84227 2.6394 
2.55779 2.36412 2.2729 2.19104 2.21655 2.18198 2.25383 2.26977 2.5478 
2.71092 2.59231 2.16424 1.72434 1.86732 4.98093 4.93932 4.60619 4.33481 
4.53242 3.84569 3.38007 3.21344 2.29203 5.29246 5.13555 4.77169 3.71709 
3.21318 2.97923 3.28336 3.81355 4.15668 3.98503 3.74894 3.60003 3.49145 
3.38909 3.31061 3.11411 3.28208 3.02561 2.92878 2.78435 2.75871 2.61922 
2.18827 2.2229 1.85424 1.85549 1.87794 1.77674 1.79358 1.80076 1.85324 
2.85531 2.45554 2.60947 2.88252 3.14621 3.02588 2.9488 2.67833 2.54748 
2.51868 2.70085 2.51986 
rRFP 1 642 double
4587.74 3985.28 4042.59 4149.65 3091.63 4937.42 5642.04 4824.07 5538.46 
5718.09 5786.84 5993.47 4776.01 4983.06 4895.7 4139.09 6437.42 4071.36 
4665.05 6317.22 6503.84 5928.1 5236.14 5862.43 4936.78 6076.67 3140.01 
3728.53 4637.22 6101.09 6839.04 5031.52 6124.47 3906.49 4623.1 4965.48 
4447.42 5410.37 4855.8 5262.59 4832.58 5507.33 4632.69 6722.42 5148.36 
5180.83 5178.41 3904.23 6155.96 5993.37 5673.91 5037.9 6319.46 6192.15 
6133.04 5717.84 5514.98 5514.98 5074.46 4978.98 4969.84 5090.2 5982.41 
5605.06 5392.07 5065.28 5065.28 4970.35 4970.35 4947.78 5015.69 4997.51 
5141.07 5394.9 5394.9 5496.02 5486.98 5359.56 5211.59 5174.65 4963.74 
4854.62 5331.86 5176.37 5804.01 5822.19 5845.73 5908.11 5979.41 5893.12 
5843.3 5755.64 6170.25 6217.96 5022.84 4767.57 4579.69 4757.26 4929.63 
5419.31 5438.07 5274.93 5403.9 5403.9 5393.69 5372.23 5372.23 5350.06 
5585.41 5585.41 5802.19 6012.3 6012.3 6011.58 6011.07 5687.41 5339.74 
4923.49 4805.33 4605.93 4574.99 4585.84 4610.59 4739.72 4972.51 4842.22 
5098.89 5134.9 4963.38 4734.9 4685.59 4957.7 5139.22 5336.1 5409.07 
5320.88 4950.02 5135.41 4960.54 4938.77 4916.36 5059.57 5013.6 5013.6 
4893.05 5240.58 5172.77 5412.44 5412.44 5555.78 5405.32 5496.02 5224.04 
4857.86 5019.06 4812.3 4842.81 4730.75 4740.44 4904 4780.93 4715.28 
4563.4 4529.47 4791.17 5005.31 5005.31 5479.25 5446.43 5657.28 5943.06 
5302.42 5139.86 4854.7 5863.31 4982.31 4859.2 4924.23 5011.91 5855.48 
6112.42 5365.7 6722.42 6661.64 6522.06 6043.1 6448.85 6178.94 6105.85 
6419.68 6293.48 6640.27 5042.28 5144.07 5804.48 6088.1 5946.48 5792.84 
5673.22 5661.77 5423.41 5343.74 4882.69 4372.95 4133 4518.35 4569.69 
4692.89 4723.62 5131.14 5531.53 5354.23 5246.86 5031.86 4817.85 4619.04 
4718.93 4972.68 5280.14 5275.46 5089.37 4667.69 4449.4 4433.05 4390.67 
4550.98 4943.95 5084.58 5342.4 5807.79 5797.06 6178.05 5248.35 5349.91 
5001.09 4981.26 4981.26 5423.23 5417.07 5383.54 5293.23 5560.41 5425.67 
4364.8 4442.22 4046.44 4191.43 4191.43 4520.23 5033.93 5014.84 4272.12 
4187.51 4156.21 4156.21 4228.09 4266.11 4243.63 4233.58 4280.52 4280.52 
4542.63 4685.98 4755.12 5202.31 5271.38 5494.93 5460.23 4962.44 5600.95 
5600.95 5691.64 6214.63 6018.33 6167.86 6031.04 5545.26 4649.57 4886.14 
4667.14 4008.42 4625.38 4640.98 4171.19 4049.95 4182.98 4473.56 4864.67 
6527.14 6428.75 5808.51 5569.9 5023.05 4160.09 4079.77 4215.86 4473.65 
4478.37 4280.56 4269.91 4140.33 4192.12 4192.12 4217.02 4217.02 4171.44 
4092.41 3917.8 5583.36 5411.17 5622.73 5502.47 5345.44 4997.6 5069.22 
5363.81 5444.12 5554.23 5671.54 6645.06 6832.65 5279.72 3881.86 4136.84 
4136.84 4582.41 4582.41 4667.36 4648.53 4516.51 4441.48 4230.51 4133.19 
4105.56 4228.27 4330.8 4661.72 5860.56 5724.02 5777.74 6190.12 6062.6 
5955.17 5996.02 5942.49 5965.63 6116.72 6174.79 6420.37 6136.35 5526.28 
6109.8 5524.35 4666.22 4411.69 4209.72 3975.69 3855.7 3833.02 3887.09 
3842.79 4007.96 4201.28 4128.37 4108.57 4196.01 4196.01 4194.09 3964.25 
3964.25 3935.44 4029.63 3879.6 4461.64 4274.98 4844.23 4790.2 5357.09 
5295.58 5213.96 5276.73 5255.74 5355.59 5549.3 5862.74 5975.42 5882.89 
5381.98 5438.32 5201.23 4848.75 4809.23 4775.63 4579.02 4646.04 4688.25 
4878.44 5077.25 5211.22 5278.43 5207.3 4850.68 4680.93 4634.69 4379.88 
4336.2 4304.05 4292.67 4223.4 4144.94 4161.52 4207.4 4203.11 4203.11 
4290.64 4170.23 4217.47 4052.15 4070.14 4012.98 3936.4 3930.6 3963.95 
6118.02 5635 6310.68 5985.15 5773.81 4395.83 4395.83 4560.94 4598.33 
4598.33 4601.83 4643.56 4643.56 4756.69 4672.1 4700.11 4549.78 4398.93 
4290.63 4115.51 4239.9 4319.07 4274.73 4807.94 4858.26 5372.6 5608.53 
5868.1 5398.6 5059.11 4983.7 4749.16 5139.7 5139.7 5227.73 5089.36 
5040.43 5158.01 4946.07 4946.07 4703.93 4623.53 4763.69 4761.7 4696.51 
4526.47 4340.57 4466.64 4391.84 4606.9 4606.9 4775.98 4851.46 4814.05 