# vtk DataFile Version 3.0
vtk output
ASCII
DATASET POLYDATA
POINTS 412 float
2.53303 -0.0543846 2.17599 3.22382 -0.266243 1.76248 5.15483 0.684143 1.44304 
5.52423 0.755287 1.5528 5.26919 0.858129 1.55443 1.01063 -0.206906 1.85995 
5.03511 0.849333 1.44049 3.54192 -0.60999 1.33934 3.39067 -0.447545 1.57161 
3.58456 -0.113107 1.52909 3.72421 -0.263787 1.33643 5.60559 0.345116 1.18761 
0.433504 -0.284831 1.22398 1.58489 1.08216 1.10049 3.65544 -1.01431 0.811088 
0.0460846 0.358589 0.842351 1.6801 1.23219 0.343248 1.92892 -1.67398 0.555321 
-0.0909554 -0.50582 0.532809 3.60408 0.593872 0.183077 -0.586877 -0.0182804 0.185253 
2.24449 -1.65439 0.262881 0.173335 0.56647 0.21196 2.3205 -1.54906 0.122096 
-0.491085 0.252677 -0.128034 1.05527 -1.18045 -0.258105 -0.214019 0.331016 -0.631734 
1.68143 -1.50379 -0.657439 0.959137 -1.35401 -0.638681 0.0398411 -1.16021 -0.816338 
-0.400781 -0.369493 -0.874866 0.481616 -0.324532 -1.1218 1.54887 0.353295 -1.23948 
1.70803 0.395218 -1.25112 1.65498 0.381244 -1.24724 1.60192 0.367269 -1.24336 
0.439556 -0.377243 -1.10711 0.394199 -0.413713 -1.07899 0.35029 -0.449513 -1.02864 
0.300177 -0.460302 -0.973048 0.245784 -0.457245 -0.926103 0.198568 -0.48481 -0.891329 
0.152606 -0.517022 -0.856149 0.109618 -0.556238 -0.805507 0.0652175 -0.588201 -0.748059 
0.0222869 -0.627628 -0.697398 -0.0228831 -0.664369 -0.669257 -0.0624718 -0.718427 -0.654544 
-0.0882853 -0.779911 -0.647186 -0.0875042 -0.836265 -0.641584 -0.0755406 -0.890434 -0.644178 
-0.0622969 -0.945557 -0.661637 -0.0482232 -1.0024 -0.701317 -0.0248579 -1.05744 -0.749077 
0.0135719 -1.10787 -0.790537 0.545319 -0.350032 -1.12223 0.605067 -0.360869 -1.12394 
0.665332 -0.375637 -1.13273 0.720505 -0.375552 -1.15767 0.772497 -0.36971 -1.20539 
0.826267 -0.372476 -1.25981 0.884309 -0.389061 -1.30557 0.939928 -0.39063 -1.33036 
0.996235 -0.390727 -1.34044 1.05634 -0.402892 -1.34203 1.11215 -0.401131 -1.35227 
1.1647 -0.39133 -1.37806 1.21622 -0.383738 -1.42594 1.26996 -0.386387 -1.48035 
1.328 -0.402982 -1.52612 1.38362 -0.404551 -1.55092 1.43996 -0.404754 -1.56098 
1.50054 -0.418679 -1.56242 1.55962 -0.425047 -1.55709 1.61814 -0.425294 -1.53744 
1.66935 -0.392431 -1.49841 1.72222 -0.363689 -1.45159 1.77689 -0.34364 -1.41143 
1.83145 -0.329216 -1.39307 1.88795 -0.325973 -1.38858 1.94803 -0.338051 -1.39018 
2.00418 -0.335544 -1.39305 2.05773 -0.323427 -1.39677 2.11081 -0.309558 -1.40063 
2.16389 -0.29569 -1.4045 2.21745 -0.283572 -1.40822 2.27394 -0.280328 -1.40372 
2.33474 -0.29103 -1.39059 2.39274 -0.287338 -1.36386 2.45026 -0.281894 -1.33728 
2.50896 -0.278801 -1.30307 2.55896 -0.245448 -1.27893 2.6077 -0.207449 -1.2552 
2.65394 -0.164198 -1.24679 2.70456 -0.137176 -1.23695 2.75812 -0.11903 -1.21891 
2.81268 -0.0985673 -1.1788 2.86454 -0.0661015 -1.13229 2.90986 -0.00935423 -1.08792 
2.95435 0.0484072 -1.05107 3.00312 0.0923492 -1.00558 3.05137 0.140222 -0.953006 
3.1044 0.172401 -0.891627 3.16002 0.194968 -0.829409 3.21564 0.217534 -0.7672 
3.26903 0.250353 -0.698448 3.31916 0.299306 -0.616257 3.37375 0.33777 -0.510871 
3.42881 0.379988 -0.386012 3.47965 0.448377 -0.233754 3.5351 0.525476 -0.0428429 
0.47771 -0.270826 -1.14935 0.477114 -0.216248 -1.17714 0.44788 -0.167921 -1.18806 
0.424313 -0.116809 -1.18462 0.409207 -0.0621769 -1.16703 0.393651 -0.00830894 -1.15679 
0.368222 0.0423123 -1.15321 0.327728 0.0883194 -1.15592 0.300006 0.137577 -1.15956 
0.270894 0.184594 -1.1629 0.220057 0.215481 -1.16361 0.162225 0.227029 -1.16207 
0.101219 0.242954 -1.16081 0.0422924 0.252758 -1.15158 -0.0168241 0.270164 -1.11629 
-0.0708368 0.278446 -1.02218 -0.130981 0.293346 -0.853927 -0.399719 -0.31254 -0.880614 
-0.376172 -0.249665 -0.888005 -0.35131 -0.187089 -0.902882 -0.341653 -0.12981 -0.931419 
-0.327698 -0.0726915 -0.975051 -0.320141 -0.0166115 -1.01083 -0.303923 0.0454812 -1.00586 
-0.289685 0.114725 -0.935959 -0.256764 0.206885 -0.802134 1.01134 -1.36304 -0.737101 
1.0692 -1.38297 -0.79743 1.12813 -1.39278 -0.806647 1.19093 -1.40488 -0.771115 
1.25261 -1.40879 -0.72143 1.31526 -1.41831 -0.678695 1.37249 -1.41381 -0.659464 
1.42689 -1.40281 -0.655651 1.4831 -1.40051 -0.658507 1.5436 -1.41457 -0.659927 
1.60141 -1.42602 -0.661481 1.65224 -1.45691 -0.660766 0.901956 -1.35268 -0.636142 
0.838725 -1.32894 -0.635563 0.775366 -1.3027 -0.627773 0.716494 -1.28706 -0.596778 
0.655912 -1.25503 -0.530087 0.598029 -1.22294 -0.426253 0.550426 -1.2225 -0.297388 
0.512478 -1.24601 -0.151667 0.485121 -1.25171 0.00668709 0.493406 -1.23414 0.183402 
0.537086 -1.1964 0.363892 0.592577 -1.15343 0.528405 0.659244 -1.15412 0.65951 
0.72951 -1.1778 0.755472 0.797103 -1.1976 0.828825 0.859654 -1.20273 0.886037 
0.923174 -1.21347 0.936309 0.984537 -1.21823 0.978628 1.04806 -1.22897 1.0289 
1.11024 -1.23473 1.07875 1.17601 -1.25582 1.12249 1.24074 -1.27912 1.14416 
1.30083 -1.28921 1.14981 1.36179 -1.30251 1.15575 1.41902 -1.298 1.17498 
1.47517 -1.28343 1.21561 1.53426 -1.27773 1.26446 1.59949 -1.29685 1.30803 
1.6637 -1.31818 1.32952 1.72107 -1.31617 1.34155 1.77618 -1.30381 1.36009 
1.83443 -1.29699 1.4014 1.89691 -1.30391 1.45135 1.95481 -1.29782 1.48529 
2.00921 -1.28682 1.4891 2.0647 -1.2859 1.47152 2.12443 -1.2987 1.46255 
2.18093 -1.29547 1.46704 2.23551 -1.28114 1.48541 2.28928 -1.2658 1.49627 
2.34265 -1.25098 1.49975 2.39521 -1.23515 1.49571 2.44516 -1.2097 1.49083 
2.49122 -1.16979 1.48468 2.54168 -1.1462 1.47996 2.59733 -1.14184 1.47693 
2.65738 -1.1538 1.47532 2.71353 -1.15131 1.47245 2.76708 -1.13919 1.46873 
2.82051 -1.12458 1.47223 2.87425 -1.10913 1.48307 2.92834 -1.09295 1.50128 
2.98173 -1.07824 1.50477 3.03444 -1.065 1.49353 3.08646 -1.05324 1.46757 
3.1388 -1.04063 1.44896 3.19098 -1.02543 1.43755 3.24076 -0.997289 1.43986 
3.28419 -0.941622 1.45462 3.32522 -0.873013 1.4831 3.36546 -0.803419 1.50257 
3.40643 -0.736892 1.48804 3.45963 -0.673454 1.42853 1.0072 -1.26723 -0.448393 
-0.134927 0.406542 -0.499902 -0.0721567 0.460364 -0.384502 -0.019692 0.514144 -0.276082 
0.0371849 0.551307 -0.145328 0.101244 0.570757 0.0211381 -0.315404 0.35801 -0.426994 
-0.396354 0.338742 -0.260312 -0.561466 0.139907 0.0221662 -0.476881 0.163806 0.0217893 
-0.496473 0.0848871 0.124498 -0.693999 -0.176993 0.00343282 -0.748197 -0.281241 -0.137122 
-0.756336 -0.350499 -0.216265 -0.755008 -0.409174 -0.235799 -0.754305 -0.463724 -0.208009 
-0.720075 -0.504694 -0.130989 -0.677898 -0.535071 -0.00322474 -0.621961 -0.534018 0.158007 
-0.570335 -0.478313 0.313972 -0.526723 -0.403373 0.431132 -0.498258 -0.333614 0.489898 
-0.498998 -0.276609 0.487207 -0.515123 -0.223916 0.427535 -0.542531 -0.148857 0.321442 
-0.357673 0.290096 0.13028 -0.264708 0.302931 0.340768 -0.198284 0.320602 0.484947 
-0.139578 0.340466 0.577102 -0.0796182 0.35097 0.655225 -0.0153822 0.347636 0.741988 
2.28526 -1.61097 0.197012 0.1435 0.518735 0.41189 0.112633 0.46879 0.589735 
0.0800471 0.415164 0.730773 0.215736 0.619927 0.20463 0.262073 0.658799 0.198576 
0.307067 0.702645 0.192087 0.35356 0.738924 0.17883 0.398053 0.778598 0.150427 
0.445892 0.799832 0.101357 0.495535 0.812363 0.0456091 0.543374 0.833597 -0.00346063 
0.587866 0.873271 -0.031864 0.634388 0.909444 -0.0451115 0.679912 0.951327 -0.0514289 
0.729843 0.976875 -0.0563178 0.782396 0.992706 -0.060357 0.835421 1.00679 -0.064243 
0.888474 1.02076 -0.0681198 0.941528 1.03474 -0.0719967 0.994582 1.04871 -0.0758734 
1.04764 1.06268 -0.0797503 1.10069 1.07666 -0.0836271 1.15374 1.09063 -0.0875039 
1.20683 1.1045 -0.0913714 1.26038 1.11662 -0.0950858 1.31653 1.11913 -0.0979598 
1.37661 1.10705 -0.0995583 1.4331 1.11029 -0.0950672 1.48818 1.12564 -0.0668807 
1.54563 1.14869 0.0125883 1.60882 1.18302 0.155243 2.18848 -1.64332 0.316555 
2.13363 -1.63856 0.363351 2.08227 -1.64474 0.418534 2.03159 -1.6534 0.473944 
1.9806 -1.66296 0.521993 1.76477 1.24395 0.395251 1.83243 1.2472 0.421575 
1.89439 1.23272 0.417644 1.95362 1.22339 0.413326 2.01505 1.20833 0.419417 
2.07538 1.20137 0.43965 2.13718 1.18694 0.453106 2.19732 1.17665 0.458781 
2.2615 1.14939 0.45851 2.3278 1.11427 0.458927 2.3915 1.08877 0.458502 
2.44871 1.08735 0.455972 2.50627 1.08665 0.460807 2.571 1.06337 0.482468 
2.63933 1.03277 0.527047 2.70545 1.01243 0.578169 2.76472 1.01542 0.61981 
2.82296 1.0162 0.639366 2.88666 0.990704 0.638941 2.9519 0.953481 0.617263 
3.01354 0.923562 0.572666 3.06869 0.917713 0.525955 3.12486 0.914076 0.501339 
3.18963 0.890681 0.523009 3.25815 0.857388 0.560404 3.32648 0.820765 0.583231 
3.39237 0.778576 0.552078 3.45681 0.730153 0.469452 3.52481 0.670239 0.33813 
3.69383 0.561227 0.341141 3.75124 0.526554 0.476068 3.81293 0.494045 0.575809 
3.87831 0.461226 0.653043 3.92562 0.422829 0.72175 3.94348 0.376028 0.785218 
3.98987 0.335449 0.831821 4.05449 0.297737 0.85493 4.12196 0.259482 0.863061 
4.18964 0.22128 0.871176 4.25794 0.184753 0.893995 4.32662 0.154905 0.945938 
4.39014 0.150204 1.01797 4.44029 0.19906 1.10016 4.48357 0.26938 1.16563 
4.52484 0.341116 1.20869 4.56515 0.408357 1.22244 4.60726 0.464485 1.22231 
4.65121 0.50483 1.21622 4.68158 0.557221 1.20956 4.69477 0.615265 1.20313 
4.72295 0.677793 1.20302 4.76485 0.733309 1.22066 4.82063 0.767499 1.27052 
4.90335 0.80052 1.34812 -0.0179644 -0.529537 0.665912 0.0524055 -0.543536 0.798176 
0.117497 -0.539984 0.921465 0.179325 -0.530367 1.02195 0.22882 -0.48309 1.08943 
0.27455 -0.428406 1.1315 0.325932 -0.394229 1.16792 0.379838 -0.355666 1.19881 
1.6349 1.21086 0.58348 1.61005 1.17461 0.789484 1.60394 1.13172 0.955536 
0.101066 0.322213 0.910497 0.131463 0.278714 0.973049 0.149876 0.230767 1.0217 
0.167151 0.180582 1.04827 0.193269 0.131434 1.05942 0.233666 0.0854014 1.06214 
0.259784 0.036254 1.07329 0.276953 -0.0139588 1.09987 0.29316 -0.0631328 1.14129 
0.310959 -0.112176 1.18014 0.338659 -0.16123 1.20363 0.386352 -0.214216 1.21416 
3.64264 -0.958424 0.835904 3.63264 -0.899864 0.882678 3.63337 -0.835928 0.956733 
3.64647 -0.764305 1.06223 3.62302 -0.690623 1.19159 0.530063 -0.303709 1.32819 
0.601642 -0.294852 1.42829 0.661299 -0.273328 1.52271 0.71804 -0.251963 1.59493 
0.774346 -0.233952 1.65012 0.832557 -0.227026 1.69142 0.895048 -0.233948 1.74136 
0.953947 -0.225548 1.79738 5.55472 0.394206 1.25215 5.51674 0.446574 1.31575 
5.4645 0.493315 1.38059 5.40522 0.527907 1.44697 5.34757 0.54631 1.50248 
5.28479 0.577708 1.52711 5.21899 0.622644 1.50333 3.71017 -0.210165 1.33918 
3.69501 -0.155763 1.3568 3.6704 -0.105912 1.39767 3.62648 -0.0841913 1.45717 
5.08232 0.753711 1.44102 5.21824 0.776329 1.49296 3.55025 -0.170417 1.63332 
3.51423 -0.231412 1.70072 3.47545 -0.298299 1.70923 3.43392 -0.37108 1.65883 
3.52085 -0.0875986 1.52952 3.46114 -0.0768769 1.53123 3.40106 -0.0648083 1.53283 
3.34882 -0.0799509 1.54424 3.30681 -0.129422 1.58097 3.26732 -0.19323 1.65626 
3.46065 -0.515524 1.45888 3.32882 -0.397289 1.66636 3.2711 -0.340484 1.73044 
5.172 0.86962 1.49726 5.31258 0.907527 1.54746 5.3638 0.920905 1.54373 
5.41537 0.894303 1.54398 5.45406 0.850036 1.5466 5.49649 0.804653 1.54916 
3.13254 -0.236069 1.77118 3.06678 -0.232306 1.79624 3.01327 -0.237723 1.84399 
2.9594 -0.23485 1.89839 2.90088 -0.216495 1.944 2.84264 -0.205219 1.96795 
2.78222 -0.187847 1.98394 2.72345 -0.174608 2.00772 2.66131 -0.142823 2.05215 
2.59723 -0.099848 2.11047 
LINES 35 484
4 33 34 35 32 
21 31 36 37 38 39 40 41 42 43 44 45 46 47 48 49 50 51 52 53 54 29 
58 31 55 56 57 58 59 60 61 62 63 64 65 66 67 68 69 70 71 72 73 74 75 76 77 78 79 80 81 82 83 84 85 86 87 88 89 90 91 92 93 94 95 96 97 98 99 100 101 102 103 104 105 106 107 108 109 110 19 
19 31 111 112 113 114 115 116 117 118 119 120 121 122 123 124 125 126 127 26 
11 30 128 129 130 131 132 133 134 135 136 26 
14 28 137 138 139 140 141 142 143 144 145 146 147 148 27 
65 28 149 150 151 152 153 154 155 156 157 158 159 160 161 162 163 164 165 166 167 168 169 170 171 172 173 174 175 176 177 178 179 180 181 182 183 184 185 186 187 188 189 190 191 192 193 194 195 196 197 198 199 200 201 202 203 204 205 206 207 208 209 210 211 7 
3 28 212 25 
7 26 213 214 215 216 217 22 
4 26 218 219 24 
3 24 220 20 
4 24 221 222 20 
16 20 223 224 225 226 227 228 229 230 231 232 233 234 235 236 20 
8 24 237 238 239 240 241 242 15 
5 22 244 245 246 15 
30 22 247 248 249 250 251 252 253 254 255 256 257 258 259 260 261 262 263 264 265 266 267 268 269 270 271 272 273 274 16 
31 16 280 281 282 283 284 285 286 287 288 289 290 291 292 293 294 295 296 297 298 299 300 301 302 303 304 305 306 307 308 19 
27 19 309 310 311 312 313 314 315 316 317 318 319 320 321 322 323 324 325 326 327 328 329 330 331 332 333 6 
10 18 334 335 336 337 338 339 340 341 12 
5 16 342 343 344 13 
14 15 345 346 347 348 349 350 351 352 353 354 355 356 12 
7 14 357 358 359 360 361 7 
10 12 362 363 364 365 366 367 368 369 5 
9 11 370 371 372 373 374 375 376 2 
6 10 377 378 379 380 9 
3 6 381 2 
3 2 382 4 
6 9 383 384 385 386 8 
8 9 387 388 389 390 391 392 1 
3 8 393 7 
4 8 394 395 1 
3 6 396 4 
7 4 397 398 399 400 401 3 
12 1 402 403 404 405 406 407 408 409 410 411 0 
9 23 243 21 275 276 277 278 279 17 

POINT_DATA 412
SCALARS DY_raw double
LOOKUP_TABLE default
1317.9 1396.34 1168.97 1651.25 1283.67 1324.84 1289.98 1643.72 1619.37 
1616.72 1885.24 2219.74 946.284 2466.51 1428.46 1634.51 963.867 1668.25 
862.858 1340.6 1523.24 1054.58 1287.49 815.96 1009.44 2107.6 946.755 
1156.79 2161.57 1596.74 1460.64 1343.54 1511.37 938.04 938.04 1214.88 
1279.05 1239.26 1189.48 1273.68 1016.35 1086.22 1038.83 968.94 1051.94 
1038.3 1017.51 1142.31 1249.84 1414.77 1293.95 1650.75 1505.2 1504.72 
1690.86 1319.52 1529.39 1529.39 1678.15 1861.16 1783.78 1739.46 1698.63 
1879.97 1615.69 1615.69 1542.75 1364.18 1193.6 1175.14 1029.68 1092.07 
1016.63 1067.84 1224.65 1172.95 1309.86 1305.33 1163.56 1163.56 1125.17 
1203.31 1203.31 1280.57 1230.29 1230.29 1092.15 1067.84 1173.52 1334.83 
1526.03 1430.81 1239.17 1239.17 1045.5 1150.45 1233.16 1284.22 1208.22 
1208.22 942.965 1034.56 1151.75 1067.79 1024.11 1007.69 1120.9 1341.31 
1141.88 1089.58 1240.73 1355.05 1355.05 1363.85 1516.61 1796.46 1823.31 
1823.31 1678.15 1628.62 1376.04 1227.32 1117.11 1117.11 1005.54 1000.35 
842.338 928.857 1460.64 1395.84 1366.94 1314.95 1257.63 1130.62 1087.78 
1083.99 1030.64 1638.2 1433.31 1567.04 1434.1 1716.18 1862.38 1487.44 
1735.97 1462.28 1227.78 1222.98 1247.26 1913.1 1655.47 1625.84 1465.62 
1354.55 1018.51 1023.14 1006.01 1074.41 1106.33 1144.17 1282.14 1649.05 
1689.39 1651.03 1944.33 1728.92 1469.69 1594.34 1667.93 1725.6 1725.6 
1373.22 1204.85 1309.31 1394.11 1533.45 1647.52 1474.94 1474.94 1468.22 
1533.87 1796.31 1746.34 1857.01 1857.01 1697.61 1697.61 1607.5 1584.76 
1511.9 1450.89 1497.45 1497.45 1675.08 1728.02 1728.02 1410.97 1248.18 
1367.11 1247.34 1247.34 1301.71 1401.26 1401.26 1345.53 1381.05 1381.05 
1337.33 1605.15 1725.77 1844.05 1700.75 2623.13 994.735 940.746 1066.44 
1165.3 1038.61 984.863 1001.23 1197.72 1088.99 1236.57 1824.72 1630.78 
1513.22 1532.11 1588.81 1684.23 1584.8 1423.11 1673.84 1661.69 1713.38 
1837.98 1769.29 1396.51 1069.46 1301.62 1589.26 1746.56 1689.3 1888.76 
929.223 1419.94 1310.51 1470.51 1182.64 994.56 994.56 933.306 1012.81 
949.315 1099.29 1189.76 1076.47 1099.66 1112.63 1112.63 1099.44 983.097 
1025.57 1029.68 1029.68 1043.04 1039.92 1039.92 1128.42 1174.94 1174.94 
1179.76 1179.76 1161.11 1033.53 927.923 1164.72 1242.93 1381.31 1241.14 
1353.23 975.948 1045.99 1016.62 1147.46 1141.79 1322.04 1322.04 1299.75 
1525.84 1395.16 1362.03 1514.08 1359.94 1522.19 1522.19 1453.88 1459.39 
1480.54 1500.57 1485.84 1643.37 1820.79 1764.03 2040.77 2089.94 2276.64 
1817.5 1915.79 1826.24 1432.31 1300.39 1276.53 1398.37 1377.38 1539.93 
1514.07 1676.33 1676.33 1473.46 1084 1071.93 1049.47 1074.6 1125.69 
1199.75 1259.31 1376.69 1423.43 1427.49 1312.41 1203.77 1142.08 1183.68 
1333.24 956.704 1185.59 1329.55 1299.42 1476.06 1203.61 960.741 949.8 
1333.17 1444.84 1614.93 1688.95 1776.51 1656.82 1634.45 1634.45 1572.4 
1549.16 1685.83 1407.81 1269.89 1189.85 1069.1 1287.48 1255.26 1290.98 
1273.78 1379.41 1190.77 1403.68 1412.48 1732.89 1360.92 1478.08 1217.33 
1188.66 2492.78 2321.1 2160.66 1843.05 1565.07 1423.44 1235.64 1796.19 
1688.51 1543.56 1514.33 1171.83 1232.31 1420.39 1441.19 1461.43 1399.53 
1388.59 1367.08 1367.08 1215.29 1194.22 1186.09 1471.16 1430.79 1403.39 
1177.21 1194.13 1106.07 1093.59 1191.53 1191.53 1334.59 1387.64 1350.82 
1361.17 1281.99 1174.09 1286.36 1239.97 1272.03 1340.68 
FIELD FieldData 7
DY_minmax 1 412 double
0.277752 0.321152 0.195338 0.462212 0.258809 0.281589 0.262302 0.458046 0.444571 
0.4431 0.591689 0.776787 0.0721152 0.913334 0.338928 0.452947 0.0818446 0.471615 
0.0259509 0.29031 0.391378 0.132042 0.260925 0 0.107061 0.714735 0.0723755 
0.188601 0.744599 0.432049 0.356734 0.291936 0.384809 0.067553 0.067553 0.220742 
0.256253 0.234234 0.20669 0.253278 0.110885 0.149548 0.123326 0.0846521 0.13058 
0.123032 0.111528 0.180587 0.240091 0.331354 0.264496 0.461933 0.381393 0.381126 
0.484131 0.278648 0.39478 0.39478 0.477098 0.578367 0.535548 0.511019 0.48843 
0.588773 0.442534 0.442534 0.402169 0.303356 0.208967 0.198753 0.118263 0.152785 
0.111042 0.139376 0.22615 0.197543 0.273301 0.270794 0.192345 0.192345 0.171104 
0.214343 0.214343 0.257092 0.229269 0.229269 0.15283 0.139381 0.197857 0.287118 
0.39292 0.340231 0.234186 0.234186 0.127015 0.18509 0.230856 0.259115 0.217056 
0.217056 0.0702784 0.12096 0.185813 0.139353 0.115178 0.106095 0.16874 0.290706 
0.180349 0.151407 0.23505 0.298306 0.298306 0.303178 0.387705 0.542564 0.557422 
0.557422 0.477097 0.449689 0.309924 0.227629 0.166645 0.166645 0.104905 0.102031 
0.014596 0.0624718 0.356734 0.320878 0.304886 0.276118 0.2444 0.174117 0.150411 
0.148317 0.118796 0.454986 0.341611 0.415611 0.342051 0.498142 0.579039 0.371567 
0.509091 0.357645 0.227884 0.225227 0.238663 0.607107 0.464546 0.448151 0.359489 
0.298033 0.112084 0.114642 0.105162 0.143013 0.160677 0.181617 0.257962 0.460993 
0.483316 0.462089 0.624389 0.505191 0.361746 0.430719 0.47144 0.503352 0.503352 
0.308362 0.215192 0.272995 0.319921 0.397025 0.460144 0.364648 0.364648 0.360932 
0.397256 0.542479 0.514829 0.57607 0.57607 0.487865 0.487865 0.437999 0.425417 
0.385098 0.351338 0.377104 0.377104 0.475399 0.504688 0.504688 0.329253 0.239171 
0.30498 0.238705 0.238705 0.268789 0.323879 0.323879 0.29304 0.312693 0.312693 
0.288501 0.436699 0.503444 0.568897 0.489601 1 0.0989253 0.0690506 0.138606 
0.193307 0.123205 0.0934628 0.102517 0.21125 0.151083 0.232748 0.558198 0.450884 
0.385833 0.396286 0.427659 0.480458 0.42544 0.335966 0.47471 0.467988 0.496589 
0.565536 0.527527 0.321251 0.140277 0.26874 0.427905 0.51495 0.483265 0.59364 
0.0626742 0.334217 0.273663 0.362199 0.202906 0.0988285 0.0988285 0.0649338 0.108928 
0.0737924 0.156784 0.206842 0.144153 0.156986 0.164163 0.164163 0.156866 0.0924857 
0.11599 0.118264 0.118264 0.125657 0.123928 0.123928 0.172899 0.198645 0.198645 
0.201309 0.201309 0.190989 0.120392 0.0619551 0.192988 0.236267 0.312838 0.235276 
0.2973 0.0885298 0.127289 0.111036 0.183437 0.180301 0.280043 0.280043 0.267708 
0.392816 0.320499 0.302172 0.386306 0.301013 0.390796 0.390796 0.352996 0.356042 
0.367747 0.378831 0.370681 0.457849 0.556026 0.524615 0.677753 0.704963 0.808272 
0.554208 0.608593 0.559042 0.341058 0.268059 0.25486 0.322277 0.310662 0.400613 
0.386302 0.47609 0.47609 0.36383 0.148319 0.141639 0.129213 0.143122 0.17139 
0.21237 0.245331 0.310281 0.336143 0.338391 0.27471 0.214594 0.180461 0.203478 
0.286237 0.0778813 0.204538 0.284197 0.267526 0.365267 0.214504 0.0801149 0.0740607 
0.2862 0.34799 0.442111 0.48307 0.531522 0.465292 0.452914 0.452914 0.418578 
0.40572 0.481343 0.3275 0.251182 0.206894 0.140073 0.260917 0.24309 0.262852 
0.253338 0.311787 0.207401 0.325215 0.330088 0.507387 0.301556 0.366385 0.222099 
0.206236 0.927873 0.832871 0.744092 0.568345 0.414523 0.336151 0.232232 0.542415 
0.482826 0.402622 0.386444 0.196923 0.230388 0.334465 0.345973 0.357172 0.322921 
0.316869 0.304966 0.304966 0.220971 0.209314 0.204812 0.362557 0.340217 0.325058 
0.199897 0.209264 0.160535 0.15363 0.207822 0.207822 0.286986 0.316339 0.295967 
0.301694 0.257878 0.198173 0.260296 0.234627 0.25237 0.290353 
WidthEq 1 412 double
1.57462 2.47466 3.05569 1.48636 2.78199 2.77294 2.77286 2.47897 1.96346 
1.92386 1.46869 1.03009 4.74058 1.28108 2.91741 3.25162 4.53091 2.03576 
3.64857 4.09064 3.72399 3.63475 4.18333 3.05535 5.16698 1.12069 4.87515 
3.26737 2.12039 1.67931 3.61601 3.5604 1.43937 2.30771 2.30771 1.91507 
3.90545 3.64601 3.56241 3.4546 3.58942 3.56335 3.77763 4.01894 4.27923 
4.6242 5.04492 5.15371 4.84912 4.51418 4.65446 3.5266 3.62519 2.99837 
1.66104 3.97912 3.438 3.438 2.89808 2.53975 2.53194 2.24151 2.19777 
2.09619 2.29388 2.29388 2.34501 2.57193 2.66266 2.76603 2.79475 2.80115 
2.97652 2.94357 2.82932 2.92146 2.79748 2.86957 3.15615 3.15615 3.19315 
2.94336 2.94336 3.03401 3.14416 3.14416 3.37108 3.33164 3.28397 2.83726 
2.66825 2.67585 2.71413 2.71413 2.85698 2.78886 2.74064 2.81182 2.90076 
2.90076 3.3258 3.23596 3.18598 3.3535 3.48213 3.67546 3.24625 2.81225 
3.35362 3.69181 4.04727 3.49083 3.49083 3.10084 2.93849 2.47748 2.59028 
2.59028 2.8213 2.77691 3.15282 3.15188 3.01915 3.01915 2.77153 2.96188 
3.61033 4.22132 3.61601 3.8781 4.15743 4.0477 4.08722 3.55391 3.26302 
3.628 4.22465 2.5214 2.50992 2.44586 2.31095 2.08377 2.01907 2.2541 
2.19819 2.53296 2.90981 3.16046 3.14565 2.3331 2.59668 2.66125 2.65899 
3.0396 3.92487 4.41892 5.01556 5.52254 5.76282 5.41631 4.78092 4.26818 
3.9629 3.25137 2.87447 2.94707 2.96427 2.80734 2.73176 2.74157 2.74157 
3.04019 3.14057 2.95142 2.2623 2.04293 1.94191 2.11215 2.11215 2.58384 
2.74213 2.54222 2.71951 2.64559 2.64559 2.58106 2.58106 2.55712 2.40023 
2.46596 2.45298 2.35747 2.35747 2.15325 2.05142 2.05142 2.35559 2.6161 
2.45268 2.57871 2.57871 2.44266 2.20434 2.20434 2.32614 2.28692 2.28692 
2.27625 1.88459 1.84571 1.8717 2.23639 1.55345 4.86508 4.7105 4.39779 
4.1369 4.67016 5.331 5.19063 4.34466 4.70397 3.93567 3.90396 4.70964 
5.2482 4.92914 4.49301 4.39058 4.13131 3.77558 3.48832 3.43599 3.31052 
3.09866 3.28888 3.86602 4.89666 3.82168 3.04365 2.71994 2.91805 2.72694 
3.20946 4.01561 3.91087 3.50633 4.40014 4.52122 4.52122 4.21923 3.68105 
3.78638 2.64841 2.44889 2.49502 2.36839 2.452 2.452 2.59352 2.53126 
2.47014 2.58328 2.58328 2.58768 2.54099 2.54099 2.5007 2.32913 2.32913 
2.09099 2.09099 2.11126 2.50181 3.42076 3.60466 3.59565 3.20515 3.42298 
3.12995 4.97792 5.10288 5.08474 4.47961 4.0655 3.82484 3.82484 3.97788 
3.46117 3.81549 3.92701 3.51042 3.77601 3.56386 3.56386 3.88518 3.9839 
3.92214 3.7606 3.79295 3.29336 2.72079 2.75775 2.36007 2.23925 2.03525 
2.62493 2.72011 3.12081 3.93588 3.90511 3.61524 3.26434 2.89718 2.53941 
2.45064 1.83381 1.83381 1.84546 2.65908 3.1454 3.64542 3.3497 3.03469 
2.98002 2.57073 2.32183 2.29238 2.36212 2.55387 2.84592 2.96026 2.98318 
2.71985 4.40513 4.35563 4.0518 3.90422 3.68336 4.0847 4.62894 4.77187 
3.68852 2.95313 2.257 3.25593 3.03712 3.10963 3.12687 3.12687 3.03623 
3.00904 2.89543 3.22917 3.57687 4.03976 4.54926 3.17233 3.50974 3.37915 
3.2098 2.87294 4.04348 3.5441 3.38747 2.91178 3.22192 3.21471 3.23703 
2.93811 1 1.11698 1.14912 1.29243 1.65003 2.06738 2.67111 1.66932 
1.78328 2.02786 1.93508 3.22631 3.04412 2.04681 2.07887 2.04408 2.29973 
1.83287 1.57308 1.57308 1.66484 2.14625 2.53151 2.36857 2.25402 2.38393 
2.91284 2.69245 2.76283 2.64691 2.15163 2.15163 2.49647 2.34667 2.39597 
2.47441 2.69851 2.86363 3.07097 3.15274 2.83867 2.07818 
rRFP 1 412 double
2586.59 2797.48 2933.62 2565.91 2869.49 2867.37 2867.35 2798.49 2677.7 
2668.42 2561.77 2459 3328.41 2517.81 2901.22 2979.53 3279.28 2694.64 
3072.54 3176.12 3090.21 3069.3 3197.84 2933.54 3428.32 2480.23 3359.94 
2983.22 2714.47 2611.12 3064.91 3051.88 2554.9 2758.36 2758.36 2666.36 
3132.73 3071.94 3052.35 3027.09 3058.68 3052.57 3102.78 3159.32 3220.31 
3301.14 3399.72 3425.21 3353.84 3275.36 3308.23 3043.96 3067.06 2920.19 
2606.84 3149.99 3023.2 3023.2 2896.69 2812.73 2810.9 2742.85 2732.6 
2708.8 2755.12 2755.12 2767.1 2820.27 2841.53 2865.75 2872.48 2873.98 
2915.07 2907.35 2880.58 2902.17 2873.12 2890.01 2957.16 2957.16 2965.83 
2907.3 2907.3 2928.54 2954.35 2954.35 3007.52 2998.28 2987.11 2882.44 
2842.84 2844.62 2853.59 2853.59 2887.06 2871.1 2859.8 2876.48 2897.32 
2897.32 2996.91 2975.86 2964.15 3003.4 3033.54 3078.84 2978.27 2876.58 
3003.43 3082.67 3165.96 3035.58 3035.58 2944.2 2906.16 2798.14 2824.57 
2824.57 2878.7 2868.3 2956.38 2956.16 2925.06 2925.06 2867.04 2911.64 
3063.58 3206.74 3064.91 3126.32 3191.77 3166.06 3175.32 3050.36 2982.2 
3067.72 3207.52 2808.43 2805.74 2790.73 2759.12 2705.89 2690.73 2745.8 
2732.7 2811.14 2899.44 2958.17 2954.7 2764.31 2826.07 2841.2 2840.67 
2929.85 3137.28 3253.04 3392.84 3511.63 3567.93 3486.74 3337.86 3217.72 
3146.19 2979.47 2891.16 2908.17 2912.2 2875.43 2857.72 2860.02 2860.02 
2929.99 2953.51 2909.19 2747.72 2696.32 2672.65 2712.54 2712.54 2823.06 
2860.15 2813.31 2854.85 2837.53 2837.53 2822.41 2822.41 2816.8 2780.04 
2795.44 2792.4 2770.02 2770.02 2722.17 2698.31 2698.31 2769.58 2830.62 
2792.33 2821.86 2821.86 2789.98 2734.14 2734.14 2762.68 2753.49 2753.49 
2750.99 2659.22 2650.11 2656.2 2741.65 2581.63 3357.58 3321.36 3248.09 
3186.96 3311.91 3466.75 3433.86 3235.64 3319.83 3139.81 3132.38 3321.16 
3447.35 3372.59 3270.4 3246.4 3185.65 3102.3 3034.99 3022.73 2993.33 
2943.69 2988.26 3123.49 3364.98 3113.1 2930.8 2854.95 2901.37 2856.59 
2969.65 3158.54 3134 3039.21 3248.64 3277.01 3277.01 3206.25 3080.15 
3104.83 2838.19 2791.44 2802.25 2772.58 2792.17 2792.17 2825.33 2810.74 
2796.42 2822.93 2822.93 2823.96 2813.02 2813.02 2803.58 2763.38 2763.38 
2707.58 2707.58 2712.33 2803.84 3019.16 3062.25 3060.14 2968.64 3019.68 
2951.02 3384.02 3413.3 3409.05 3267.26 3170.23 3113.84 3113.84 3149.7 
3028.63 3111.65 3137.78 3040.17 3102.4 3052.69 3052.69 3127.98 3151.11 
3136.64 3098.79 3106.37 2989.31 2855.15 2863.81 2770.63 2742.32 2694.52 
2832.69 2854.99 2948.88 3139.86 3132.65 3064.73 2982.51 2896.48 2812.65 
2791.85 2647.32 2647.32 2650.05 2840.69 2954.64 3071.8 3002.51 2928.7 
2915.89 2819.99 2761.67 2754.77 2771.11 2816.04 2884.47 2911.26 2916.63 
2854.93 3249.81 3238.21 3167.02 3132.44 3080.69 3174.73 3302.25 3335.74 
3081.9 2909.59 2746.48 2980.54 2929.27 2946.26 2950.3 2950.3 2929.06 
2922.69 2896.07 2974.27 3055.74 3164.2 3283.58 2960.95 3040.01 3009.41 
2969.73 2890.8 3165.07 3048.06 3011.36 2899.9 2972.57 2970.88 2976.11 
2906.07 2451.95 2479.36 2486.89 2520.47 2604.26 2702.05 2843.51 2608.78 
2635.48 2692.79 2671.05 2973.6 2930.91 2697.23 2704.74 2696.59 2756.49 
2647.1 2586.23 2586.23 2607.73 2720.53 2810.8 2772.62 2745.78 2776.22 
2900.15 2848.51 2865 2837.84 2721.79 2721.79 2802.59 2767.49 2779.04 
2797.42 2849.93 2888.62 2937.2 2956.36 2882.77 2704.58 
rGFP 1 412 double
4531.2 5911.46 6028 4910.36 6027.16 6129.7 6032.94 6530.75 5635.58 
5566.33 5224.84 4742.53 6941.94 5615.79 6623.4 7770.81 6823.19 5852.15 
5604.2 7939.9 8128.54 6289.14 7842.02 4949.04 7671.74 4817.98 7071.57 
6235.67 7039.38 5137.43 7737.68 7239.53 4631.43 4620.72 4620.72 4782.57 
7451.28 6974.36 6693.42 6856.04 6104.1 6326.57 6380.32 6350.11 6957.49 
7257.3 7589.26 8343.14 8516.64 8842.53 8478.63 8277.53 7912.63 6967.7 
5264.6 7706.54 7714.05 7714.05 7319.42 7182.89 6972.43 6355.01 6189.2 
6396.78 6162.2 6162.2 6073.75 5964.56 5634.15 5706.47 5333.7 5515.05 
5482.02 5599.25 5920.93 5882.74 6120.31 6201.73 6128.37 6128.37 6048.85 
5997.78 5997.78 6341.25 6324.22 6324.22 6137.72 6013.68 6309.81 6243.26 
6527.84 6284.64 5819.28 5819.28 5442.96 5664.44 5835.63 6067.01 5960.75 
5960.75 5592.11 5803.78 6125.47 6036.84 6022.07 6159.73 6094.72 6228.11 
6285.44 6478.51 7477.59 7186.25 7186.25 6685.09 6912.54 6906.7 7178.89 
7178.89 7190.57 6978.54 6794.42 6324.38 5828.74 5828.74 5242.89 5418.91 
5497.12 6377 7737.68 7869.2 8138.95 7778.53 7596.22 6474.12 6005.44 
6388.73 6810.11 6586.54 6053.48 6288.75 5770.14 6032.14 6216.28 5808.85 
6272 6159.91 6028.62 6321.19 6379.46 6919.46 6754.73 6782.78 6353.06 
6573.3 6453.54 6977.16 7501.68 8389.46 8831.58 8653.19 8585.8 9494.44 
9150.89 7824.11 8044.94 7551.26 6812.57 6931.86 7012.38 7186.86 7186.86 
6630.86 6239.91 6320.32 5609.89 5588.73 5655.33 5571.3 5571.3 6249.65 
6662.06 7022.62 7205.19 7368.9 7368.9 6837.64 6837.64 6566.56 6259.79 
6184.27 6015 5986.19 5986.19 6062.88 6000.89 6000.89 5779.68 5721.37 
5809.09 5672.53 5672.53 5635.62 5544.86 5544.86 5585.9 5614.35 5614.35 
5500.1 5481.05 5641.27 5907.52 6259.54 6530.9 7295.46 6887.38 7146 
7276.72 7306.49 7706.3 7652.99 7659.7 7578.58 7322.75 9579.62 10136.4 
10397.7 10008 9594.54 9850.73 9003.3 7829.06 8294.88 8165.56 8128.17 
8151.27 8274.98 7854.95 7692.8 7430.36 7293.14 7206.53 7385.46 7606.54 
5438.3 8157.94 7581.26 7612.1 7659.8 6952.62 6952.62 6393.83 6184.21 
6050.47 5367.38 5369.58 5141.81 5060.43 5184.17 5184.17 5307.43 4944.47 
4989.31 5115.96 5115.96 5155.06 5098.42 5098.42 5277.83 5192.6 5192.6 
4922.86 4922.86 4907.4 5041.69 5630.2 6654.42 6925.16 6883.3 6704.4 
6691.54 7314.19 7793.57 7625.25 7596.17 7097.96 7512.6 7512.6 7626.26 
7737.21 7779.2 7804.72 7771.06 7591.15 7880.88 7880.88 8104.6 8270.05 
8262.89 8099.05 8091.73 7868.21 7409.99 7320.74 7272.37 7135.91 7089.53 
7226.83 7667.15 8155.36 8093.4 7534.16 7070.98 7020.75 6446.51 6366.52 
6166.44 5530.07 5530.07 5175.21 5338.43 5827.63 6281.75 6055.6 5872.12 
6031.27 5693.36 5652.44 5719.04 5827.9 5807.72 5881.83 5836.86 5987.12 
6082.21 6670.41 7620 7843.07 7529.23 7892.85 7372.37 6903.21 6988.32 
7373.43 6722.79 6100.9 7955.1 7851.47 7608.1 7566.72 7566.72 7230.16 
7117.49 7337.19 7002.05 6998.23 7262.72 7319.59 6540.31 6861.65 6818.4 
6544.59 6418.96 7270.84 7430.77 7240.74 7501.79 6840.78 7207.59 6396.53 
5948.42 4948.78 5048.62 4938.85 4838.02 5038.42 5398.8 5756.54 5454.43 
5467.07 5586.14 5386.35 6236.7 6207.3 5363.28 5452.04 5443.28 5674.54 
5001.11 4606.54 4606.54 4479.27 5019.11 5458.6 5940.54 5681.02 5801.59 
5885.02 5671.15 5511.89 5350.65 5019.73 5019.73 5787.77 5712.33 5692.52 
5824.09 5915.46 5818.17 6406.36 6365.3 6066.88 5242.17 
bkstRFP 1 412 double