# vtk DataFile Version 3.0
vtk output
ASCII
DATASET POLYDATA
POINTS 489 float
1.96328 1.29301 1.06397 1.38515 1.47229 0.889185 2.20017 1.73249 0.951779 
1.79956 1.86745 0.817914 1.37508 0.172354 1.6221 2.23696 0.770335 1.25762 
1.1501 0.747091 1.22522 2.42842 1.7438 0.732063 1.85025 1.00363 0.902575 
1.05162 1.78425 0.305864 1.14611 1.96073 -0.115693 0.757339 1.80992 -0.283105 
1.87163 2.11366 -0.527982 3.30267 0.472954 -0.0998196 1.5061 2.15405 -1.31411 
0.546206 1.36564 -1.15714 1.20319 1.95904 -1.46291 4.70618 -0.392101 -0.0952821 
5.18467 -0.513441 -0.120499 5.55223 -0.327796 -0.197214 5.9947 -0.0966078 -0.593428 
1.28948 -1.7656 -0.00775715 5.65667 -0.883361 -0.380295 -0.362781 -1.27845 -0.51507 
4.21588 -0.53979 -0.551558 -0.659051 -1.0839 -0.675152 5.73805 -0.234898 -0.554206 
3.97136 -0.269393 -0.966279 5.72491 -0.0974579 -0.803765 5.90486 -0.73419 -0.544868 
4.95393 -1.24477 -0.393286 2.96983 -1.08379 -0.808811 -0.401798 -1.27205 -1.00199 
3.95606 -0.67492 -0.877398 5.6355 -0.206575 -1.41339 5.41588 -0.263524 -1.55886 
5.5904 0.116585 -1.50014 5.57641 0.30108 -1.55632 3.32642 0.155924 -1.72584 
2.61538 0.622834 -2.11004 -0.13723 -0.995305 -1.62772 3.21544 -0.293216 -1.68834 
4.41043 -0.095798 -1.67589 3.13059 -0.13004 -1.96288 3.22748 0.125884 -1.95716 
1.54105 -1.90497 -1.51579 5.99939 -0.422898 -1.51829 2.98611 -0.3088 -1.94423 
0.268569 -1.9939 -1.55633 0.837142 -1.54548 -2.1155 0.777738 -1.51725 -2.10523 
0.724933 -1.54285 -2.08603 0.678134 -1.59989 -2.07245 0.641563 -1.65881 -2.05644 
0.618427 -1.7065 -2.0284 0.577248 -1.73579 -1.98776 0.52268 -1.74172 -1.93718 
0.466992 -1.7565 -1.87217 0.414583 -1.78337 -1.80784 0.374408 -1.8225 -1.76074 
0.350051 -1.86384 -1.71922 0.311928 -1.90775 -1.67766 0.272635 -1.94853 -1.62054 
1.62077 -1.87622 -1.53165 1.68739 -1.86367 -1.55187 1.74186 -1.83581 -1.5679 
1.79384 -1.80999 -1.55854 1.84386 -1.77752 -1.52049 1.8933 -1.74248 -1.4753 
1.94332 -1.70993 -1.43731 1.99448 -1.67951 -1.42438 2.04494 -1.63615 -1.43757 
2.09613 -1.59679 -1.45696 2.14875 -1.57436 -1.45641 2.20166 -1.55778 -1.44321 
2.25401 -1.53882 -1.42275 2.30708 -1.52384 -1.40848 2.35999 -1.50727 -1.39527 
2.41116 -1.47684 -1.38233 2.45872 -1.41751 -1.37075 2.50556 -1.35418 -1.35296 
2.55455 -1.31178 -1.32144 2.60384 -1.27523 -1.27725 2.65329 -1.24028 -1.232 
2.70276 -1.20551 -1.18664 2.75311 -1.17626 -1.14648 2.80316 -1.14879 -1.09045 
2.85392 -1.128 -1.0123 2.90695 -1.09791 -0.919226 1.4799 -1.96153 -1.49312 
1.42714 -1.9976 -1.49595 1.37409 -2.01533 -1.504 1.32114 -2.03532 -1.50395 
1.26893 -2.06477 -1.49107 1.21543 -2.08167 -1.48643 1.16123 -2.09178 -1.48625 
1.10774 -2.10878 -1.48154 1.05498 -2.13584 -1.46141 1.00031 -2.15051 -1.43178 
0.943753 -2.15598 -1.38173 0.884157 -2.13499 -1.34023 0.823111 -2.0969 -1.3188 
0.765225 -2.08035 -1.30967 0.708778 -2.07171 -1.31299 0.651904 -2.05588 -1.32984 
0.596182 -2.05123 -1.33936 0.540451 -2.0465 -1.34893 0.484144 -2.03314 -1.37298 
0.42895 -2.02804 -1.40043 0.37376 -2.0243 -1.44472 0.316473 -2.02011 -1.48955 
5.4889 -0.330464 -1.55225 5.55651 -0.308686 -1.50621 3.14611 -0.0243367 -1.95248 
3.18162 0.0588641 -1.94883 3.05463 -0.220571 -1.95472 2.90994 -0.330741 -2.0187 
2.8464 -0.312425 -2.0645 2.79629 -0.265332 -2.08301 2.76237 -0.21511 -2.10165 
2.71722 -0.186677 -2.15183 2.66614 -0.171256 -2.22089 2.62327 -0.154792 -2.28965 
2.59495 -0.124231 -2.33923 2.56006 -0.0863305 -2.37661 2.52957 -0.043786 -2.4076 
2.48224 -0.00336953 -2.4392 2.42418 0.0397775 -2.46495 2.36286 0.0906839 -2.47837 
2.29853 0.157555 -2.46702 2.23204 0.236324 -2.43702 2.16426 0.321558 -2.39364 
2.09879 0.3904 -2.35711 2.03697 0.433031 -2.32984 1.97775 0.462455 -2.32917 
1.9213 0.471185 -2.33254 1.86558 0.475835 -2.34205 1.80871 0.491577 -2.35885 
1.75314 0.494703 -2.36737 1.69828 0.491026 -2.37141 1.64272 0.494152 -2.37992 
1.58513 0.513808 -2.39047 1.52741 0.528825 -2.38034 1.46836 0.547507 -2.34616 
1.40875 0.568675 -2.30477 1.34913 0.589837 -2.2634 1.28936 0.612515 -2.22302 
1.2273 0.651421 -2.17565 1.16263 0.709489 -2.12324 1.09996 0.748155 -2.05809 
1.03858 0.774288 -1.9847 0.973881 0.829649 -1.92168 0.907316 0.897019 -1.84892 
0.839269 0.975722 -1.77479 0.771812 1.0487 -1.69688 0.702591 1.1338 -1.60929 
0.634734 1.21538 -1.4927 0.577579 1.29617 -1.33893 3.05739 -0.349963 -1.87393 
3.11647 -0.360388 -1.80717 3.1672 -0.334219 -1.74726 5.34798 -0.433017 -1.51146 
5.29138 -0.524618 -1.47593 5.23661 -0.556973 -1.42766 5.17973 -0.561595 -1.37416 
5.12382 -0.576391 -1.30917 5.0695 -0.60351 -1.2449 5.01472 -0.628134 -1.17344 
4.96103 -0.648627 -1.09566 4.9159 -0.659861 -1.00512 4.88542 -0.656898 -0.895474 
4.84564 -0.630471 -0.751841 4.80643 -0.568035 -0.56938 4.75299 -0.475289 -0.352031 
5.93872 -0.415466 -1.39734 5.87308 -0.376389 -1.23538 5.80084 -0.274849 -1.0259 
6.04504 -0.373428 -1.42087 6.08731 -0.326197 -1.28033 6.11022 -0.262157 -1.08868 
6.0813 -0.181213 -0.854211 5.94032 -0.385779 -1.54914 5.88128 -0.353648 -1.56613 
5.81991 -0.328632 -1.54693 5.74268 -0.283183 -1.48962 3.27731 0.138908 -1.84459 
3.1617 0.200748 -1.93341 3.10028 0.25164 -1.94684 3.04319 0.278566 -1.99744 
2.98756 0.2975 -2.06044 2.93048 0.324426 -2.11104 2.87123 0.363335 -2.14306 
2.8098 0.414227 -2.15649 2.7462 0.477103 -2.15134 2.68115 0.547971 -2.13379 
3.19544 -0.143798 -1.86968 3.24136 -0.16376 -1.7983 3.25672 -0.197896 -1.75088 
3.24928 -0.242542 -1.71706 4.40058 -0.139352 -1.6401 4.37415 -0.176739 -1.59252 
4.34869 -0.200211 -1.52723 4.30471 -0.213502 -1.4618 4.24942 -0.21544 -1.40503 
4.19375 -0.231476 -1.34174 4.13507 -0.2451 -1.25252 4.06421 -0.253092 -1.12787 
3.26688 -0.300422 -1.60683 3.30985 -0.316872 -1.53807 3.33807 -0.347441 -1.48848 
3.37032 -0.381593 -1.44499 3.38743 -0.417652 -1.40202 3.403 -0.445738 -1.34666 
3.43114 -0.46815 -1.28465 3.44454 -0.484252 -1.21071 3.45782 -0.500362 -1.13677 
3.48312 -0.519046 -1.06863 3.48365 -0.55312 -1.02003 3.44886 -0.599825 -0.985127 
3.40119 -0.652248 -0.956902 3.35148 -0.704927 -0.928748 3.30167 -0.75762 -0.900599 
3.25113 -0.806225 -0.866311 3.1997 -0.849323 -0.82683 3.14687 -0.881467 -0.788659 
3.09369 -0.913685 -0.777057 3.03771 -0.981432 -0.784206 5.54651 -0.193821 -1.50028 
-0.173298 -1.04626 -1.59908 -0.196895 -1.09155 -1.56378 -0.237774 -1.12677 -1.51042 
-0.292083 -1.14326 -1.42645 -0.34918 -1.14375 -1.31768 -0.394459 -1.14274 -1.20848 
-0.408295 -1.15412 -1.12307 -0.398698 -1.18296 -1.06793 -0.381593 -1.2231 -1.03119 
5.58207 0.254579 -1.52568 5.591 0.198864 -1.50159 5.52963 -0.0228073 -1.5333 
5.66089 -0.145045 -1.16315 5.68011 -0.104156 -0.964091 5.68597 -0.17688 -0.727591 
5.68938 -0.216835 -0.648288 4.01192 -0.693615 -0.818078 4.06625 -0.686349 -0.74201 
4.12829 -0.630855 -0.651863 -0.368561 -1.25705 -0.883795 -0.358791 -1.25317 -0.778876 
-0.359293 -1.25877 -0.68676 -0.360981 -1.2686 -0.600917 -0.463575 -1.239 -0.941966 
-0.526801 -1.19795 -0.86955 -0.592201 -1.14493 -0.778549 2.90173 -1.10624 -0.684212 
2.85136 -1.11776 -0.576399 2.82226 -1.12676 -0.482491 2.7893 -1.13924 -0.395636 
2.76245 -1.15625 -0.316961 2.72005 -1.18177 -0.252334 2.66879 -1.21069 -0.213112 
2.61501 -1.22691 -0.200086 2.56185 -1.24704 -0.193323 2.51067 -1.28649 -0.17387 
2.45948 -1.32585 -0.154478 2.40615 -1.34437 -0.14877 2.35196 -1.35457 -0.148532 
2.29846 -1.37148 -0.143885 2.24625 -1.40092 -0.131007 2.19275 -1.41783 -0.12636 
2.13855 -1.42794 -0.126183 2.08505 -1.44485 -0.121536 2.03285 -1.47429 -0.108657 
1.97935 -1.4912 -0.104011 1.92515 -1.5014 -0.103773 1.87182 -1.51992 -0.0980652 
1.82064 -1.55928 -0.0786725 1.76946 -1.59874 -0.0592195 1.71702 -1.62287 -0.058654 
1.66529 -1.65089 -0.0643381 1.61611 -1.70063 -0.0645865 1.56447 -1.73254 -0.058907 
1.50795 -1.72011 -0.0735354 1.45055 -1.70225 -0.0829012 1.39734 -1.72193 -0.076433 
1.3434 -1.74061 -0.0529942 5.84441 -0.757275 -0.483921 5.78425 -0.783816 -0.425136 
5.72362 -0.818585 -0.378806 5.93723 -0.691611 -0.599537 5.9559 -0.644773 -0.640836 
5.99146 -0.584936 -0.657552 6.03521 -0.510493 -0.651727 6.07781 -0.430102 -0.636576 
6.1087 -0.352152 -0.623445 6.1098 -0.279808 -0.61683 6.07655 -0.197177 -0.605358 
5.00847 -1.23788 -0.391353 5.063 -1.23099 -0.389419 5.11752 -1.22401 -0.387546 
5.17189 -1.21551 -0.386668 5.2254 -1.19869 -0.391255 5.2776 -1.16917 -0.404188 
5.33167 -1.15482 -0.415973 5.38662 -1.1459 -0.433007 5.44184 -1.13658 -0.459121 
5.49616 -1.12863 -0.453473 5.54533 -1.07502 -0.438004 5.59431 -0.978577 -0.40148 
3.84974 -0.12255 -0.891732 3.76118 -0.00991496 -0.810248 3.69023 0.0706473 -0.727521 
3.62127 0.153128 -0.644544 3.55284 0.22679 -0.543576 3.48188 0.303332 -0.418207 
3.40118 0.387403 -0.2693 5.79905 -0.0295594 -0.663962 5.8803 -0.0322599 -0.59294 
4.05834 -0.302291 -0.786873 4.12348 -0.318325 -0.669982 4.17889 -0.349446 -0.612066 
4.2171 -0.419358 -0.583013 5.81055 -0.156435 -0.498161 5.88723 -0.107994 -0.51378 
5.67876 -0.239889 -0.404409 5.64342 -0.249511 -0.296063 5.60101 -0.280626 -0.233736 
4.2991 -0.550282 -0.4093 4.35924 -0.524968 -0.315864 4.41133 -0.501525 -0.257578 
4.46511 -0.499798 -0.213439 4.51807 -0.488151 -0.182283 4.57068 -0.463495 -0.150698 
4.63036 -0.431706 -0.119931 5.12606 -0.483868 -0.13756 5.06817 -0.467234 -0.128489 
5.00984 -0.452452 -0.100557 4.9524 -0.443273 -0.077768 4.89733 -0.447394 -0.0756557 
4.84286 -0.457429 -0.0873564 4.78143 -0.445514 -0.0933621 1.20281 1.87591 -1.48907 
1.20078 1.79421 -1.51632 1.23969 1.72772 -1.54861 1.29873 1.68245 -1.60108 
1.36135 1.64215 -1.66519 1.42544 1.59271 -1.73208 1.4878 1.55103 -1.77763 
1.54319 1.55863 -1.80262 1.59151 1.60349 -1.7639 1.63096 1.68719 -1.67155 
1.65016 1.81422 -1.55638 1.62968 1.9462 -1.44905 1.57325 2.05894 -1.36891 
0.481755 1.40508 -0.986413 0.429381 1.4338 -0.833926 0.396117 1.45266 -0.699431 
0.361217 1.46315 -0.577425 0.344333 1.48 -0.448573 0.346752 1.50337 -0.312805 
0.36791 1.52912 -0.176372 0.3867 1.55057 -0.0463152 0.423708 1.56778 0.0709075 
0.47044 1.5921 0.175814 0.518992 1.62559 0.248462 0.569827 1.64712 0.302521 
0.624984 1.63582 0.351679 0.680989 1.61629 0.406247 0.734697 1.61298 0.467792 
0.785532 1.63451 0.52186 0.837092 1.65203 0.56972 0.892973 1.63674 0.612681 
0.951161 1.60513 0.648723 1.00938 1.57624 0.67416 1.0663 1.55996 0.69131 
1.12444 1.53358 0.717329 1.18604 1.51175 0.751895 1.26853 1.50492 0.799158 
0.581186 1.4803 -0.987858 0.61655 1.59229 -0.819028 0.653754 1.69235 -0.644509 
0.698532 1.76042 -0.459547 3.21065 0.630949 0.0561843 3.14174 0.755854 0.197858 
3.09561 0.865943 0.292701 3.03792 0.962016 0.350944 2.97117 1.05301 0.399603 
2.90188 1.14786 0.454327 2.8325 1.2426 0.509107 2.76471 1.32784 0.552496 
2.69924 1.39677 0.588966 2.63579 1.44908 0.627512 2.57114 1.51403 0.657783 
2.50756 1.58755 0.682659 2.45554 1.66405 0.706945 3.29349 0.421172 -0.0291271 
3.29034 0.378839 0.0243647 3.28171 0.335654 0.0630123 3.25932 0.28773 0.0942465 
3.25139 0.244418 0.130104 3.25 0.210102 0.178633 3.2357 0.190501 0.25159 
3.19247 0.1796 0.342132 3.13509 0.18079 0.449776 3.07477 0.191671 0.550841 
3.0113 0.229079 0.64328 2.94681 0.276327 0.729267 2.88157 0.327749 0.821324 
2.81775 0.368463 0.911591 2.75654 0.392989 0.986036 2.69402 0.436275 1.03052 
2.63181 0.479587 1.06617 2.56755 0.536799 1.11033 2.5053 0.577487 1.15652 
2.44397 0.612875 1.19443 2.38209 0.653431 1.21122 2.31529 0.699244 1.23587 
1.8094 2.15418 -0.481672 1.74691 2.20018 -0.44779 1.68821 2.21555 -0.411437 
1.63413 2.19216 -0.367256 1.58179 2.15485 -0.322753 1.52804 2.12825 -0.27646 
1.47357 2.1117 -0.245592 1.41954 2.09085 -0.211889 1.36637 2.06627 -0.193411 
1.31145 2.03127 -0.15955 1.24334 1.98557 -0.129187 1.0537 1.98753 -0.134922 
0.98629 1.99683 -0.131086 0.931132 1.976 -0.108608 0.878844 1.93981 -0.113534 
0.82397 1.87403 -0.163882 1.10008 1.81061 0.409671 1.14929 1.84191 0.474941 
1.2011 1.86308 0.502773 1.25492 1.87379 0.511025 1.30963 1.87898 0.514074 
1.36535 1.87433 0.523588 1.42324 1.84866 0.546908 1.48056 1.82546 0.577426 
1.53513 1.82287 0.612045 1.58782 1.82949 0.667072 1.63832 1.85424 0.719021 
1.68885 1.88179 0.760297 1.74241 1.88903 0.788456 1.89867 1.13857 0.98242 
1.85295 0.957572 0.932586 1.84523 0.914286 0.968451 1.82296 0.877333 1.01624 
1.82536 0.855754 1.08356 1.86378 0.842913 1.15834 1.91638 0.829399 1.22633 
1.97216 0.814001 1.26935 2.02764 0.81035 1.2841 2.08563 0.801025 1.28508 
2.15344 0.778213 1.28115 1.78756 1.06072 0.902716 1.72298 1.12404 0.934036 
1.65776 1.18243 1.0039 1.59435 1.24104 1.07382 1.54215 1.30309 1.10077 
1.50887 1.35381 1.07746 1.46177 1.40268 1.00281 1.15685 0.701545 1.25538 
1.17266 0.661234 1.29208 1.20288 0.626826 1.3355 1.22001 0.590768 1.37847 
1.24194 0.538967 1.39672 1.29242 0.470345 1.38488 1.35487 0.390979 1.3548 
1.40525 0.322339 1.34294 1.42526 0.270301 1.36113 1.42973 0.236726 1.40986 
1.42891 0.210657 1.47086 1.41481 0.191082 1.54382 2.23515 0.892924 1.29646 
2.23615 0.992192 1.32998 2.24159 1.07039 1.34514 2.21754 1.12743 1.33507 
2.19026 1.17447 1.31042 2.15517 1.21403 1.27549 2.12388 1.2477 1.22887 
2.06326 1.27138 1.15869 2.15326 1.66382 0.955146 2.10707 1.59115 0.952314 
2.0607 1.51997 0.952053 2.01449 1.45551 0.966952 1.97763 1.38646 1.00363 

LINES 43 576
4 35 111 112 34 
4 43 113 114 44 
3 43 115 47 
44 47 116 117 118 119 120 121 122 123 124 125 126 127 128 129 130 131 132 133 134 135 136 137 138 139 140 141 142 143 144 145 146 147 148 149 150 151 152 153 154 155 156 157 15 
5 47 158 159 160 41 
15 35 161 162 163 164 165 166 167 168 169 170 171 172 173 17 
5 46 174 175 176 28 
6 46 177 178 179 180 20 
6 46 181 182 183 184 34 
3 44 185 38 
11 44 186 187 188 189 190 191 192 193 194 39 
6 43 195 196 197 198 41 
10 42 199 200 201 202 203 204 205 206 27 
22 41 207 208 209 210 211 212 213 214 215 216 217 218 219 220 221 222 223 224 225 226 31 
3 34 227 35 
11 40 228 229 230 231 232 233 234 235 236 32 
4 34 240 241 28 
4 28 242 243 26 
5 33 244 245 246 24 
6 32 247 248 249 250 23 
5 32 251 252 253 25 
34 31 254 255 256 257 258 259 260 261 262 263 264 265 266 267 268 269 270 271 272 273 274 275 276 277 278 279 280 281 282 283 284 285 21 
9 27 309 310 311 312 313 314 315 13 
4 28 316 317 20 
6 27 318 319 320 321 24 
4 26 322 323 20 
5 26 324 325 326 19 
9 24 327 328 329 330 331 332 333 17 
9 18 334 335 336 337 338 339 340 17 
15 16 341 342 343 344 345 346 347 348 349 350 351 352 353 14 
15 13 382 383 384 385 386 387 388 389 390 391 392 393 394 7 
24 13 395 396 397 398 399 400 401 402 403 404 405 406 407 408 409 410 411 412 413 414 415 416 5 
15 9 433 434 435 436 437 438 439 440 441 442 443 444 445 3 
3 0 446 8 
12 8 447 448 449 450 451 452 453 454 455 456 5 
14 6 464 465 466 467 468 469 470 471 472 473 474 475 4 
10 5 476 477 478 479 480 481 482 483 0 
7 2 484 485 486 487 488 0 
65 49 50 51 52 53 54 55 56 57 58 59 60 61 62 48 110 109 108 107 106 105 104 103 102 101 100 99 98 97 96 95 94 93 92 91 90 89 45 63 64 65 66 67 68 69 70 71 72 73 74 75 76 77 78 79 80 81 82 83 84 85 86 87 88 31 
6 37 237 238 36 239 35 
27 30 297 298 299 300 301 302 303 304 305 306 307 308 22 288 287 286 29 289 290 291 292 293 294 295 296 20 
34 15 354 355 356 357 358 359 360 361 362 363 364 365 366 367 368 369 370 371 372 373 374 375 376 377 1 463 462 461 460 459 458 457 8 
24 12 417 418 419 420 421 422 423 424 425 426 427 10 428 429 430 431 432 11 381 380 379 378 15 

POINT_DATA 489
SCALARS DY_raw double
LOOKUP_TABLE default
455.948 335.64 393.84 326.337 1256.11 297.998 296.196 335.901 293.537 
419.666 303.336 311.51 191.651 214.983 237.915 212.339 219.225 293.996 
310.196 540.693 366.994 562.097 317.561 246.542 236.501 1155.45 377.844 
181.227 341.222 322.312 327.64 221.22 160.287 365.815 322.193 282.088 
187.96 222.483 309.128 361.642 178.966 298.545 217.51 231.645 247.83 
290.696 215.393 327.872 222.588 223.34 219.448 229.709 215.669 220.514 
254.922 294.556 330.142 330.107 248.97 212.734 200.261 193.866 219.981 
305.847 302.501 288.148 289.329 300.579 309.321 291.757 278.156 256.901 
224.439 219.322 242.622 212.552 198.626 209.858 205.697 224.372 224.727 
212.136 237.673 221.481 241.147 256.117 224.448 209.344 212.203 284.456 
292.949 326.481 308.217 308.217 242.178 245.755 245.755 196.788 206.334 
231.381 248.842 274.273 245.206 268.809 268.809 291.955 303.121 303.121 
267.781 250.783 246.499 274.356 307.191 230.425 246.407 238.683 292.757 
275.713 307.618 307.96 298.811 298.811 290.586 309.537 299.284 317.286 
383.741 363.12 250.709 268.803 240.827 225.672 216.753 221.622 237.593 
254.603 251.727 232.347 232.347 196.424 189.238 189.238 176.057 178.912 
189.599 171.188 185.967 202.209 202.9 222.605 234.318 246.482 221.838 
211.996 191.523 200.574 209.316 209.993 353.302 391.964 345.593 242.031 
260.069 275.8 277.442 283.942 308.53 335.167 317.26 339.45 379.955 
429.556 384.424 277.673 257.24 302.341 306.144 242.206 257.689 258.862 
284.336 240.663 245.364 279.224 268.288 277.093 273.812 272.992 341.95 
308.496 346.171 303.912 303.912 313.166 310.086 231.393 233.67 237.057 
260.737 190.787 190.787 189.445 199.448 208.34 196.54 182.237 176.962 
350.732 289.487 281.009 281.009 242.657 231.04 248.383 240.979 216.545 
225 231.058 232.123 235.195 220.047 222.345 222.345 215.038 254.751 
245.677 249.085 287.161 178.966 197.091 235.229 261.901 208.486 182.517 
191.912 169.021 160.287 204.001 200.884 187.622 374.821 341.594 344.076 
364.917 308.877 327.702 284.843 170.721 175.132 192.774 230.714 224.785 
231.686 328.855 218.82 244.057 266.472 247.985 263.011 255.687 232.25 
225.099 216.42 216.42 228.489 230.97 266.837 262.039 268.365 268.365 
285.455 285.455 297.999 306.116 324.72 305.009 290.457 305.196 288.359 
282.365 253.755 275.346 249.305 255.164 324.04 419.385 358.994 358.687 
345.835 295.413 279.248 275.82 324.98 360.386 374.56 367.636 355.448 
297.715 258.807 250.794 250.794 252.031 260.075 260.075 215.135 225.742 
243.098 265.926 280.475 201.749 230.692 231.746 226.122 209.748 210.329 
220.795 358.019 369.209 228.023 252.848 267.939 223.72 368.44 393.022 
435.486 490.01 527.092 239.12 234.666 244.548 262.184 257.37 279.985 
279.847 315.946 321.139 349.925 329.01 346.659 309.9 311.593 202.195 
220.282 225.859 217.704 222.209 220.209 195.973 216.746 212.165 262.2 
288.672 266.315 304.054 209.944 239.071 281.811 312.442 383.221 415.688 
453.4 425.972 374.752 376.863 409.386 362.418 406.872 459.596 444.601 
477.88 376.802 349.002 349.002 333.629 327.934 335.095 317.564 316.077 
198.842 223.632 251.762 264.549 201.975 232.394 263.209 291.208 326.666 
258.466 313.75 304.934 341.463 341.304 324.66 314.957 310.398 238.209 
283.395 321.347 305.022 305.022 245.615 231.902 235.684 226.471 242.774 
256.904 255.194 258.477 269.925 274.737 276.913 243.616 250.927 259.563 
230.75 239.167 264.779 194.944 213.231 219.451 234.613 225.733 217.636 
219.396 221.087 206.16 238.472 243.025 279.505 320.579 360.17 367.18 
336.567 432.398 409.61 432.765 418.029 358.672 358.672 310.942 305.23 
313.643 317.894 329.675 351.607 314.007 384.895 317.355 373.635 407.335 
431.239 420.095 395.878 411.526 371.021 350.386 333.224 349.401 369.483 
412.144 483.126 480.796 440.712 402.089 296.041 303.219 303.219 283.393 
284.305 226.117 243.429 224.254 267.609 339.927 352.854 491.469 350.116 
355.885 355.471 367.993 407.829 375.836 388.837 389.473 333.753 321.962 
323.828 333.871 367.8 
FIELD FieldData 7
DY_minmax 1 489 double
0.269809 0.16002 0.213131 0.15153 1 0.125669 0.124025 0.160258 0.121598 
0.236699 0.13054 0.138 0.0286213 0.049913 0.0708399 0.0475004 0.0537838 0.122017 
0.1368 0.347143 0.188632 0.366676 0.143522 0.0787126 0.0695498 0.90815 0.198534 
0.0191087 0.165114 0.147857 0.15272 0.0556047 0 0.187556 0.147749 0.111151 
0.0252525 0.0567572 0.135826 0.183748 0.0170449 0.126168 0.052219 0.0651178 0.0798882 
0.119006 0.0502869 0.152931 0.056853 0.0575393 0.0539873 0.0633511 0.0505389 0.0549607 
0.08636 0.122528 0.155002 0.15497 0.0809284 0.0478604 0.036478 0.0306421 0.0544737 
0.132832 0.129778 0.11668 0.117758 0.128024 0.136002 0.119974 0.107562 0.0881655 
0.058542 0.053873 0.0751356 0.0476942 0.0349865 0.0452361 0.0414388 0.0584814 0.0588054 
0.0473146 0.0706186 0.0558428 0.0737889 0.0874504 0.0585507 0.0447669 0.0473762 0.113312 
0.121062 0.151661 0.134994 0.134994 0.0747302 0.0779943 0.0779943 0.033309 0.04202 
0.0648773 0.0808115 0.104019 0.0774935 0.0990327 0.0990327 0.120155 0.130344 0.130344 
0.0980945 0.0825825 0.078673 0.104095 0.134058 0.0640045 0.0785892 0.0715405 0.120886 
0.105333 0.134448 0.13476 0.126411 0.126411 0.118905 0.136199 0.126843 0.143271 
0.203915 0.185097 0.0825149 0.0990274 0.073497 0.0596677 0.0515284 0.0559717 0.0705456 
0.086069 0.0834443 0.065759 0.065759 0.0329764 0.0264194 0.0264194 0.0143907 0.0169962 
0.0267487 0.00994731 0.0234345 0.0382557 0.0388866 0.0568683 0.0675571 0.0786579 0.0561685 
0.0471872 0.0285047 0.0367639 0.0447416 0.0453597 0.176138 0.211419 0.169102 0.0745964 
0.0910564 0.105412 0.106911 0.112842 0.13528 0.159588 0.143247 0.163496 0.20046 
0.245724 0.204538 0.107121 0.0884748 0.129633 0.133103 0.0747561 0.0888848 0.0899553 
0.113202 0.0733471 0.0776371 0.108537 0.0985572 0.106592 0.103598 0.10285 0.165779 
0.135249 0.16963 0.131067 0.131067 0.139511 0.136701 0.0648885 0.0669656 0.0700567 
0.091666 0.0278327 0.0278327 0.0266076 0.0357363 0.0438511 0.0330829 0.0200305 0.0152165 
0.173792 0.117902 0.110165 0.110165 0.0751676 0.0645664 0.0803924 0.0736359 0.051338 
0.0590545 0.0645822 0.0655542 0.0683577 0.0545342 0.0566309 0.0566309 0.0499631 0.0862042 
0.077923 0.0810331 0.11578 0.0170449 0.0335852 0.0683883 0.0927283 0.0439845 0.0202861 
0.0288597 0.00797027 0 0.0398913 0.0370471 0.0249446 0.195775 0.165453 0.167718 
0.186737 0.135597 0.152776 0.113664 0.00952083 0.0135464 0.0296459 0.0642688 0.0588577 
0.0651558 0.153828 0.0534147 0.0764448 0.0969 0.0800295 0.0937413 0.0870579 0.0656703 
0.0591446 0.0512245 0.0512245 0.0622379 0.0645018 0.0972327 0.0928549 0.0986272 0.0986272 
0.114223 0.114223 0.12567 0.133078 0.150055 0.132067 0.118787 0.132238 0.116873 
0.111403 0.0852952 0.104998 0.0812342 0.086581 0.149434 0.236442 0.181332 0.181052 
0.169324 0.123311 0.108559 0.10543 0.150292 0.182602 0.195537 0.189218 0.178096 
0.125411 0.0899051 0.0825925 0.0825925 0.0837215 0.0910623 0.0910623 0.0500519 0.0597312 
0.0755699 0.096402 0.109679 0.0378366 0.0642484 0.0652103 0.0600778 0.0451356 0.0456663 
0.055217 0.180442 0.190654 0.0618132 0.0844676 0.0982382 0.0578859 0.189951 0.212384 
0.251135 0.300892 0.334732 0.0719392 0.0678752 0.0768931 0.0929866 0.0885939 0.109232 
0.109106 0.142048 0.146787 0.173056 0.15397 0.170075 0.136531 0.138075 0.0382434 
0.0547483 0.0598378 0.0523963 0.0565073 0.0546824 0.032565 0.0515218 0.047341 0.0930014 
0.117158 0.0967566 0.131196 0.0453143 0.0718951 0.110897 0.13885 0.20344 0.233069 
0.267483 0.242453 0.195712 0.197638 0.227317 0.184457 0.225024 0.273137 0.259453 
0.289822 0.197582 0.172213 0.172213 0.158185 0.152988 0.159522 0.143524 0.142167 
0.0351833 0.0578059 0.0834761 0.095145 0.0380422 0.0658017 0.0939225 0.119473 0.15183 
0.0895942 0.140044 0.131999 0.165333 0.165188 0.15 0.141146 0.136985 0.0711084 
0.112343 0.146976 0.132079 0.132079 0.0778669 0.0653525 0.0688042 0.0603969 0.0752743 
0.0881684 0.0866081 0.0896042 0.100051 0.104442 0.106428 0.0760426 0.0827137 0.0905954 
0.0643015 0.071982 0.0953549 0.0316258 0.0483147 0.0539906 0.0678265 0.0597233 0.0523336 
0.0539402 0.055483 0.0418615 0.0713484 0.075503 0.108793 0.146275 0.182405 0.188802 
0.160866 0.248318 0.227522 0.248652 0.235205 0.181038 0.181038 0.137481 0.132269 
0.139946 0.143826 0.154577 0.174591 0.140279 0.204968 0.143334 0.194692 0.225446 
0.24726 0.23709 0.21499 0.22927 0.192308 0.173477 0.157815 0.172578 0.190904 
0.229835 0.294609 0.292484 0.255904 0.220659 0.123883 0.130434 0.130434 0.112342 
0.113173 0.0600733 0.075872 0.0583732 0.0979377 0.163932 0.175728 0.302224 0.17323 
0.178494 0.178117 0.189544 0.225897 0.196701 0.208565 0.209146 0.158298 0.147538 
0.14924 0.158405 0.189368 
WidthEq 1 489 double
7.78751 6.58105 5.92709 6.83924 1 7.62742 5.50435 5.2379 7.82074 
5.07581 7.27559 7.14671 8.82163 15.8751 5.03657 16.3175 9.83523 13.7271 
11.7023 8.54292 16.8749 5.0631 14.0856 11.6219 14.5311 1.47804 15.6022 
20.746 20.6111 15.4223 11.2778 14.388 19.5973 8.35608 18.6843 14.6384 
21.6348 8.65574 6.91773 10.4205 15.0415 10.6526 8.09409 12.1095 10.7757 
8.76009 27.3824 11.7226 14.0098 16.4678 15.8455 15.8216 15.9273 14.427 
11.6863 8.95028 7.22742 6.98818 8.56366 9.75184 11.9505 13.388 13.7012 
8.5641 8.28116 8.84125 8.83924 8.83188 9.25373 10.5072 11.0548 11.5307 
13.06 13.1516 12.6486 13.2381 13.6899 13.7851 13.1387 12.5409 12.1576 
13.557 13.097 13.8261 13.6314 13.2031 14.1447 14.8901 15.1222 9.12954 
8.7204 8.00156 7.78328 7.78328 8.49588 8.96187 8.96187 10.7157 11.2615 
11.1434 11.3588 10.8392 10.9206 10.404 10.404 10.0281 10.5846 10.5846 
12.4542 12.7489 13.4109 17.0111 18.0952 11.7195 10.9639 12.6161 12.8943 
13.6221 13.2319 13.4876 13.7926 13.7926 13.8988 12.3369 12.3258 9.1612 
6.88116 5.71349 8.1427 8.78305 11.3819 15.4352 16.9851 16.3235 15.5124 
13.9278 13.8713 14.1066 14.1066 15.6533 16.9719 16.9719 18.0544 18.501 
18.2265 20.0283 19.4165 18.3599 18.041 17.7512 17.7534 17.8357 19.6649 
20.3072 21.501 21.078 19.2417 17.973 10.2143 8.97547 9.90613 15.5884 
14.2687 13.3416 13.6332 12.9037 12.9251 12.2861 12.8812 11.9882 11.4921 
10.5142 10.5329 12.4881 25.9619 23.3244 23.0448 26.1273 23.3909 22.5402 
20.5643 26.3735 24.9382 22.5579 21.7469 9.16834 10.713 10.5253 9.01538 
9.45953 9.53423 12.2644 12.2644 12.6147 11.7574 12.5871 12.0638 12.101 
12.0437 14.1946 14.1946 16.4542 16.6678 16.433 17.7532 19.0203 20.8421 
9.0825 10.5989 10.6011 10.6011 11.3251 11.8203 12.0038 11.8134 12.3231 
12.5864 12.3485 11.9061 11.2348 11.2312 10.6038 10.6038 10.9264 11.6078 
12.9681 13.5376 19.0876 15.0415 16.3857 15.1501 13.3271 16.6939 18.588 
17.9449 19.3788 19.5973 15.4662 18.0343 23.3911 16.9719 19.9271 17.5719 
16.1108 9.9427 10.7253 12.1998 17.5846 17.4912 15.8169 12.3006 13.3052 
13.2143 8.43634 15.1434 13.9645 12.0234 12.0903 11.7463 11.736 12.3454 
12.2533 12.4709 12.4709 12.3066 11.79 10.9331 9.91349 9.07938 9.07938 
7.95006 7.95006 7.65797 7.06644 7.19799 7.65641 7.47982 7.87781 8.15429 
8.31996 8.95786 9.18863 9.67559 9.68205 7.8903 6.88896 14.2542 14.1255 
13.9759 16.5351 16.3035 14.8361 13.8787 12.1505 12.7648 14.0111 15.398 
13.5592 17.4571 18.7616 18.7616 19.7483 19.4069 19.4069 20.7447 19.274 
17.3217 16.0025 15.4252 19.8482 18.4392 16.9897 16.8959 17.779 18.1318 
16.4858 19.5628 18.4397 16.2384 13.9159 12.3171 13.062 16.8343 16.0778 
12.5891 10.0363 8.44771 16.0343 16.058 15.5307 15.0192 15.3476 14.5264 
14.4504 11.5396 11.6201 11.1418 11.5766 11.6805 12.7848 12.9414 9.0223 
10.5041 13.2435 14.5476 14.9423 16.3079 17.0899 15.3284 15.0417 11.8992 
9.52419 9.0107 8.25151 16.3819 13.1543 10.7773 9.23322 6.72062 6.45061 
5.66667 5.78818 5.99532 5.56923 5.10903 5.64192 5.03211 4.65173 4.73579 
4.40936 5.40981 5.69744 5.69744 6.01784 6.20892 6.1233 6.55652 6.61784 
17.1755 12.6158 10.2771 8.72664 14.9545 12.0952 9.97949 8.26689 7.50613 
8.86198 7.46644 7.63701 6.31037 5.98216 5.95764 5.76321 5.53601 14.7389 
12.0482 10.3445 9.40268 9.40268 10.6071 11.309 11.1389 12.5663 12.6685 
12.2872 11.2301 11.3084 10.052 9.90301 9.99911 10.2738 10.295 9.84058 
10.0406 9.41605 8.59866 10.5269 10.0136 9.91416 9.69565 9.79242 9.34091 
8.98952 9.08384 10.0219 8.63679 8.66555 8.0767 7.41405 6.2388 6.03969 
6.5505 4.94827 5.35362 4.98082 5.33244 6.19086 6.19086 7.08205 6.9398 
6.95875 7.06444 6.79264 6.81293 6.91126 7.47648 7.03255 5.36945 5.34939 
4.76878 4.86065 5.08138 5.00089 5.58239 6.16566 6.83501 6.67781 6.73534 
6.23523 5.25552 5.13423 5.2738 5.70524 6.98551 7.25886 7.25886 8.3175 
8.28919 9.71438 8.83478 9.11304 7.91884 5.95853 5.7641 3.86332 6.60268 
6.29275 5.99086 5.534 5.49989 6.16834 6.84504 7.76856 6.89654 7.18618 
8.0408 8.83969 8.91706 
rRFP 1 489 double
2622.02 2567.91 2538.58 2579.49 2317.6 2614.84 2519.62 2507.67 2623.51 
2500.4 2599.06 2593.28 2668.4 2984.75 2498.64 3004.59 2713.86 2888.41 
2797.6 2655.9 3029.59 2499.83 2904.49 2793.99 2924.47 2339.04 2972.51 
3203.21 3197.16 2964.44 2778.56 2918.05 3151.69 2647.52 3110.74 2929.28 
3243.07 2660.96 2583.01 2740.11 2947.36 2750.52 2635.77 2815.86 2756.04 
2665.64 3500.85 2798.51 2901.09 3011.33 2983.42 2982.35 2987.09 2919.8 
2796.88 2674.17 2596.9 2586.17 2656.83 2710.12 2808.73 2873.2 2887.25 
2656.85 2644.16 2669.28 2669.19 2668.86 2687.78 2744 2768.56 2789.9 
2858.49 2862.6 2840.04 2866.48 2886.74 2891.01 2862.02 2835.21 2818.02 
2880.78 2860.15 2892.85 2884.12 2864.91 2907.14 2940.57 2950.98 2682.21 
2663.86 2631.62 2621.83 2621.83 2653.79 2674.69 2674.69 2753.35 2777.83 
2772.53 2782.19 2758.89 2762.54 2739.37 2739.37 2722.51 2747.47 2747.47 
2831.32 2844.54 2874.23 3035.7 3084.32 2798.37 2764.48 2838.58 2851.06 
2883.7 2866.2 2877.67 2891.35 2891.35 2896.11 2826.06 2825.56 2683.63 
2581.37 2529 2637.95 2666.67 2783.23 2965.02 3034.53 3004.86 2968.48 
2897.41 2894.88 2905.43 2905.43 2974.8 3033.94 3033.94 3082.49 3102.52 
3090.21 3171.02 3143.58 3096.19 3081.89 3068.89 3068.99 3072.68 3154.72 
3183.53 3237.07 3218.1 3135.74 3078.84 2730.86 2675.3 2717.04 2971.89 
2912.7 2871.12 2884.2 2851.48 2852.44 2823.78 2850.47 2810.42 2788.17 
2744.31 2745.15 2832.84 3437.14 3318.85 3306.31 3444.56 3321.83 3283.68 
3195.06 3455.6 3391.23 3284.47 3248.1 2683.95 2753.23 2744.81 2677.09 
2697.01 2700.36 2822.81 2822.81 2838.52 2800.07 2837.28 2813.81 2815.48 
2812.91 2909.38 2909.38 3010.72 3020.3 3009.77 3068.98 3125.81 3207.52 
2680.1 2748.11 2748.21 2748.21 2780.68 2802.89 2811.12 2802.58 2825.44 
2837.25 2826.58 2806.74 2776.63 2776.47 2748.33 2748.33 2762.8 2793.36 
2854.37 2879.91 3128.83 2947.36 3007.65 2952.23 2870.47 3021.47 3106.42 
3077.58 3141.89 3151.69 2966.41 3081.59 3321.84 3033.94 3166.48 3060.85 
2995.32 2718.68 2753.78 2819.91 3061.42 3057.23 2982.14 2824.43 2869.49 
2865.41 2651.12 2951.93 2899.06 2812 2815 2799.57 2799.11 2826.44 
2822.31 2832.07 2832.07 2824.7 2801.53 2763.1 2717.37 2679.96 2679.96 
2629.31 2629.31 2616.21 2589.68 2595.58 2616.14 2608.22 2626.07 2638.47 