# vtk DataFile Version 3.0
vtk output
ASCII
DATASET POLYDATA
POINTS 421 float
1.93769 1.60629 1.3824 1.16025 1.60063 1.35874 1.06503 1.65939 1.26746 
-0.1529 1.48614 0.638449 1.13551 1.84862 -0.444584 0.864236 1.86836 -0.485117 
-0.468935 1.55468 -0.0738265 1.59358 0.318149 1.49102 -0.518847 0.975845 0.42616 
-0.388233 1.34591 -0.118561 -0.254491 0.486151 0.806606 -0.36765 0.480676 0.690597 
1.57973 1.7154 -0.945036 -0.544687 0.539567 0.356813 -0.638388 0.814742 -0.295049 
-0.139205 1.18955 -0.592677 2.39384 -0.337354 1.06482 3.29782 0.332136 0.465304 
-0.169184 0.111475 0.650269 1.51536 1.30139 -1.28801 -0.623917 0.530007 -0.169865 
-0.416467 0.804862 -0.659492 2.46389 -0.426106 1.19964 -0.394516 0.0307477 0.402562 
1.26099 -0.665939 1.14811 3.66546 0.0786688 -0.164878 -0.382013 -0.214184 0.050352 
4.48289 -0.207948 -0.415278 -0.356334 -0.111622 -0.817877 5.6084 -0.431588 -0.693466 
5.36161 -0.257628 -0.723313 4.34929 -0.308425 -0.689571 -0.185862 -0.440193 -0.8003 
5.31005 -0.879897 -0.158824 5.78969 -0.529007 -0.660646 4.97585 -0.469797 -0.782245 
4.8617 -0.405492 -0.882547 2.81 -0.196071 -1.27852 1.53963 -1.47806 -0.142028 
1.07646 -1.39459 -0.28523 0.963966 -1.28685 -0.450036 1.00194 -1.30832 -0.416539 
1.03851 -1.33058 -0.381953 1.06656 -1.35756 -0.340689 1.57692 -1.47496 -0.0919981 
1.61263 -1.46026 -0.0327376 1.64211 -1.43654 0.0394077 1.66761 -1.40877 0.118665 
1.71373 -1.36958 0.181778 1.75042 -1.34186 0.24828 1.77766 -1.32561 0.318171 
1.82577 -1.30404 0.367728 1.87113 -1.2715 0.427434 1.91888 -1.22517 0.493281 
1.9845 -1.15646 0.553135 2.05767 -1.09603 0.599081 2.12528 -1.05109 0.64125 
2.1807 -1.00525 0.694863 2.24 -0.887147 0.773975 2.30268 -0.655553 0.896881 
-0.234634 -0.50023 -0.761738 -0.276979 -0.51004 -0.709064 -0.310618 -0.474053 -0.626785 
-0.332479 -0.425516 -0.522853 -0.356311 -0.383872 -0.426445 -0.368156 -0.355032 -0.323789 
-0.373185 -0.323981 -0.210858 -0.377466 -0.275207 -0.0844213 2.79827 -0.0688939 -1.29548 
2.76891 0.0170694 -1.30502 2.73299 0.0651684 -1.3249 2.70188 0.102965 -1.35582 
2.67418 0.148848 -1.38535 2.62278 0.200314 -1.38433 2.56772 0.256003 -1.37645 
2.50804 0.296639 -1.37296 2.4627 0.314034 -1.40069 2.43247 0.314843 -1.45624 
2.4131 0.321672 -1.52029 2.37357 0.342291 -1.55257 2.30645 0.378806 -1.54325 
2.22905 0.428345 -1.51388 2.15272 0.484715 -1.48135 2.09221 0.543618 -1.46521 
2.06113 0.606345 -1.4801 2.01953 0.650766 -1.49475 1.95414 0.675764 -1.49479 
1.88727 0.706181 -1.48967 1.83689 0.751981 -1.49345 1.78601 0.816213 -1.48484 
1.71773 0.891656 -1.44936 1.64732 0.998115 -1.3937 1.58613 1.13864 -1.33964 
2.73438 -0.321631 -1.32066 2.65892 -0.421662 -1.37419 2.58301 -0.490891 -1.42043 
2.50654 -0.534478 -1.45171 2.4307 -0.552704 -1.46757 2.36181 -0.554605 -1.48086 
2.305 -0.543566 -1.49962 2.24464 -0.540743 -1.51958 2.18834 -0.548136 -1.55074 
2.12013 -0.574615 -1.58057 2.04454 -0.598943 -1.60062 1.96835 -0.59865 -1.6042 
1.9001 -0.575231 -1.60199 1.84998 -0.541769 -1.61398 1.80038 -0.526738 -1.63837 
1.73264 -0.52176 -1.64857 1.6562 -0.515363 -1.64795 1.57802 -0.497454 -1.63798 
1.50002 -0.485691 -1.63215 1.42358 -0.479294 -1.63153 1.35583 -0.474316 -1.64172 
1.30623 -0.459285 -1.66611 1.25663 -0.444255 -1.69051 1.18896 -0.439319 -1.70063 
1.11403 -0.439822 -1.70298 1.04469 -0.445032 -1.69809 0.98701 -0.456905 -1.68283 
0.925759 -0.466762 -1.6707 0.86816 -0.478677 -1.65536 0.80015 -0.484727 -1.64918 
0.733406 -0.49149 -1.64188 0.683952 -0.501943 -1.6151 0.642333 -0.504718 -1.57287 
0.601368 -0.483666 -1.51294 0.559968 -0.444217 -1.44053 0.51815 -0.392449 -1.35994 
0.475319 -0.346144 -1.2845 0.427007 -0.30281 -1.21817 0.375296 -0.263603 -1.15911 
0.344717 -0.242352 -1.08577 0.31091 -0.231384 -1.02383 0.271962 -0.235663 -0.979254 
0.232096 -0.251517 -0.944052 0.191065 -0.272767 -0.914157 0.143193 -0.290161 -0.890274 
0.0860375 -0.302326 -0.874549 0.0449999 -0.323571 -0.84466 0.0143743 -0.352731 -0.807003 
-0.0380154 -0.376197 -0.791988 -0.100229 -0.407382 -0.788016 2.91118 -0.115277 -1.20861 
2.98652 -0.0483172 -1.14574 3.03437 -0.00297181 -1.07842 3.0726 0.0255506 -1.01304 
3.10954 0.0471695 -0.950738 3.14656 0.0625978 -0.892506 3.18342 0.0841729 -0.830139 
3.22027 0.105756 -0.767765 3.25729 0.121185 -0.709533 3.29483 0.118181 -0.6637 
3.33271 0.102892 -0.626131 3.37076 0.0814574 -0.592696 3.40864 0.0661688 -0.555127 
3.44617 0.0631653 -0.509294 3.4832 0.0785937 -0.451061 3.52005 0.100177 -0.388688 
3.55715 0.115562 -0.330389 3.5958 0.111766 -0.283331 3.63747 0.0971771 -0.233367 
4.89975 -0.426927 -0.849113 4.9378 -0.448362 -0.815679 5.55223 -0.420889 -0.755935 
5.48987 -0.399555 -0.776961 5.43146 -0.340522 -0.765354 5.6937 -0.463916 -0.699416 
5.74879 -0.498191 -0.686011 5.28331 -0.845955 -0.197105 5.2728 -0.7843 -0.236092 
5.26135 -0.691973 -0.254354 5.23109 -0.585111 -0.24188 5.19205 -0.47688 -0.218544 
5.15064 -0.382441 -0.201343 5.10203 -0.29823 -0.182515 5.0411 -0.220842 -0.154033 
4.98232 -0.136037 -0.123246 4.9118 -0.0764434 -0.0952669 4.83641 -0.0569897 -0.0874769 
4.76984 -0.0887911 -0.122589 4.72369 -0.14672 -0.197677 4.68486 -0.205699 -0.281958 
4.63765 -0.239759 -0.343899 4.56748 -0.241005 -0.37813 -0.235478 -0.296919 -0.785228 
-0.278631 -0.196299 -0.777287 -0.318039 -0.141296 -0.789891 4.38731 -0.295143 -0.630311 
4.42983 -0.259304 -0.542445 5.35767 -0.158836 -0.565018 5.36425 -0.079171 -0.430957 
5.39886 -0.027643 -0.34683 5.45627 -0.0360751 -0.3275 5.51277 -0.122632 -0.364649 
5.57056 -0.270333 -0.487834 5.32467 -0.279247 -0.785618 5.28592 -0.283162 -0.834496 
5.23884 -0.254254 -0.85287 5.17883 -0.207552 -0.845114 5.12187 -0.134211 -0.82375 
5.06135 -0.069077 -0.803594 5.01343 -0.00944402 -0.8013 4.9734 0.0296068 -0.821183 
4.93363 0.0563287 -0.849268 4.88558 0.0721366 -0.874749 4.81932 0.0763596 -0.883761 
4.75278 0.0711261 -0.878727 4.70467 0.060004 -0.850899 4.67138 0.0525407 -0.801359 
4.65048 0.0622863 -0.723789 4.62582 0.0862544 -0.64096 4.60624 0.101309 -0.557948 
4.58415 0.0763321 -0.506248 4.57171 0.00451682 -0.470809 4.54743 -0.0985311 -0.444734 
-0.364933 -0.0676235 -0.870359 -0.385057 -0.0112972 -0.901822 -0.403807 0.0909823 -0.905305 
-0.432907 0.253846 -0.856574 -0.448099 0.496284 -0.76293 -0.425978 -0.0139251 -0.740307 
-0.479325 0.0685328 -0.652707 -0.531195 0.147186 -0.566004 -0.590434 0.251937 -0.471949 
-0.62557 0.381143 -0.340244 -0.388264 -0.0917182 0.226457 -0.460732 -0.0655512 0.144749 
-0.522285 0.0988282 0.229708 -0.543573 0.304249 0.295155 3.63446 0.0774911 -0.0847674 
3.5961 0.0891074 -0.010682 3.5646 0.103359 0.0597516 3.51458 0.123368 0.107583 
3.47369 0.144377 0.167584 3.44185 0.166341 0.239817 3.38989 0.211737 0.302947 
3.34124 0.267365 0.377543 -0.502863 0.750202 -0.624938 -0.551424 0.713647 -0.58477 
-0.575228 0.70629 -0.517309 -0.605759 0.746359 -0.42215 1.19332 -0.660921 1.13786 
1.13667 -0.649798 1.11899 1.07761 -0.640008 1.102 1.0308 -0.623429 1.07542 
0.989717 -0.597435 1.04836 0.941002 -0.563196 1.03528 0.87239 -0.521271 1.04976 
0.796397 -0.477186 1.07403 0.727712 -0.435301 1.08857 0.677677 -0.401794 1.07652 
0.629303 -0.379841 1.05516 0.570166 -0.370094 1.03824 0.513511 -0.358972 1.01936 
0.445922 -0.353909 1.00905 0.379726 -0.348075 0.997645 0.333154 -0.331364 0.970882 
0.303709 -0.305161 0.930714 0.29503 -0.261206 0.878295 0.294693 -0.200154 0.827344 
0.295158 -0.119942 0.787764 0.294138 -0.0343027 0.753353 0.284607 0.0403691 0.721597 
0.25465 0.0850044 0.693828 0.207658 0.113965 0.675397 0.139803 0.131269 0.673414 
0.0643557 0.149198 0.683468 -0.00515361 0.150221 0.692358 -0.0625274 0.133774 0.701161 
-0.121503 0.115671 0.685818 -0.639924 0.676257 -0.237489 -0.615394 0.322977 -0.173701 
-0.612894 0.208209 -0.142377 -0.612575 0.219248 -0.0393148 -0.597302 0.345991 0.137969 
1.43612 1.30891 -1.24054 1.35858 1.33102 -1.21022 1.28825 1.35341 -1.18446 
1.22885 1.35858 -1.1592 1.1606 1.35872 -1.14894 1.09361 1.35814 -1.13757 
1.04231 1.36688 -1.09957 0.991318 1.41172 -1.03559 0.931331 1.50397 -0.949537 
0.889124 1.6225 -0.822159 0.872051 1.74501 -0.659849 -0.354421 -0.0644227 0.386395 
-0.31544 -0.116539 0.399098 -0.276943 -0.100287 0.456184 -0.23162 -0.0178637 0.547925 
-0.389283 0.252079 0.547224 2.51747 -0.387898 0.959215 2.59595 -0.439215 0.879439 
2.6601 -0.482318 0.826684 2.70911 -0.49565 0.782147 2.75022 -0.474443 0.752319 
2.79047 -0.422512 0.74316 2.83706 -0.356003 0.752412 2.89395 -0.289248 0.775003 
2.94045 -0.222693 0.784182 2.97919 -0.163871 0.777979 3.01154 -0.119587 0.753304 
3.04059 -0.0855348 0.717161 3.09076 -0.0694377 0.695303 3.13737 -0.0513297 0.670307 
3.17825 -0.0299987 0.640285 3.21668 -0.00728394 0.608104 3.24789 0.0255524 0.573858 
3.26693 0.0773305 0.537494 3.28769 0.146286 0.515485 3.2963 0.234191 0.491364 
2.44416 -0.375978 1.13759 -0.390223 0.941199 -0.678559 -0.347617 1.04706 -0.664913 
-0.311536 1.13273 -0.658029 -0.253044 1.18339 -0.641317 -0.188492 1.19835 -0.621075 
-0.363128 1.00777 -0.471087 -0.357823 1.18411 -0.284992 -0.606235 0.688153 0.0271952 
-0.616313 0.824596 0.188996 -0.608974 0.912723 0.310528 -0.564418 0.961828 0.378738 
1.56435 1.52277 -1.13279 -0.228581 0.289532 0.741542 -0.195093 0.308093 0.715332 
3.22633 0.472291 0.546043 3.16513 0.593205 0.602729 3.09368 0.683385 0.651563 
3.01645 0.76272 0.703016 2.94464 0.843572 0.7657 2.88331 0.918434 0.837723 
2.81311 0.986201 0.893384 2.74325 1.04168 0.940781 2.68301 1.07964 0.988066 
2.61366 1.11668 1.02306 2.54448 1.14758 1.05392 2.48425 1.18554 1.1012 
2.41439 1.24102 1.1486 2.34426 1.30882 1.20419 2.28501 1.35989 1.25859 
2.22293 1.40246 1.28567 2.16538 1.43655 1.28572 2.09546 1.47143 1.29735 
2.01757 1.52693 1.3311 2.30651 -0.179969 1.23876 2.22272 -0.0261505 1.36506 
2.14257 0.101395 1.45093 2.07086 0.197673 1.50396 2.01112 0.263235 1.5235 
1.9413 0.292016 1.53093 1.86478 0.298368 1.53161 1.78719 0.29789 1.52912 
1.71092 0.29814 1.5256 1.64318 0.303118 1.51541 -0.55717 1.00931 -0.173852 
-0.497109 1.16268 -0.0940475 -0.439886 1.25197 -0.0562775 -0.402196 1.30336 -0.0691659 
-0.525069 0.761418 0.386244 -0.461662 0.675128 0.503855 -0.410337 0.754292 0.609542 
-0.380259 0.742971 0.663005 -0.370122 0.640029 0.683712 -0.286214 0.49225 0.738704 
-0.428669 1.45336 -0.0941289 -0.45366 1.08631 0.49031 -0.39886 1.19657 0.541044 
-0.341232 1.29117 0.584228 -0.292831 1.37938 0.609966 -0.237047 1.44443 0.621763 
0.9419 1.86888 -0.482689 1.01817 1.86863 -0.47917 1.08591 1.86365 -0.468975 
0.805737 1.85695 -0.470572 0.766764 1.84059 -0.434585 0.71333 1.84448 -0.40274 
0.657454 1.86788 -0.360193 0.597907 1.89941 -0.316581 0.55712 1.91431 -0.260776 
0.534298 1.90094 -0.202032 0.502533 1.88052 -0.159711 0.462837 1.85852 -0.128643 
0.414972 1.84112 -0.104754 0.356619 1.82963 -0.0900811 0.310089 1.81148 -0.0650189 
0.27864 1.78484 -0.0267048 0.265848 1.74768 0.0280043 0.252886 1.71667 0.0868484 
0.220925 1.70845 0.137562 0.173296 1.72721 0.187355 0.11249 1.75944 0.22986 
0.0567849 1.7767 0.268273 0.00527364 1.76135 0.288958 -0.0230951 1.70274 0.308566 
-0.0534445 1.63917 0.322143 -0.0817743 1.59263 0.35035 -0.0948289 1.57169 0.416333 
-0.10744 1.56156 0.492821 -0.13195 1.54169 0.561161 -0.068154 1.47257 0.666551 
0.00222351 1.47439 0.693305 0.0501449 1.48441 0.737909 0.0901687 1.49729 0.791207 
0.135713 1.52368 0.846773 0.192177 1.55613 0.893799 0.239114 1.58329 0.948274 
0.287535 1.60504 0.997588 0.352689 1.6423 1.03781 0.419156 1.68029 1.077 
0.47626 1.70685 1.11952 0.544809 1.72104 1.14108 0.619597 1.7262 1.14976 
0.688658 1.72196 1.15892 0.746785 1.71165 1.17664 0.814446 1.70663 1.1869 
0.880872 1.7009 1.19816 0.931693 1.68611 1.22224 0.988294 1.67153 1.24625 
1.11959 1.62904 1.31483 
LINES 44 514
5 40 41 42 43 39 
18 38 44 45 46 47 48 49 50 51 52 53 54 55 56 57 58 59 16 
10 32 60 61 62 63 64 65 66 67 26 
27 37 68 69 70 71 72 73 74 75 76 77 78 79 80 81 82 83 84 85 86 87 88 89 90 91 92 19 
52 37 93 94 95 96 97 98 99 100 101 102 103 104 105 106 107 108 109 110 111 112 113 114 115 116 117 118 119 120 121 122 123 124 125 126 127 128 129 130 131 132 133 134 135 136 137 138 139 140 141 142 32 
4 36 162 163 35 
5 29 164 165 166 30 
4 29 167 168 34 
18 33 169 170 171 172 173 174 175 176 177 178 179 180 181 182 183 184 27 
5 32 185 186 187 28 
4 31 188 189 27 
8 30 190 191 192 193 194 195 29 
22 30 196 197 198 199 200 201 202 203 204 205 206 207 208 209 210 211 212 213 214 215 27 
7 28 216 217 218 219 220 21 
7 28 221 222 223 224 225 20 
3 26 226 23 
5 26 227 228 229 13 
6 21 238 239 240 241 14 
31 24 242 243 244 245 246 247 248 249 250 251 252 253 254 255 256 257 258 259 260 261 262 263 264 265 266 267 268 269 270 18 
3 20 271 14 
6 20 272 273 274 275 13 
13 19 276 277 278 279 280 281 282 283 284 285 286 5 
6 23 287 288 289 290 18 
3 23 291 11 
22 16 292 293 294 295 296 297 298 299 300 301 302 303 304 305 306 307 308 309 310 311 17 
3 22 312 16 
7 21 313 314 315 316 317 15 
4 21 318 319 9 
6 20 320 321 322 323 8 
3 19 324 12 
3 18 325 10 
3 18 326 10 
21 17 327 328 329 330 331 332 333 334 335 336 337 338 339 340 341 342 343 344 345 0 
12 16 346 347 348 349 350 351 352 353 354 355 7 
6 14 356 357 358 359 9 
3 13 360 8 
6 13 361 362 363 364 11 
3 11 365 10 
3 9 366 6 
7 8 367 368 369 370 371 3 
5 5 372 373 374 4 
28 5 375 376 377 378 379 380 381 382 383 384 385 386 387 388 389 390 391 392 393 394 395 396 397 398 399 400 3 
30 37 143 144 145 146 147 148 149 150 151 152 153 154 155 156 157 158 159 160 161 25 230 231 232 233 234 235 236 237 17 
23 3 401 402 403 404 405 406 407 408 409 410 411 412 413 414 415 416 417 418 419 2 420 1 

POINT_DATA 421
SCALARS DY_raw double
LOOKUP_TABLE default
599.797 480.429 335.062 357.365 509.799 472.374 422.727 226.719 400.012 
406.638 567.476 594.952 445.856 378.556 305.347 309.719 333.81 378.139 
455.606 363.395 414.681 367.298 566.326 374.669 470.696 314.84 335.176 
374.575 255.338 542.057 556.401 180.819 279.17 487.301 807.867 437.137 
361.043 340.208 267.106 438.012 332.404 373.895 373.895 371.747 315.556 
322.562 344.124 370.79 387.343 416.132 440.809 447.423 389.326 396.271 
360.804 387.919 358.471 380.692 437.995 432.43 278.718 308.502 322.153 
338.294 360.897 290.241 312.372 321.722 270.632 303.47 249.644 243.994 
272.07 305.114 354.381 354.381 299.056 299.056 278.171 303.731 345.177 
354.432 326.27 368.56 283.701 260.657 273.347 207.954 216.112 268.012 
286.308 277.416 357.747 296.363 286.578 313.109 312.023 317.82 355.386 
343.606 324.496 353.057 331.368 331.368 367.979 366.537 416.503 377.559 
365.591 494.793 373.103 353.41 390.822 315.918 296.361 320.023 333.695 
314.447 276.885 294.952 328.432 311.295 379.802 365.918 365.918 346.895 
401.075 398.097 328.323 345.526 358.482 351.14 374.093 367.493 364.785 
364.785 409.072 409.072 461.749 475.803 432.715 400.918 348.31 319.146 
347.35 411.436 509.842 480.18 529.36 560.4 499.071 525.16 446.471 
477.608 477.608 433.825 392.62 458.283 376.12 327.789 281.945 275.912 
377.453 437.137 481.463 446.412 527.194 551.74 664.604 437.724 404.344 
436.987 517.754 513.527 551.169 589.497 533.701 594.709 537.876 454.242 
495.478 534.737 509.191 448.818 385.03 291.544 315.625 302.473 234.693 
280.139 567.098 606.972 571.691 571.691 500.69 603.828 515.233 515.233 
499.678 457.972 512.237 462.745 457.105 477.134 495.184 495.184 471.986 
450.753 450.753 428.075 442.096 486.288 491.281 511.317 469.367 441.827 
212.137 208.221 229.297 284.403 322.238 277.402 309.84 303.811 337.127 
349.234 379.307 323.65 306.921 364.145 306.761 346.854 349.913 373.309 
418.684 433.198 434.337 459.463 402.175 376.682 311.62 291.387 372.128 
397.482 318.421 294.877 322.447 264.65 327.093 371.298 483.225 483.225 
574.556 531.534 568.11 453.134 395.778 395.778 341.244 393.042 394.939 
463.852 474.068 432.515 371.989 371.989 436.145 534.355 489.449 506.334 
506.493 323.116 436.788 412.778 354.665 352.484 378.944 436.896 454.712 
380.879 367.791 305.063 312.153 310.404 373.676 389.32 434.384 381.241 
379.344 401.812 495.492 493.639 320.403 343.914 326.623 307.324 290.796 
366.469 392.145 376.994 403.834 401.52 390.83 390.83 396.175 393.622 
393.622 410.101 443.118 443.723 432.651 381.637 415.772 306.345 291.816 
273.731 286.715 309.719 441.306 369.786 435.252 468.566 448.438 421.224 
404.994 675.744 542.203 358.69 376.556 341.652 339.127 356.531 345.629 
332.932 387.859 352.747 386.981 356.458 341.922 386.578 433.82 406.601 
404.974 415.472 406.288 455.863 425.885 487.788 426.108 359.071 300.245 
326.071 234.189 234.189 223.084 226.719 451.43 487.841 477.053 431.061 
381.519 411.891 439.713 466.183 518.24 533.469 423.223 313.608 385.672 
381.161 403.851 369.661 472.374 561.807 563.401 381.877 381.877 372.001 
331.623 350.179 394.76 408.696 408.696 386.963 386.963 368.041 361.313 
361.313 393.354 427.371 494.368 601.729 628.814 568.69 488.067 488.067 
419.013 330.595 300.78 294.846 315.986 334.9 356.395 406.652 360.449 
393.236 450.065 449.634 506.183 501.978 530.551 504.811 438.618 447.339 
368.104 326.489 350.424 328.466 311.685 340.18 377.765 
FIELD FieldData 7
DY_minmax 1 421 double
0.668176 0.47781 0.245983 0.281551 0.524649 0.464964 0.385788 0.0731999 0.349563 
0.360131 0.616631 0.660448 0.422674 0.315346 0.198595 0.205567 0.243986 0.31468 
0.438223 0.291168 0.372958 0.297392 0.614797 0.309147 0.462289 0.213733 0.246165 
0.308998 0.118841 0.576092 0.598968 0 0.156848 0.48877 1 0.40877 
0.287416 0.254189 0.137609 0.410164 0.241744 0.307913 0.307913 0.304487 0.214875 
0.226048 0.260434 0.30296 0.32936 0.375271 0.414625 0.425173 0.332521 0.343597 
0.287036 0.330277 0.283315 0.318753 0.410137 0.401263 0.156127 0.203626 0.225395 
0.251137 0.287184 0.174503 0.209798 0.224708 0.143232 0.195601 0.109761 0.10075 
0.145524 0.198223 0.276792 0.276792 0.188562 0.188562 0.155254 0.196018 0.262114 
0.276873 0.231962 0.299405 0.164073 0.127324 0.147562 0.0432737 0.0562839 0.139052 
0.168231 0.154051 0.282161 0.184266 0.168661 0.210973 0.209241 0.218486 0.278395 
0.259609 0.229132 0.274681 0.240092 0.240092 0.298477 0.296178 0.375863 0.313755 
0.29467 0.500717 0.306649 0.275243 0.334907 0.215453 0.184263 0.221999 0.243803 
0.213107 0.153203 0.182017 0.23541 0.20808 0.317333 0.295191 0.295191 0.264853 
0.351259 0.34651 0.235236 0.262671 0.283332 0.271624 0.308229 0.297703 0.293384 
0.293384 0.364013 0.364013 0.448021 0.470434 0.401716 0.351009 0.26711 0.220601 
0.26558 0.367782 0.524717 0.477413 0.555844 0.605346 0.50754 0.549147 0.423654 
0.473311 0.473311 0.403487 0.337775 0.442493 0.311461 0.234383 0.161273 0.151652 
0.313587 0.40877 0.47946 0.42356 0.55239 0.591536 0.771528 0.409705 0.356471 
0.40853 0.537335 0.530594 0.590624 0.651749 0.562766 0.660061 0.569425 0.436048 
0.501809 0.564419 0.523679 0.427398 0.325671 0.176582 0.214985 0.194011 0.0859166 
0.158392 0.616028 0.679618 0.623353 0.623353 0.510123 0.674604 0.533315 0.533315 
0.508509 0.441996 0.528537 0.449609 0.440614 0.472556 0.501341 0.501341 0.464345 
0.430484 0.430484 0.394318 0.416678 0.487153 0.495117 0.52707 0.460169 0.416249 
0.049945 0.0437004 0.0773119 0.165193 0.225532 0.154028 0.205759 0.196144 0.249277 
0.268585 0.316544 0.227784 0.201105 0.292363 0.200849 0.264789 0.269667 0.306978 
0.37934 0.402488 0.404303 0.444374 0.353013 0.312358 0.208597 0.176331 0.305094 
0.345528 0.219444 0.181896 0.225864 0.133691 0.233274 0.303771 0.482269 0.482269 
0.627921 0.55931 0.617642 0.434281 0.342811 0.342811 0.255841 0.338447 0.341473 
0.451374 0.467666 0.401398 0.304873 0.304873 0.407187 0.56381 0.492195 0.519123 
0.519377 0.226931 0.408212 0.369922 0.277245 0.273767 0.315964 0.408385 0.436798 
0.319051 0.298177 0.198141 0.209448 0.206659 0.307563 0.332512 0.404379 0.319628 
0.316602 0.352433 0.501832 0.498878 0.222606 0.2601 0.232525 0.201747 0.175388 
0.296069 0.337018 0.312854 0.355659 0.351969 0.33492 0.33492 0.343444 0.339373 
0.339373 0.365653 0.418308 0.419273 0.401614 0.320259 0.374696 0.200185 0.177015 
0.148174 0.168881 0.205567 0.415418 0.30136 0.405763 0.458892 0.426792 0.383391 
0.357508 0.789293 0.576326 0.283664 0.312156 0.256493 0.252465 0.280221 0.262835 
0.242586 0.330183 0.274187 0.328783 0.280104 0.256922 0.328139 0.40348 0.360071 
0.357477 0.374218 0.359572 0.438633 0.390825 0.489547 0.391181 0.284271 0.190458 
0.231645 0.0851125 0.0851125 0.0674031 0.0731999 0.431564 0.489631 0.472427 0.39908 
0.320071 0.368508 0.412877 0.455091 0.53811 0.562396 0.386579 0.211768 0.326695 
0.319501 0.355685 0.301161 0.464964 0.607589 0.610132 0.320642 0.320642 0.304893 
0.240499 0.27009 0.341187 0.363412 0.363412 0.328753 0.328753 0.298577 0.287848 
0.287848 0.338945 0.393195 0.500041 0.671257 0.71445 0.618567 0.489991 0.489991 
0.379865 0.238859 0.191311 0.181848 0.21556 0.245725 0.280004 0.360153 0.286469 
0.338757 0.429387 0.428699 0.518882 0.512176 0.557744 0.516695 0.411131 0.425039 
0.298678 0.232311 0.270482 0.235464 0.208702 0.254144 0.314085 
WidthEq 1 421 double
2.00536 1.93696 3.34592 3.28021 1.08678 2.05376 1.49842 3.88883 3.26346 
2.60891 2.78357 2.53865 2.90045 3.51816 4.3329 3.70636 4.83485 2.61243 
3.3889 3.03502 3.69385 3.50721 2.61379 4.08241 2.53811 2.66079 3.96216 
4.28856 4.40366 2.61216 3.38878 1.57633 3.38124 3.08906 1.46446 2.53815 
2.59125 3.4509 2.66636 2.80915 2.9222 3.39397 3.39397 3.59589 2.53414 
2.81419 3.13832 3.04286 3.06488 2.8137 2.66742 2.43951 2.68038 2.71252 
2.97533 2.91507 3.13878 3.14856 2.97196 3.29847 3.2046 3.02251 2.97396 
2.91909 3.3128 3.68305 3.996 4.10856 3.99229 3.7582 3.75699 3.36525 
3.29317 2.97135 2.95236 2.95236 3.39742 3.39742 3.37832 2.76231 2.60383 
2.40176 2.453 2.45179 3.52604 4.05967 3.91202 4.91269 4.93944 4.46895 
4.01757 4.04212 3.24447 3.50459 3.284 3.02281 3.07564 3.21669 3.00474 
3.29313 3.39496 3.27471 3.36889 3.36889 3.14586 3.20798 2.81059 3.10763 
2.97165 2.28928 2.75018 2.84466 2.62429 2.97995 3.04335 3.0075 3.02543 
3.23905 3.52476 3.44453 3.07704 3.08045 2.4641 2.42609 2.42609 2.38638 
2.2695 2.26412 2.9153 2.96733 3.201 3.54317 3.37472 3.34137 3.25019 
3.25019 3.03081 3.03081 2.91253 2.98613 3.18501 3.27536 3.52055 3.52165 
3.07955 2.51697 1.8656 1.50619 1.47272 1.38564 1.44388 1.45548 1.48019 
1.41436 1.41436 1.38439 1.42744 1.36021 1.76396 2.0912 2.44417 2.62736 
2.66878 2.53815 2.85891 3.02857 3.12881 2.37599 1.9572 3.4792 4.03212 
3.87371 3.67824 3.63973 3.4631 3.34933 3.49224 3.09489 3.09804 3.56599 
3.05211 3.07723 3.49853 4.00532 4.38418 3.5207 3.66524 3.98638 3.07496 
3.77506 3.32447 3.01823 2.83996 2.83996 2.83223 2.19814 3.58945 3.58945 
3.64849 3.53806 3.45961 3.49558 3.55253 3.53662 3.29571 3.29571 3.37669 
3.25595 3.25595 3.30886 3.04339 3.39606 3.45332 3.65 3.81376 4.30721 
4.43723 4.42511 4.47612 3.63723 3.6536 4.25575 3.98755 4.05038 4.10056 
4.17184 4.14395 4.56904 4.9239 4.47229 2.41188 2.0624 1.90585 1.91445 
1.88398 2.06225 2.41624 2.35401 3.52904 3.6109 3.81774 4.43644 3.54177 
3.35991 3.95348 3.98835 3.68021 3.42876 2.85118 2.77758 2.18886 2.18886 
1.98054 2.36049 2.30676 2.92951 3.25804 3.25804 3.41296 3.0753 2.8472 
2.54497 2.60663 2.99625 3.67293 3.67293 3.37874 2.84659 3.01349 2.93891 
2.98727 4.77603 3.02729 2.86808 3.65277 3.82948 2.71043 2.45228 2.24184 
2.42859 2.44368 2.77209 2.99818 3.10441 2.95577 2.63865 2.64946 3.79655 
3.81641 3.56277 2.94126 3.29192 4.58435 3.95515 3.61279 3.28032 2.94069 
2.80627 2.70831 2.90859 2.86274 2.82041 2.84011 2.84011 2.63225 2.59356 
2.59356 2.43538 2.41351 2.45766 2.57067 2.61304 4.14213 3.58293 3.57667 
3.71492 3.89599 3.70636 2.83291 2.7127 3.02361 2.76712 2.95729 3.21169 
3.18353 2.19625 2.85129 3.00318 3.26653 3.60165 3.64849 3.53366 3.51953 
3.07219 3.02986 2.97332 2.60405 2.72639 2.68258 2.36788 2.37868 2.60819 
2.72479 2.79047 2.8422 2.63566 3.85018 2.96707 2.74374 2.98738 3.46784 
3.36589 4.18825 4.18825 4.27947 3.88883 2.99147 2.32453 2.28633 2.63297 
3.43517 3.43339 3.13014 2.77061 2.73798 2.85755 2.1424 3.16243 2.65791 
2.50674 2.7293 3.12976 2.05376 1.31871 1 2.08866 2.08866 1.84373 
1.95837 1.95549 1.91104 1.96951 1.96951 2.19913 2.19913 2.28891 2.37069 
2.37069 1.98941 1.67555 1.55712 1.20089 1.10713 1.23011 1.46154 1.46154 
1.75983 2.46232 3.05798 3.34554 3.48405 3.08743 2.77558 2.45478 2.22437 
1.74516 1.6115 1.59274 1.67847 1.88921 1.98171 2.21588 2.48574 2.53323 
3.19695 3.61719 3.57641 3.80216 3.96603 3.61938 2.77254 
rRFP 1 421 double
2773.3 2755.25 3127.04 3109.7 2530.91 2786.07 2639.53 3270.3 3105.28 
2932.56 2978.65 2914.02 3009.49 3172.49 3387.48 3222.15 3519.93 2933.49 
3138.38 3045 3218.85 3169.6 2933.85 3321.38 2913.88 2946.25 3289.65 
3375.78 3406.15 2933.42 3138.35 2660.09 3136.36 3059.26 2630.57 2913.89 
2927.9 3154.74 2947.72 2985.4 3015.23 3139.72 3139.72 3193 2912.83 
2986.73 3072.26 3047.07 3052.88 2986.6 2948 2887.86 2951.42 2959.9 
3029.25 3013.35 3072.38 3074.96 3028.36 3114.52 3089.75 3041.7 3028.89 
3014.41 3118.3 3216 3298.58 3328.28 3297.6 3235.83 3235.51 3132.14 
3113.12 3028.2 3023.19 3023.19 3140.63 3140.63 3135.59 2973.04 2931.22 
2877.9 2891.42 2891.1 3174.57 3315.38 3276.42 3540.47 3547.53 3423.38 
3304.27 3310.75 3100.27 3168.91 3110.7 3041.78 3055.72 3092.94 3037.01 
3113.11 3139.98 3108.25 3133.1 3133.1 3074.25 3090.64 2985.78 3064.16 
3028.28 2848.22 2969.84 2994.77 2936.62 3030.47 3047.2 3037.74 3042.47 
3098.84 3174.23 3153.06 3056.09 3056.99 2894.35 2884.32 2884.32 2873.84 
2843 2841.58 3013.41 3027.14 3088.8 3179.09 3134.64 3125.84 3101.78 
3101.78 3043.89 3043.89 3012.68 3032.1 3084.58 3108.42 3173.12 3173.41 
3056.75 2908.3 2736.42 2641.58 2632.75 2609.77 2625.14 2628.2 2634.72 
2617.35 2617.35 2609.44 2620.8 2603.06 2709.6 2795.95 2889.09 2937.43 
2948.36 2913.89 2998.53 3043.3 3069.75 2871.1 2760.59 3162.21 3308.11 
3266.31 3214.73 3204.57 3157.96 3127.94 3165.65 3060.8 3061.63 3185.11 
3049.51 3056.14 3167.31 3301.04 3401.01 3173.16 3211.3 3296.04 3055.54 
3240.28 3121.38 3040.57 2993.53 2993.53 2991.49 2824.17 3191.3 3191.3 
3206.88 3177.74 3157.04 3166.53 3181.56 3177.36 3113.79 3113.79 3135.16 
3103.3 3103.3 3117.26 3047.21 3140.27 3155.38 3207.28 3250.49 3380.7 
3415.01 3411.81 3425.27 3203.91 3208.23 3367.12 3296.35 3312.93 3326.17 
3344.98 3337.62 3449.79 3543.43 3424.26 2880.57 2788.35 2747.04 2749.31 
2741.27 2788.31 2881.72 2865.3 3175.36 3196.96 3251.54 3414.8 3178.72 
3130.73 3287.36 3296.56 3215.25 3148.9 2996.49 2977.07 2821.72 2821.72 
2766.75 2867.01 2852.83 3017.16 3103.85 3103.85 3144.73 3055.63 2995.44 
2915.69 2931.96 3034.77 3213.33 3213.33 3135.7 2995.28 3039.32 3019.64 
3032.4 3504.41 3042.96 3000.95 3208.01 3254.64 2959.35 2891.23 2835.7 
2884.98 2888.96 2975.62 3035.28 3063.31 3024.09 2940.41 2943.26 3245.95 
3251.19 3184.26 3020.26 3112.79 3453.83 3287.8 3197.46 3109.73 3020.11 
2984.64 2958.79 3011.64 2999.54 2988.37 2993.57 2993.57 2938.72 2928.51 
2928.51 2886.77 2881 2892.65 2922.47 2933.65 3337.14 3189.58 3187.93 
3224.41 3272.19 3222.15 2991.67 2959.95 3041.99 2974.31 3024.49 3091.62 
3084.19 2823.67 2996.52 3036.6 3106.09 3194.52 3206.88 3176.58 3172.85 
3054.81 3043.64 3028.72 2931.28 2963.56 2952 2868.96 2871.81 2932.37 
2963.14 2980.47 2994.12 2939.62 3260.1 3027.07 2968.14 3032.43 3159.21 
3132.31 3349.31 3349.31 3373.38 3270.3 3033.51 2857.52 2847.44 2938.91 
3150.59 3150.12 3070.1 2975.23 2966.62 2998.17 2809.46 3078.62 2945.49 
2905.6 2964.33 3070 2786.07 2592.11 2508.01 2795.28 2795.28 2730.65 
2760.9 2760.14 2748.41 2763.84 2763.84 2824.43 2824.43 2848.12 2869.7 
2869.7 2769.09 2686.27 2655.02 2561.02 2536.28 2568.73 2629.8 2629.8 
2708.51 2893.88 3051.06 3126.94 3163.49 3058.83 2976.54 2891.89 2831.09 
2704.64 2669.37 2664.42 2687.04 2742.65 2767.06 2828.85 2900.06 2912.59 
3087.73 3198.62 3187.86 3247.43 3290.67 3199.2 2975.74 
rGFP 1 421 double
3757.46 3485.22 3675.74 3726.88 3108.69 3524.79 3188.07 3436.32 3860.07 
3615.53 4134.26 4065.02 3847.83 3886.47 3877.69 3702.58 4168.57 3542.51 
4098.65 3657.56 4086.42 3842.84 4034.91 4084.2 3749.33 3392.37 3882.67 
4161.04 3679.07 3970.59 4440.17 2839.68 3498.59 4059.95 3737.74 3664.17 
3490.2 3728.67 3266.85 3785.09 3526 3823.64 3823.64 3891.41 3354.31 
3462.4 3634.62 3682.91 3741.81 3725.52 3730.47 3646.14 3598.19 3629.54 
3628.16 3685.46 3679.81 3753.28 3856.35 3981.01 3447.83 3487.1 3512.72 
3542.16 3750.23 3623.62 3802.89 3876.46 3635.09 3695.15 3492.56 3375.75 
3450.62 3461.25 3600.91 3600.91 3570.67 3570.67 3494.4 3393.65 3453.43 
3405.91 3354.99 3458.28 3554.99 3612.83 3623.99 3576.26 3622.12 3752.38 
3704.91 3676 3715.35 3593.28 3495.77 3501.12 3514.32 3576.98 3622.49 
3686.19 3656.3 3710.81 3670.99 3670.99 3712.26 3730.49 3725.27 3727.96 
3641.06 3687.37 3580.75 3559.98 3580.28 3496.07 3456.58 3517.12 3564.22 
3573.16 3530.6 3570.62 3565.25 3513.58 3490.52 3442.4 3442.4 3382.47 
3464.89 3455.99 3511.81 3579.94 3702.15 3798.8 3817.11 3782.58 3740.27 
3740.27 3794.47 3794.47 3899.51 3975.46 3932.85 3867.8 3780.89 3678.57 
3624.33 3590.22 3505.81 3277.89 3334.25 3331.16 3275.25 3319.01 3215.51 
3230.16 3230.16 3155.23 3115.09 3178.01 3218.11 3240.12 3243.77 3279.57 
3561.99 3664.17 3931.11 3906.64 4204.14 3865.58 3855.41 4077.58 4185.01 
4247.41 4459.07 4423.75 4463.4 4529.07 4418.46 4395.21 4221.01 4174.47 
4066.9 4200.16 4336.07 4352.31 4242.69 3581.09 3711.49 3760.42 3276.32 
3612.19 4439.95 4386.63 4178.23 4178.23 3972.72 3881.95 4404.05 4404.05 
4377.72 4174.98 4326.79 4172.21 4178.53 4242.09 4186.63 4186.63 4148.4 
4022.28 4022.28 3971.09 3900.12 4206.11 4251.2 4420.96 4344.7 4457.69 
3495.95 3476.05 3581.01 3589.09 3731.98 3735.2 3790.15 3785.2 3937.06 
4011.6 4126.48 4033.42 4065.9 4183.21 3294.52 3270 3221.53 3269.33 
3343.44 3448.01 3604.11 3636.23 3973.94 3914.81 3744.33 3847.37 3872.64 
3890.15 3813.52 3730.72 3741.32 3462.07 3487.25 3585.96 3612.36 3612.36 
3692.58 3809.33 3865.14 3882.11 3844.11 3844.11 3719.3 3763.37 3679.12 
3735.14 3790.37 3850.57 3920.94 3920.94 4028.27 4075.74 4029.6 4042.72 
4067.68 4097.86 3876.93 3738.53 3850.16 3904.48 3581.75 3626.04 3574.04 
3479.65 3453.41 3400.31 3490.54 3518.27 3659.15 3581.93 3705.53 4002.05 
4002.38 3986.21 4012.02 4179.67 4023.49 3914.88 3734.67 3562.77 3409.79 
3583.06 3616.7 3651.17 3710.72 3687.1 3664.65 3664.65 3597.48 3575.53 