# vtk DataFile Version 3.0
vtk output
ASCII
DATASET POLYDATA
POINTS 630 float
1.26526 -0.946531 1.56649 2.05085 -0.608032 1.64638 2.5403 -0.528855 1.52137 
1.08802 0.261044 1.90354 2.39401 -0.336469 1.71548 2.22057 -0.774543 1.38983 
4.80506 0.167791 1.46692 0.695486 -1.46105 1.01909 0.644417 -1.26194 1.00586 
-0.185802 0.373234 1.2535 2.97805 -0.351342 1.28609 0.856256 1.24292 1.76404 
4.82153 -0.0987832 1.32373 0.0439138 0.673035 1.4131 3.06868 -0.526641 0.675686 
5.05033 -0.570486 1.05861 2.81983 1.43128 1.57429 5.25036 0.56808 1.26237 
-0.734242 -0.228455 0.96986 0.604091 1.22892 1.3495 3.3865 0.446253 1.08445 
2.76818 1.27081 1.32328 4.73671 0.532661 0.946408 -0.110179 0.730983 1.01675 
3.28905 -0.520645 0.611234 5.20522 -0.00669668 0.719886 4.38514 0.4876 0.740232 
5.35208 0.160487 0.763554 5.29175 0.361477 0.681836 -0.0806668 -1.18313 0.279362 
1.44477 -1.37223 0.0832035 4.14295 0.369607 0.634972 5.15107 0.425491 0.632814 
-0.948784 -0.188813 0.361963 -0.121279 1.12795 0.504108 -0.782269 -0.341536 -0.0982529 
-0.786098 -0.428512 -0.398957 3.56244 0.909943 -0.0356058 -0.736769 -0.0581854 -0.591414 
2.47996 1.94395 -0.00746656 2.46256 -0.758828 -1.0313 1.8029 2.09629 -0.230218 
-0.672274 -0.245835 -0.903853 2.35557 -0.907904 -1.13984 0.91729 1.90116 -0.337889 
1.11393 1.92652 -0.334312 3.18407 0.171792 -1.06327 -0.336502 0.290371 -1.17651 
-0.413586 0.578152 -1.23393 2.32244 -0.374798 -1.40691 1.00963 1.84264 -0.770757 
0.00662995 -0.174975 -1.51873 0.629163 0.173996 -1.64063 2.93646 0.525288 -1.51461 
0.0779409 -0.334412 -1.7716 0.248533 0.0384344 -1.67147 0.906317 1.5217 -1.27278 
1.79159 0.800134 -1.69532 2.82261 1.25923 -1.58638 1.86444 0.61114 -1.94871 
1.83522 0.690642 -1.89547 1.81411 0.753167 -1.80863 1.92558 0.554361 -1.97317 
1.97947 0.511951 -1.97815 2.02405 0.468619 -1.96785 2.08078 0.448526 -1.93597 
2.13516 0.424098 -1.90524 2.18649 0.398138 -1.89026 2.24141 0.381408 -1.88047 
2.30381 0.379284 -1.86677 2.36409 0.370805 -1.84711 2.4274 0.370447 -1.83294 
2.48846 0.365707 -1.81995 2.55708 0.373743 -1.79587 2.6288 0.387344 -1.75492 
2.69227 0.406801 -1.71222 2.74044 0.436877 -1.67913 2.79437 0.465611 -1.64649 
2.85095 0.496466 -1.59284 2.81256 1.20483 -1.60124 2.82493 1.13984 -1.61943 
2.84617 1.07065 -1.63894 2.85854 1.00566 -1.65713 2.84862 0.949282 -1.66486 
2.83895 0.888961 -1.65831 2.85222 0.81137 -1.63132 2.87663 0.723993 -1.59186 
2.90465 0.629408 -1.54932 0.577435 0.267167 -1.6524 0.542685 0.350281 -1.65955 
0.515191 0.426091 -1.66117 0.484593 0.490473 -1.6582 0.446103 0.532626 -1.63819 
0.405796 0.564577 -1.5979 0.355754 0.575306 -1.55562 0.314418 0.607466 -1.52295 
0.269861 0.635554 -1.49903 0.221711 0.654414 -1.46991 0.172362 0.66428 -1.42021 
0.118663 0.663431 -1.36569 0.0580698 0.651349 -1.32186 0.00301107 0.65672 -1.29635 
-0.0523414 0.665952 -1.28514 -0.114587 0.663946 -1.28461 -0.175368 0.664148 -1.28093 
-0.244456 0.647303 -1.27413 -0.32309 0.616692 -1.25816 0.943157 1.56153 -1.25472 
0.990542 1.59253 -1.22392 1.01572 1.62638 -1.16119 1.0171 1.66572 -1.07347 
1.02162 1.69975 -0.971904 1.01944 1.74078 -0.883649 1.02151 1.78554 -0.817503 
0.666913 0.144696 -1.78007 0.706851 0.128898 -1.90043 0.747603 0.11223 -1.9903 
0.802713 0.115764 -2.04409 0.856099 0.107129 -2.07048 0.906929 0.0890657 -2.08404 
0.961723 0.0743094 -2.0814 1.02425 0.0702108 -2.06056 1.08486 0.0557144 -2.01951 
1.14788 0.0437197 -1.97012 1.20325 0.0189981 -1.93181 1.25377 -0.00854675 -1.91725 
1.3031 -0.0317444 -1.92453 1.35219 -0.0509938 -1.94608 1.40201 -0.0665987 -1.97432 
1.45731 -0.0759177 -1.98555 1.52407 -0.0673318 -1.97666 1.59188 -0.06111 -1.95306 
1.65285 -0.0660306 -1.94012 1.71517 -0.0660942 -1.93354 1.76974 -0.0790669 -1.93808 
1.81908 -0.102265 -1.94535 1.86415 -0.136 -1.94778 1.90795 -0.176652 -1.93673 
1.97012 -0.190326 -1.8878 2.03709 -0.201274 -1.81512 2.09402 -0.236254 -1.73356 
2.14643 -0.277827 -1.66141 2.20243 -0.312419 -1.58741 2.26526 -0.335869 -1.50275 
0.511935 0.128277 -1.65123 0.421878 0.0960549 -1.65857 0.339734 0.0685673 -1.66473 
0.205197 0.129839 -1.64544 0.168738 0.198249 -1.62588 0.130192 0.243243 -1.60508 
0.0950775 0.285482 -1.56204 0.0566799 0.310076 -1.48539 0.0165905 0.322493 -1.38133 
-0.0377888 0.307014 -1.28473 -0.0912883 0.302126 -1.21598 -0.147034 0.303939 -1.18376 
-0.213537 0.291404 -1.17837 -0.280164 0.280844 -1.18013 0.211033 -0.0481883 -1.62559 
0.150813 -0.104134 -1.57852 0.0797161 -0.142633 -1.54181 0.0541704 -0.281267 -1.68731 
0.0304004 -0.22812 -1.60302 2.99307 0.429495 -1.43705 3.03636 0.341154 -1.34694 
3.08292 0.274851 -1.24566 3.13321 0.220844 -1.14874 -0.388502 0.477914 -1.25697 
-0.362819 0.385199 -1.23694 -0.0495831 -0.167423 -1.50797 -0.115836 -0.183905 -1.48831 
-0.181667 -0.206212 -1.44721 -0.236227 -0.20874 -1.39315 -0.285544 -0.201031 -1.33635 
-0.334131 -0.189677 -1.28625 -0.382544 -0.180202 -1.22898 -0.431005 -0.170824 -1.17172 
-0.480324 -0.163116 -1.11492 -0.534928 -0.165727 -1.06089 -0.601169 -0.197707 -0.991715 
0.969188 1.85216 -0.659811 0.940392 1.87554 -0.514479 1.08008 1.85892 -0.729051 
1.12997 1.87534 -0.648522 1.13223 1.90086 -0.510829 2.35516 -0.460084 -1.32857 
2.39433 -0.538609 -1.23311 2.42872 -0.638715 -1.13073 2.39367 -0.339736 -1.43689 
2.45642 -0.306415 -1.44414 2.50597 -0.272599 -1.42797 2.5692 -0.247168 -1.40667 
2.64106 -0.221978 -1.40096 2.71266 -0.19284 -1.40952 2.77543 -0.161445 -1.40962 
2.82324 -0.126807 -1.39319 2.87606 -0.100281 -1.35603 2.92436 -0.0735374 -1.31105 
2.98804 -0.0578876 -1.25404 3.05903 -0.045701 -1.19809 3.12085 -0.0272593 -1.14796 
3.15803 0.0085728 -1.11564 3.18255 0.0542171 -1.09576 3.19462 0.10766 -1.08119 
-0.472635 0.610796 -1.12652 -0.51357 0.641637 -1.01735 -0.550613 0.663458 -0.913298 
-0.577483 0.698143 -0.805882 -0.589474 0.74173 -0.716747 -0.576766 0.781348 -0.652209 
-0.553801 0.821982 -0.610627 -0.530612 0.860594 -0.561919 -0.515813 0.897426 -0.490499 
-0.512692 0.935948 -0.403039 -0.487426 0.96975 -0.34033 -0.440139 1.0008 -0.30951 
-0.404904 1.03947 -0.284056 -0.377908 1.07245 -0.221602 -0.35192 1.09634 -0.123212 
-0.325681 1.11627 -0.0105494 -0.297839 1.13736 0.0947253 -0.25919 1.15143 0.205549 
-0.195776 1.14614 0.341341 -0.390145 0.256374 -1.01587 -0.455557 0.210487 -0.896744 
-0.526915 0.165573 -0.821448 -0.599187 0.120711 -0.76341 -0.66971 0.0528064 -0.686797 
3.25754 0.171318 -0.964755 3.32169 0.180999 -0.886338 3.37016 0.203836 -0.827066 
3.4216 0.225266 -0.768234 3.45929 0.253195 -0.707355 3.49502 0.283965 -0.653355 
3.53172 0.320021 -0.620968 3.53198 0.37713 -0.597491 3.52304 0.44242 -0.586968 
3.53477 0.499855 -0.586658 3.55513 0.555124 -0.594787 3.567 0.60866 -0.580189 
3.55686 0.664942 -0.533701 3.54561 0.712173 -0.451272 3.54641 0.75179 -0.363459 
3.53528 0.797046 -0.273888 3.52576 0.843457 -0.191705 3.53885 0.879181 -0.112883 
1.86835 2.11473 -0.3595 1.92773 2.12552 -0.442104 1.98969 2.13067 -0.459694 
2.04575 2.11017 -0.430479 2.10206 2.08506 -0.384594 2.16415 2.07345 -0.342773 
2.21922 2.05258 -0.31876 2.27006 2.02189 -0.292264 2.32259 1.98424 -0.236975 
2.38801 1.95135 -0.139604 1.69228 2.09478 -0.361942 1.60558 2.09172 -0.453511 
1.53471 2.08765 -0.494387 1.47277 2.08937 -0.503084 1.40438 2.07536 -0.505762 
1.33168 2.05073 -0.503614 1.25855 2.0186 -0.480474 1.18599 1.97651 -0.421675 
1.0464 1.9142 -0.336541 0.984822 1.91349 -0.33566 0.844203 1.86912 -0.314727 
0.772988 1.8363 -0.276444 0.710884 1.81683 -0.21925 0.662339 1.82161 -0.147897 
0.60036 1.80017 -0.0835627 0.529395 1.7634 -0.0309979 0.456655 1.72737 0.00642224 
0.385204 1.69433 0.0292803 0.322706 1.65706 0.0508117 0.27413 1.60938 0.0845892 
0.213869 1.56339 0.134417 0.153697 1.51736 0.184232 0.106985 1.46688 0.224892 
0.0553917 1.42254 0.251967 0.0100612 1.37524 0.278114 -0.0413359 1.33081 0.30516 
-0.0843737 1.27668 0.352427 -0.121061 1.2138 0.42024 2.41445 -0.814898 -1.07928 
2.38145 -0.862643 -1.11496 -0.729466 -0.308074 -0.786828 -0.763362 -0.37729 -0.620908 
-0.696157 -0.185639 -0.838745 -0.718139 -0.126473 -0.735529 1.82765 2.08721 0.0409843 
1.88133 2.05174 0.276207 1.94256 2.00222 0.458728 2.00694 1.96739 0.591462 
2.06323 1.92895 0.679765 2.11535 1.89123 0.737606 2.17059 1.86848 0.768786 
2.23176 1.87061 0.760617 2.28534 1.87343 0.698967 2.33359 1.88203 0.582644 
2.38057 1.90006 0.422825 2.42858 1.92411 0.221101 2.54938 -0.817827 -0.85185 
2.61929 -0.843791 -0.691151 2.67144 -0.844588 -0.556481 2.73472 -0.847335 -0.430245 
2.79614 -0.847861 -0.308477 2.83483 -0.835722 -0.1905 2.86264 -0.812702 -0.0923804 
2.89011 -0.78569 -0.00851873 2.92618 -0.758912 0.0597494 2.97581 -0.736621 0.11885 
3.01337 -0.706715 0.172579 3.05102 -0.681097 0.242802 3.09762 -0.664259 0.34042 
3.10998 -0.623989 0.48739 -0.773588 0.05799 -0.575941 -0.817326 0.110807 -0.547112 
-0.860443 0.129512 -0.472015 -0.901602 0.131241 -0.342062 -0.957217 0.0822896 -0.177838 
-0.99996 1.33243e-005 2.93063e-006 -0.990484 -0.10018 0.179666 2.5761 1.94601 0.024733 
2.64137 1.9272 0.0414488 2.68796 1.89274 0.0413555 2.72541 1.84544 0.0301848 
2.76941 1.81182 0.0201205 2.81796 1.78489 0.0195116 2.86757 1.75558 0.0335968 
2.91761 1.72044 0.0691206 2.96789 1.68135 0.118926 3.0183 1.64029 0.175873 
3.06866 1.59914 0.232794 3.11809 1.55838 0.282152 3.16279 1.51283 0.314889 
3.19958 1.4585 0.322278 3.23837 1.41249 0.316568 3.27401 1.36034 0.309213 
3.31207 1.31069 0.310186 3.34352 1.24595 0.314789 3.37473 1.18515 0.305119 
3.41242 1.14142 0.284679 3.44738 1.09905 0.241604 3.48452 1.06312 0.192594 
3.51387 1.01644 0.125369 3.53862 0.962993 0.048663 -0.76073 -0.209369 -0.344557 
3.62517 0.85523 0.148015 3.66512 0.762952 0.298588 3.69234 0.660863 0.408245 
3.70817 0.569566 0.482639 3.70835 0.489268 0.54498 3.71131 0.40765 0.606918 
3.69742 0.332209 0.678527 3.66435 0.271613 0.739219 3.60954 0.237792 0.784628 
3.55189 0.229254 0.806331 3.49627 0.205382 0.816079 3.45876 0.160293 0.827323 
3.42082 0.107706 0.859558 3.36053 0.0636427 0.90224 3.29138 0.0237703 0.946225 
3.23097 -0.0183154 0.981757 3.1931 -0.0729721 1.02111 3.15546 -0.129651 1.06758 
3.09715 -0.178478 1.12428 3.03894 -0.227352 1.18097 3.00325 -0.286866 1.2343 
-0.794652 -0.371121 -0.247135 -0.735511 -0.534039 -0.226613 -0.720183 -0.626776 -0.106473 
-0.70225 -0.706808 -0.0648726 -0.673914 -0.763263 -0.0937848 -0.637939 -0.796778 -0.157485 
-0.607972 -0.837827 -0.238543 -0.577074 -0.879276 -0.312038 -0.535367 -0.906274 -0.358668 
-0.491371 -0.939896 -0.368735 -0.447321 -0.984497 -0.343403 -0.384099 -1.00054 -0.279763 
-0.312445 -1.00678 -0.1905 -0.248426 -1.03458 -0.0840086 -0.20193 -1.10101 0.0274719 
-0.148634 -1.1564 0.149589 -0.811969 -0.319923 0.0465971 -0.852083 -0.316424 0.17894 
-0.892647 -0.304933 0.282755 -0.922939 -0.257864 0.342416 -0.140503 1.02809 0.676677 
-0.149519 0.929156 0.826265 -0.134891 0.828621 0.936571 -0.913364 -0.205283 0.533579 
-0.862143 -0.238319 0.68497 -0.797395 -0.249052 0.826914 1.37543 -1.39025 -0.0377968 
1.29421 -1.39585 -0.128234 1.21896 -1.40409 -0.186851 1.15011 -1.41159 -0.212701 
1.08918 -1.40883 -0.218561 1.02612 -1.41242 -0.218452 0.966163 -1.40995 -0.216724 
0.903154 -1.41345 -0.21659 0.843246 -1.41089 -0.214836 0.781045 -1.41281 -0.21428 
0.725568 -1.4016 -0.210212 0.670135 -1.39031 -0.20612 0.608794 -1.39055 -0.205115 
0.554346 -1.37955 -0.193433 0.504405 -1.36197 -0.172331 0.454588 -1.34637 -0.144088 
0.400091 -1.33546 -0.132432 0.337814 -1.33531 -0.138991 0.277705 -1.32871 -0.151484 
0.215727 -1.33242 -0.143736 0.162584 -1.32774 -0.103088 0.118602 -1.30962 -0.0434944 
0.0820263 -1.27482 0.0128829 0.0385745 -1.249 0.0515267 -0.00832687 -1.23214 0.095444 
-0.0502945 -1.21452 0.170222 5.32358 0.257314 0.71653 5.21274 0.393743 0.656266 
4.47924 0.540287 0.717296 4.56105 0.568393 0.74157 4.64329 0.564725 0.823669 
4.18145 0.387579 0.731508 4.23455 0.410257 0.782967 4.29344 0.447477 0.776863 
3.21513 -0.543571 0.628474 1.44455 -1.32628 0.224658 1.41551 -1.2921 0.359524 
1.37377 -1.28593 0.481105 1.3271 -1.28784 0.587079 1.28029 -1.28854 0.687622 
1.23668 -1.27634 0.768629 1.19499 -1.25375 0.829409 1.13944 -1.25156 0.861732 
1.08531 -1.24658 0.894802 1.02982 -1.24871 0.941296 0.964064 -1.27309 0.989516 
0.898234 -1.2954 1.03061 0.843035 -1.28947 1.05371 0.790983 -1.26936 1.05762 
0.728942 -1.25428 1.03981 -0.0398064 -1.17586 0.411335 0.0233231 -1.17527 0.525691 
0.0964978 -1.17189 0.609898 0.170171 -1.16508 0.671988 0.238452 -1.16459 0.717043 
0.295787 -1.18991 0.770532 0.352561 -1.22077 0.83788 0.416311 -1.24185 0.920612 
0.479077 -1.261 0.98083 0.554146 -1.2629 1.00974 5.30478 0.40668 0.837589 
5.31462 0.438611 0.976912 5.30376 0.477015 1.10047 5.28245 0.526981 1.19664 
4.81546 0.567284 0.959723 4.87168 0.593232 1.01204 4.93618 0.598197 1.10196 
5.00442 0.587941 1.1953 5.06629 0.569484 1.25829 5.1302 0.56587 1.28692 
5.19142 0.565876 1.28585 5.29038 0.140074 0.72055 5.24446 0.106455 0.696688 
5.20656 0.0613944 0.700257 5.40742 0.166753 0.702827 5.47412 0.175243 0.711698 
5.54129 0.160261 0.798621 5.5929 0.0993654 0.926923 5.62707 0.00488774 1.04624 
5.65135 -0.0940631 1.14144 5.65433 -0.173655 1.19624 5.61873 -0.225551 1.22094 
5.58365 -0.268122 1.20978 5.5452 -0.309096 1.19912 5.48587 -0.340203 1.19156 
5.42826 -0.372126 1.18374 5.40154 -0.410986 1.14271 5.39699 -0.456491 1.08408 
5.36993 -0.491361 1.0288 5.31017 -0.5164 0.99986 5.23912 -0.538034 0.987429 
5.17064 -0.554667 0.991715 5.10894 -0.562265 1.01375 -0.13262 0.680525 1.01087 
-0.145739 0.618906 1.02865 -0.144319 0.538948 1.08337 -0.155783 0.452081 1.17101 
-0.0331325 0.702009 1.21492 4.76919 0.346548 1.20695 2.75776 1.33297 1.34834 
2.77023 1.37856 1.39148 2.79392 1.40928 1.46873 3.34916 0.399284 1.10286 
3.29404 0.367518 1.14116 3.2369 0.351089 1.19143 3.1819 0.317349 1.23686 
3.14476 0.266338 1.26952 3.10707 0.209802 1.31603 3.04706 0.159864 1.38014 
2.9768 0.11094 1.46007 2.9062 0.0660079 1.52575 2.84407 0.0228156 1.56869 
2.79515 -0.0208714 1.58821 2.73266 -0.0581464 1.60974 2.66155 -0.0951797 1.64686 
2.59058 -0.13419 1.69113 2.52843 -0.175533 1.72689 2.48122 -0.219574 1.7386 
2.43081 -0.26675 1.73412 0.662 1.19387 1.43873 0.728951 1.18732 1.51261 
0.790214 1.2 1.57654 0.828315 1.22187 1.65878 2.94124 -0.609359 0.755734 
2.87886 -0.673865 0.795093 2.83853 -0.720475 0.79674 2.78958 -0.757994 0.792605 
2.75315 -0.805665 0.803116 2.71674 -0.855269 0.820781 2.66679 -0.900384 0.847613 
2.61969 -0.944935 0.866862 2.55729 -0.982252 0.888379 2.48564 -1.01125 0.89698 
2.41326 -1.03771 0.906306 2.34705 -1.0541 0.925986 2.29864 -1.04463 0.983256 
2.2679 -1.00731 1.07098 2.24364 -0.961915 1.17619 2.22177 -0.910239 1.26773 
2.21013 -0.849058 1.33866 -0.629382 -0.237454 1.09621 -0.543503 -0.242652 1.20857 
-0.466932 -0.240027 1.29251 -0.392174 -0.231489 1.35506 -0.317845 -0.21896 1.40334 
-0.245147 -0.205662 1.45187 -0.181624 -0.18611 1.4946 -0.133567 -0.155422 1.52531 
-0.0810013 -0.124946 1.54819 -0.0329441 -0.0942553 1.57889 0.0307035 -0.0766805 1.62877 
0.103553 -0.0672829 1.69158 0.176401 -0.0578856 1.7544 0.240022 -0.0383799 1.79711 
0.28956 -0.00455966 1.81329 0.352308 0.0287615 1.80604 0.424035 0.0559263 1.80461 
0.496011 0.0791417 1.81746 0.559383 0.102595 1.8459 0.609005 0.134343 1.86918 
0.671214 0.159981 1.88287 0.737017 0.173124 1.88535 0.793206 0.163786 1.88179 
0.847863 0.155172 1.87845 0.904714 0.172546 1.88226 0.953222 0.206575 1.89083 
1.01617 0.235854 1.89782 -0.763095 -0.141701 0.994355 -0.777685 -0.0687741 1.00709 
-0.766492 -0.00844009 1.00052 -0.744684 0.0519338 0.970721 -0.721262 0.11342 0.933501 
-0.697492 0.170908 0.910558 -0.673001 0.218481 0.923286 -0.646031 0.253392 0.978584 
-0.607971 0.2754 1.06088 -0.547043 0.282773 1.15408 -0.484684 0.293178 1.23274 
-0.435344 0.313526 1.29131 -0.377178 0.325597 1.32054 -0.316788 0.3242 1.32677 
-0.248379 0.337607 1.31008 5.01814 -0.529343 1.12437 4.99445 -0.469391 1.18748 
4.97019 -0.403889 1.22907 4.94459 -0.33658 1.25582 4.91441 -0.275987 1.2731 
4.87751 -0.228521 1.28688 4.84733 -0.16793 1.30416 3.03041 -0.449534 0.967475 
3.00223 -0.399765 1.16851 4.77029 0.120734 1.35971 4.77365 0.063466 1.29001 
4.79571 -0.0107604 1.28191 4.89378 -0.081443 1.35801 4.95572 -0.0649762 1.41529 
4.99205 -0.0421473 1.49784 5.00704 -0.0113762 1.59063 4.9937 0.0376249 1.6531 
4.95743 0.0885447 1.655 4.89067 0.121973 1.58086 2.91164 -0.381436 1.34811 
2.85101 -0.398023 1.40608 2.78335 -0.424547 1.4486 2.71017 -0.45605 1.47448 
2.63085 -0.490233 1.49716 0.670005 -1.37016 1.01136 2.50297 -0.59002 1.4718 
2.45215 -0.629346 1.43875 2.40609 -0.665663 1.41926 2.35292 -0.699861 1.40817 
2.29914 -0.73855 1.39841 2.16044 -0.724793 1.43539 2.11863 -0.680131 1.49458 
2.08086 -0.649145 1.5653 2.43794 -0.422427 1.66532 2.4807 -0.48532 1.60106 
2.30293 -0.36654 1.70876 2.22315 -0.392952 1.70285 2.15049 -0.41849 1.69706 
2.091 -0.449568 1.6895 2.06478 -0.496323 1.67703 2.06292 -0.554589 1.66095 
1.97807 -0.630592 1.64141 1.90978 -0.644644 1.63872 1.84984 -0.646341 1.6393 
1.79222 -0.665442 1.63502 1.7454 -0.700383 1.62618 1.69313 -0.734711 1.6176 
1.64545 -0.771323 1.60831 1.58255 -0.800744 1.60127 1.5107 -0.825934 1.59556 
1.43885 -0.851124 1.58985 1.37585 -0.880498 1.58282 1.32652 -0.916336 1.57377 

LINES 64 768
11 58 79 80 81 82 83 84 85 86 87 53 
21 52 88 89 90 91 92 93 94 95 96 97 98 99 100 101 102 103 104 105 106 48 
9 56 107 108 109 110 111 112 113 50 
32 52 114 115 116 117 118 119 120 121 122 123 124 125 126 127 128 129 130 131 132 133 134 135 136 137 138 139 140 141 142 143 49 
5 52 144 145 146 55 
13 55 147 148 149 150 151 152 153 154 155 156 157 47 
5 55 158 159 160 51 
4 54 161 162 51 
6 53 163 164 165 166 46 
4 48 167 168 47 
13 51 169 170 171 172 173 174 175 176 177 178 179 42 
4 50 180 181 44 
5 50 182 183 184 45 
5 49 185 186 187 40 
18 49 188 189 190 191 192 193 194 195 196 197 198 199 200 201 202 203 46 
21 48 204 205 206 207 208 209 210 211 212 213 214 215 216 217 218 219 220 221 222 34 
7 47 223 224 225 226 227 38 
20 46 228 229 230 231 232 233 234 235 236 237 238 239 240 241 242 243 244 245 37 
12 41 246 247 248 249 250 251 252 253 254 255 39 
10 41 256 257 258 259 260 261 262 263 45 
4 45 264 265 44 
20 44 266 267 268 269 270 271 272 273 274 275 276 277 278 279 280 281 282 283 34 
4 40 284 285 43 
4 42 286 287 36 
4 42 288 289 38 
14 41 290 291 292 293 294 295 296 297 298 299 300 301 39 
16 40 302 303 304 305 306 307 308 309 310 311 312 313 314 315 14 
9 38 316 317 318 319 320 321 322 33 
26 39 323 324 325 326 327 328 329 330 331 332 333 334 335 336 337 338 339 340 341 342 343 344 345 346 37 
3 38 347 35 
23 37 348 349 350 351 352 353 354 355 356 357 358 359 360 361 362 363 364 365 366 367 368 10 
3 36 369 35 
17 36 370 371 372 373 374 375 376 377 378 379 380 381 382 383 384 29 
6 35 385 386 387 388 33 
5 34 389 390 391 23 
5 33 392 393 394 18 
3 28 421 27 
3 28 422 32 
3 14 429 24 
12 29 445 446 447 448 449 450 451 452 453 454 8 
5 27 466 467 468 25 
3 23 492 13 
3 22 493 6 
5 21 494 495 496 16 
19 20 497 498 499 500 501 502 503 504 505 506 507 508 509 510 511 512 513 4 
6 19 514 515 516 517 11 
19 14 518 519 520 521 522 523 524 525 526 527 528 529 530 531 532 533 534 5 
29 18 535 536 537 538 539 540 541 542 543 544 545 546 547 548 549 550 551 552 553 554 555 556 557 558 559 560 561 3 
4 14 584 585 10 
5 6 586 587 588 12 
9 12 589 590 591 592 593 594 595 6 
7 10 596 597 598 599 600 2 
3 8 601 7 
7 2 602 603 604 605 606 5 
5 5 607 608 609 1 
4 4 610 611 2 
8 4 612 613 614 615 616 617 1 
14 1 618 619 620 621 622 623 624 625 626 627 628 629 0 
22 57 61 60 59 62 63 64 65 66 67 68 69 70 71 72 73 74 75 76 77 78 53 
44 29 420 419 418 417 416 415 414 413 412 411 410 409 408 407 406 405 404 403 402 401 400 399 398 397 396 395 30 430 431 432 433 434 435 436 437 438 439 440 441 442 443 444 8 
9 31 426 427 428 26 423 424 425 22 
14 28 455 456 457 458 17 465 464 463 462 461 460 459 22 
29 27 469 470 471 472 473 474 475 476 477 478 479 480 481 482 483 484 485 486 487 15 577 578 579 580 581 582 583 12 
22 23 488 489 490 491 9 576 575 574 573 572 571 570 569 568 567 566 565 564 563 562 18 

POINT_DATA 630
SCALARS DY_raw double
LOOKUP_TABLE default
210.021 97.882 111.887 89.6826 125.211 145.15 166.717 245.923 164.932 
168.599 148.022 169.802 196.429 141.969 191.532 102.086 220.452 128.266 
154.733 151.131 111.821 323.437 170.086 140.152 195.677 153.359 122.217 
163.378 129.894 155.383 139.388 151.171 110.797 151.276 129.483 133.804 
159.351 149.008 151.238 177.361 136.84 201.503 132.114 159.551 166.932 
171.779 120.675 155.694 111.035 157.853 141.217 123.118 176.871 113.671 
101.714 112.159 130.156 164.779 153.317 159.557 160.634 163.585 155.015 
165.599 178.944 173.028 179.431 151.58 162 145.414 122.578 136.722 
110.539 107.567 120.601 129.454 116.434 106.655 109.842 132.882 138.917 
151.502 128.169 137.901 122.511 128.311 116.556 104.537 171.965 166.863 
166.163 124.235 121.919 121.919 133.675 130.167 130.167 126.915 126.078 
134.305 121.751 130.575 136.012 116.072 109.042 105.2 109.265 113.207 
123.213 101.667 104.431 144.73 131.297 149.912 137.437 122.262 119.386 
131.699 118.891 103.43 106.061 119.778 111.246 140.825 162.41 224.069 
189.824 184.428 181.837 181.837 168.739 162.017 166.253 163.735 159.027 
159.027 141.821 123.875 125.741 123.698 139.541 135.899 134.349 184.319 
187.907 159.129 115.462 126.691 137.011 141.781 149.111 125.08 124.402 
145.351 137.904 137.904 146.603 155.629 120.432 128.376 126.074 123.325 
122.071 114.192 113.663 127.169 129.175 111.916 128.387 120.481 120.481 
132.758 139.466 149.894 157.583 167.974 155.862 128.635 132.482 125.934 
137.973 132.068 113.811 138.726 150.928 141.664 136.137 135.7 144.627 
135.389 147.801 138.599 139.433 144.252 134.501 103.017 99.6107 105.566 
120.758 134.824 145.533 139.187 139.187 132.311 123.232 143.906 136.229 
130.097 117.657 110.671 132.78 126.137 143.553 154.189 142.358 142.358 
142.281 143.711 153.679 136.6 151.681 174.556 145.301 182.344 165.715 
154.72 128.974 127.374 141.696 135.097 131.624 144.309 138.88 125.809 
125.809 154.153 135.783 146.483 167.61 167.61 175.343 153.606 209.916 
161.561 152.853 176.663 163.069 108.514 109.322 114.334 126.695 131.569 
143.16 131.53 141.419 163.51 183.806 155.557 136.737 134.833 137.352 
146.498 160.721 148.151 175.62 169.067 166.932 144.996 169.802 179.734 
149.51 154.54 144.978 124.545 127.317 115.619 130.302 129.365 130.109 
130.109 124.902 124.463 138.156 135.441 133.483 149.661 133.762 150.999 
130.274 135.263 192.62 164.564 172.58 192.366 185.851 164.142 145.936 
141.589 140.45 151.928 184.439 223.136 138.633 110.838 110.472 112.37 
130.994 150.564 127.007 143.632 143.239 127.658 145.225 131.909 157.353 
194.483 132.275 129.111 128.824 129.989 144.584 164.339 163.291 179.533 
182.405 179.254 174.415 164.343 164.343 176.68 172.041 187.841 190.903 
192.177 201.768 173.944 173.944 187.459 181.623 198.984 175.178 178.707 
202.371 171.983 158.033 163.159 161.634 151.328 181.394 259.405 257.026 
239.876 184.056 137.721 146.156 139.588 135.967 140.704 130.79 128.181 
125.5 131.377 140.239 151.23 158.46 125.775 131.548 128.54 140.377 
152.934 158.465 150.774 136.983 137.515 160.002 152.736 171.204 171.204 
183.842 183.842 196.027 166.987 158.021 162.559 157.456 150.38 160.899 
162.663 167.997 155.448 140.092 130.149 179.265 158.494 153.352 137.802 
154.68 161.978 164.77 169.898 169.898 171.542 177.327 188.125 175.383 
188.201 176.338 169.132 169.132 172.542 210.515 210.515 186.792 198.043 
198.043 147.246 169.274 168.412 154.998 132.825 159.587 156.462 111.678 
138.576 166.869 185.787 169.827 176.521 119.206 219.823 144.585 138.679 
159.864 133.288 139.473 158.939 177.65 180.219 221.361 169.193 188.466 
155.551 154.373 172.614 167.833 199.441 179.745 151.351 148.102 136.95 
148.981 157.963 167.202 158.648 168.917 132.229 133.685 99.1435 112.926 
144.282 120.928 112.712 122.504 159.331 149.495 128.728 168.634 168.418 
168.418 149.235 149.235 162.667 157.09 166.89 131.805 112.616 117.259 
128.88 127.5 127.5 137.727 125.77 125.77 121.221 116.815 105.061 
82.3875 81.6707 136.316 162.085 177.666 160.87 155.878 207.965 269.187 
269.187 251.87 111.821 125.371 144.87 150.268 143.942 145.456 128.886 
147.101 124.423 122.383 122.828 119.791 137.127 171.457 177.536 144.337 
130.81 178.642 181.261 138.412 151.939 169.401 195.75 203.571 186.29 
195.459 164.882 173.559 167.798 171.058 151.879 153.886 152.711 154.908 
159.014 166.588 152.109 144.599 140.814 140.668 126.392 114.338 126.224 
143.298 161.841 163.736 154.414 150.541 150.188 157.227 170.685 158.352 
143.937 132.063 133.8 128.116 138.391 139.593 133.998 128.806 128.806 
123.77 112.874 115.744 113.37 156.856 156.639 152.721 149.141 137.921 
162.279 173.941 173.941 193.569 193.219 207.616 188.41 174.678 171.981 
162.806 154.479 147.73 146.127 156.03 169.545 170.919 179.186 151.832 
154.736 176.294 175.561 177.491 176.059 172.549 169.355 184.051 188.93 
173.856 151.672 162.69 159.211 158.288 136.836 112.035 174.149 93.3761 
87.3955 94.1389 102.766 124.695 123.601 125.288 101.213 125.858 125.019 
128.889 106.156 82.9453 72.3512 72.3512 81.1241 95.8975 102.136 98.2642 
99.3905 96.7292 101.015 108.758 110.286 119.013 119.013 127.433 185.597 

FIELD FieldData 7
DY_minmax 1 630 double
0.548296 0.101681 0.15746 0.069026 0.210525 0.289934 0.375831 0.691284 0.368723 
0.383328 0.301374 0.388119 0.494164 0.277266 0.474661 0.118426 0.589839 0.222693 
0.328102 0.313756 0.157195 1 0.389249 0.270032 0.49117 0.32263 0.1986 
0.362534 0.229176 0.330689 0.266987 0.313915 0.153117 0.314333 0.227538 0.244747 
0.346494 0.3053 0.314182 0.418224 0.25684 0.514374 0.238016 0.347292 0.376687 
0.395992 0.192458 0.33193 0.154066 0.340527 0.274273 0.202191 0.416269 0.164562 
0.116944 0.158542 0.230218 0.368112 0.322461 0.347314 0.351604 0.363358 0.329227 
0.371379 0.424528 0.400966 0.426465 0.315546 0.357045 0.290987 0.200039 0.25637 
0.15209 0.140255 0.192163 0.227425 0.17557 0.136621 0.149313 0.241075 0.265111 
0.315236 0.222307 0.261065 0.199771 0.222869 0.176055 0.128187 0.396731 0.376411 
0.373624 0.206636 0.197412 0.197412 0.244232 0.230262 0.230262 0.217313 0.213976 
0.246741 0.196746 0.231888 0.253541 0.174126 0.146129 0.130827 0.147017 0.162716 
0.202568 0.116754 0.127765 0.288261 0.234764 0.3089 0.259216 0.19878 0.187324 
0.236364 0.185355 0.123777 0.134257 0.188885 0.154905 0.27271 0.358679 0.604246 
0.46786 0.44637 0.436048 0.436048 0.383882 0.357111 0.373982 0.363953 0.345203 
0.345203 0.276677 0.205203 0.212636 0.2045 0.267596 0.25309 0.246918 0.445935 
0.460224 0.34561 0.171698 0.216419 0.257522 0.276519 0.305712 0.210005 0.207301 
0.290734 0.261077 0.261077 0.295724 0.33167 0.191493 0.223129 0.213961 0.203015 
0.198019 0.166638 0.164534 0.218324 0.226314 0.157573 0.223175 0.191686 0.191686 
0.240582 0.267298 0.308829 0.339454 0.380837 0.332598 0.224163 0.239481 0.213404 
0.261353 0.237836 0.16512 0.264351 0.312949 0.276053 0.254042 0.252301 0.287854 
0.251059 0.300492 0.263847 0.267166 0.286358 0.247525 0.122134 0.108566 0.132286 
0.192788 0.248812 0.291462 0.266187 0.266187 0.238801 0.202643 0.28498 0.254407 
0.229986 0.180439 0.152616 0.240671 0.214211 0.283574 0.325937 0.278817 0.278817 
0.27851 0.284205 0.323905 0.255882 0.315947 0.407052 0.290538 0.43807 0.371838 
0.328049 0.225511 0.219139 0.276179 0.249899 0.236067 0.286587 0.264965 0.212907 
0.212907 0.325792 0.252629 0.295245 0.379388 0.379388 0.410187 0.323614 0.547878 
0.355296 0.320616 0.415444 0.361303 0.144027 0.147245 0.167206 0.216433 0.235845 
0.282009 0.235691 0.275074 0.363058 0.44389 0.331383 0.256429 0.248844 0.258879 
0.295303 0.351952 0.301886 0.411289 0.385191 0.376687 0.289323 0.388115 0.427674 
0.307302 0.327334 0.28925 0.207873 0.218912 0.172321 0.2308 0.22707 0.230034 
0.230034 0.209295 0.207544 0.262081 0.251269 0.243472 0.307901 0.244581 0.31323 
0.230689 0.250559 0.478995 0.367256 0.399181 0.477982 0.452034 0.365575 0.293066 
0.275752 0.271215 0.316932 0.446412 0.600532 0.263981 0.153282 0.151824 0.159381 
0.233557 0.311499 0.217678 0.283889 0.282325 0.22027 0.290233 0.2372 0.338538 
0.486415 0.23866 0.226056 0.224914 0.229554 0.287682 0.36636 0.362185 0.426873 
0.43831 0.425763 0.406491 0.366377 0.366377 0.415509 0.397036 0.45996 0.472158 
0.477229 0.51543 0.404615 0.404615 0.45844 0.435195 0.50434 0.40953 0.423583 
0.517831 0.396804 0.341245 0.361659 0.355585 0.314541 0.434285 0.744977 0.735503 
0.667202 0.444888 0.260348 0.293942 0.267783 0.253361 0.272229 0.232744 0.222351 
0.211676 0.235082 0.270376 0.31415 0.342947 0.212769 0.235765 0.223785 0.270926 
0.320939 0.342966 0.312334 0.25741 0.259527 0.349085 0.320148 0.393699 0.393699 
0.444035 0.444035 0.492565 0.376907 0.341196 0.35927 0.338949 0.310767 0.35266 
0.359685 0.380927 0.330948 0.269793 0.230191 0.425804 0.34308 0.3226 0.260672 
0.32789 0.356957 0.368076 0.388499 0.388499 0.395049 0.418089 0.461092 0.410346 
0.461394 0.414148 0.385449 0.385449 0.399031 0.550265 0.550265 0.455785 0.500591 
0.500591 0.298284 0.386014 0.38258 0.329158 0.240851 0.347435 0.33499 0.156628 
0.263753 0.376436 0.451783 0.388219 0.414878 0.186607 0.587335 0.287687 0.264163 
0.348539 0.242692 0.267326 0.344852 0.419372 0.429606 0.593461 0.385692 0.462451 
0.331361 0.326667 0.399315 0.380275 0.506161 0.427718 0.314633 0.301692 0.257279 
0.305192 0.340967 0.377763 0.343693 0.384591 0.238475 0.244275 0.106706 0.161597 
0.286478 0.193465 0.160744 0.199743 0.346413 0.307241 0.22453 0.383467 0.382605 
0.382605 0.306205 0.306205 0.359699 0.33749 0.376518 0.236785 0.160363 0.178854 
0.225139 0.219642 0.219642 0.260371 0.212751 0.212751 0.194633 0.177087 0.130272 
0.0399716 0.0371169 0.254751 0.357381 0.419439 0.352543 0.332663 0.540108 0.783939 
0.783939 0.714969 0.157195 0.21116 0.288822 0.31032 0.285123 0.291154 0.225159 
0.297706 0.207388 0.199261 0.201033 0.188937 0.257982 0.39471 0.41892 0.2867 
0.232826 0.423325 0.433753 0.263099 0.316972 0.386521 0.491459 0.522607 0.453785 
0.490301 0.368521 0.403079 0.380137 0.393121 0.316734 0.324729 0.32005 0.328801 
0.345153 0.375317 0.317652 0.287742 0.272666 0.272087 0.215229 0.16722 0.214558 