# vtk DataFile Version 3.0
vtk output
ASCII
DATASET POLYDATA
POINTS 474 float
-0.616481 0.724004 4.7702 -0.741225 0.832 4.76919 1.33898 0.627919 4.56374 
0.234536 0.679935 2.76722 0.393921 1.70234 2.55233 -0.27161 1.18392 2.36217 
1.28069 0.702516 1.76264 1.53109 0.987976 1.35763 2.19731 0.91345 0.955973 
0.0136533 -0.811799 0.821987 -0.273541 -0.511771 0.985639 2.1358 1.20338 0.618817 
-0.463782 -0.0630481 0.580107 1.91525 -1.34392 0.305119 -0.708483 0.072585 0.37917 
-0.441387 0.820758 0.217677 1.20735 1.61113 0.150113 -0.609371 -0.234918 0.183036 
3.06403 -0.363459 -0.0298008 1.97314 -1.20554 -0.263766 4.70861 0.609762 -0.24991 
0.791634 -1.30929 -0.207619 4.90456 0.582133 -0.450325 2.48007 -0.959444 -0.619245 
0.844173 1.18424 -0.642584 4.91407 0.839206 -1.09401 3.33768 0.113156 -0.837608 
0.628823 0.805464 -1.06983 0.0898985 0.815393 -0.834471 5.65063 -0.0741934 -1.04422 
3.6728 0.13361 -1.10592 3.05447 -0.299805 -1.03075 0.141848 0.621462 -1.032 
3.77116 0.0218997 -1.2381 2.71917 0.0112526 -1.23377 1.84836 0.710876 -1.57341 
0.444998 0.715776 -1.43456 1.75583 0.6833 -1.60477 1.69819 0.647855 -1.62627 
1.64864 0.616038 -1.63551 1.58145 0.601328 -1.63751 1.50541 0.594416 -1.63711 
1.42791 0.588767 -1.63672 1.35033 0.58319 -1.63633 1.27275 0.577613 -1.63595 
1.19517 0.572037 -1.63556 1.11766 0.566543 -1.63518 1.04138 0.562528 -1.62741 
0.971686 0.566271 -1.60496 0.912102 0.581962 -1.55309 0.84396 0.587976 -1.47881 
0.777135 0.595952 -1.38359 0.726341 0.626908 -1.28504 0.68023 0.690436 -1.17832 
1.9424 0.695996 -1.54642 1.99544 0.659396 -1.51649 2.02349 0.605938 -1.48869 
2.06533 0.570385 -1.4612 2.12342 0.553589 -1.44639 2.17281 0.526609 -1.44621 
2.21685 0.493322 -1.46073 2.26619 0.466004 -1.49018 2.32534 0.450084 -1.51241 
2.3734 0.42143 -1.52703 2.4085 0.378086 -1.51174 2.43255 0.322113 -1.48143 
2.46653 0.277825 -1.42909 2.50705 0.24109 -1.37688 2.54871 0.205524 -1.33951 
2.59033 0.16953 -1.33177 2.63205 0.131613 -1.33141 2.67468 0.0829941 -1.30127 
0.531176 0.745142 -1.25134 1.84194 0.808627 -1.43647 1.83506 0.892922 -1.31168 
1.8207 0.962407 -1.20393 1.78856 1.01011 -1.12545 1.74849 1.0484 -1.06655 
1.70586 1.08354 -1.02984 1.65658 1.11093 -1.00039 1.59728 1.12659 -0.985551 
1.54665 1.15222 -0.978296 1.49597 1.17777 -0.971049 1.43532 1.19188 -0.956183 
1.37702 1.20876 -0.919142 1.30898 1.21173 -0.867058 1.24204 1.20093 -0.792564 
1.18653 1.1801 -0.725376 1.12597 1.17645 -0.673229 1.06766 1.19039 -0.650969 
0.997999 1.19385 -0.643329 0.921681 1.18973 -0.642968 2.81306 0.0372213 -1.2271 
2.87827 0.066121 -1.20554 2.9394 0.0885097 -1.16165 2.99526 0.11374 -1.11035 
3.06265 0.12635 -1.06635 3.13109 0.124592 -1.03697 3.19102 0.110294 -0.999962 
3.26105 0.107781 -0.933539 2.73657 -0.0724453 -1.22527 2.76971 -0.125045 -1.20244 
2.81146 -0.161467 -1.15766 2.86099 -0.187865 -1.10562 2.92048 -0.202775 -1.0612 
2.96995 -0.229453 -1.03881 3.01282 -0.26389 -1.03109 3.57705 0.127259 -1.06594 
3.49316 0.121943 -1.01368 3.41493 0.117362 -0.936754 3.72529 0.0697362 -1.17438 
4.81218 0.864939 -1.09692 4.7276 0.869578 -1.0685 4.65958 0.857519 -0.995462 
4.61321 0.826395 -0.911875 4.57453 0.788552 -0.829706 4.52953 0.755541 -0.784613 
4.47169 0.733262 -0.76185 4.41752 0.707157 -0.776093 4.35804 0.685523 -0.797778 
4.30373 0.659283 -0.82683 4.2442 0.637824 -0.841106 4.1886 0.613091 -0.847951 
4.12158 0.59837 -0.84748 4.05455 0.583656 -0.847008 3.99899 0.55902 -0.846444 
3.93951 0.537767 -0.845912 3.88541 0.511867 -0.845336 3.82751 0.489383 -0.837382 
3.78247 0.455887 -0.821926 3.74518 0.415819 -0.798997 3.71061 0.372867 -0.800722 
3.68461 0.320022 -0.846808 3.67663 0.240036 -0.956784 4.89832 0.734687 -1.33993 
4.89718 0.647475 -1.54021 4.91027 0.577242 -1.68152 4.94238 0.529489 -1.7684 
4.98375 0.492768 -1.81991 5.03431 0.46693 -1.84197 5.10272 0.461851 -1.84959 
5.17889 0.465958 -1.84995 5.25496 0.472818 -1.84293 5.32346 0.48665 -1.82117 
5.37778 0.513265 -1.76991 5.42701 0.544795 -1.68905 5.45047 0.599014 -1.57878 
5.46742 0.656296 -1.46111 5.46103 0.715356 -1.35819 5.42246 0.752582 -1.28447 
5.36345 0.768767 -1.23261 5.30527 0.786083 -1.18076 5.23711 0.791864 -1.12871 
5.16987 0.798795 -1.08557 5.1148 0.822484 -1.06938 5.04142 0.842882 -1.0753 
0.127341 0.689075 -0.995838 0.104169 0.746955 -0.929885 0.533707 0.87038 -0.92096 
0.464786 0.907841 -0.784153 0.393992 0.915722 -0.682741 0.317835 0.912223 -0.644115 
0.241751 0.904982 -0.673345 0.17446 0.88934 -0.739527 0.127671 0.856076 -0.798144 
5.63467 -0.00853521 -1.03766 5.60352 0.0397085 -1.01598 5.57126 0.0868858 -0.972066 
5.54763 0.144172 -0.913504 5.51285 0.18865 -0.847308 5.465 0.218025 -0.780849 
5.40603 0.234565 -0.714178 5.35684 0.262398 -0.647693 5.31299 0.296406 -0.581315 
5.26377 0.324136 -0.522239 5.20465 0.340283 -0.477784 5.15535 0.36758 -0.455746 
5.11246 0.40214 -0.448646 5.06962 0.43668 -0.448956 5.0215 0.465127 -0.449161 
4.97 0.489673 -0.449298 4.9384 0.537199 -0.449834 0.0125482 0.810259 -0.797048 
-0.0632787 0.80445 -0.722588 -0.131275 0.792908 -0.596214 -0.186573 0.773516 -0.423486 
-0.24914 0.77283 -0.223206 -0.324233 0.795643 -0.00653263 0.693066 0.910493 -0.959196 
0.739255 0.975149 -0.882491 0.7768 1.02061 -0.841289 0.811482 1.06423 -0.80376 
0.837268 1.11581 -0.737914 3.33127 0.190941 -0.712722 3.31818 0.260885 -0.602522 
3.29261 0.316129 -0.521701 3.26248 0.365836 -0.470418 3.21114 0.390775 -0.448339 
3.16305 0.419325 -0.441134 3.12028 0.453948 -0.441446 3.07862 0.489864 -0.44178 
3.03711 0.525945 -0.442118 2.9968 0.563403 -0.442479 2.96302 0.608412 -0.442971 
2.93916 0.664881 -0.443662 2.90538 0.70989 -0.444155 2.86517 0.747533 -0.437108 
2.82498 0.78528 -0.422662 2.79132 0.830702 -0.393528 2.76761 0.887686 -0.357183 
2.73414 0.933604 -0.298423 2.69538 0.973551 -0.224747 2.66193 1.0197 -0.143768 
2.63706 1.07562 -0.0777706 2.59569 1.11234 -0.0262618 2.53779 1.12999 0.0255781 
2.48737 1.15633 0.0846781 2.43565 1.18124 0.151214 2.36744 1.18726 0.227949 
2.29152 1.18556 0.327055 2.21407 1.18844 0.460667 4.89639 0.796925 -0.8148 
4.89412 0.733383 -0.607965 4.89886 0.65898 -0.497307 0.801639 1.22004 -0.546603 
0.752449 1.24787 -0.480128 0.691932 1.26228 -0.450455 0.633507 1.27889 -0.443043 
0.565064 1.28387 -0.44284 0.496555 1.28877 -0.442636 0.436764 1.30374 -0.442607 
0.367099 1.3072 -0.434967 0.292358 1.30223 -0.404968 0.224198 1.28995 -0.337859 
0.168766 1.26955 -0.233633 0.108554 1.26676 -0.114823 0.0520579 1.28067 -0.00367017 
-0.00810594 1.27733 0.085515 -0.0607376 1.25399 0.160127 -0.110855 1.22594 0.227394 
-0.144268 1.18315 0.287388 -0.193116 1.15334 0.325032 -0.23821 1.11964 0.32568 
-0.284752 1.08655 0.289292 -0.341506 1.06204 0.237993 -0.386576 1.02751 0.196059 
-0.422062 0.983888 0.181996 -0.44431 0.921403 0.192215 2.41425 -0.976356 -0.685425 
2.36607 -1.00842 -0.744053 2.31929 -1.0413 -0.780443 2.26128 -1.06382 -0.779899 
2.2074 -1.08928 -0.742296 2.14961 -1.11093 -0.676938 2.10269 -1.14272 -0.579999 
2.05077 -1.17727 -0.440417 1.85446 -1.2031 -0.365189 1.77058 -1.21403 -0.459164 
1.71242 -1.23905 -0.532662 1.65256 -1.2609 -0.582125 1.59691 -1.28585 -0.603778 
1.52988 -1.30056 -0.603307 1.46287 -1.3149 -0.580619 1.40601 -1.33765 -0.535631 
1.33772 -1.35022 -0.483319 1.26304 -1.35498 -0.438511 1.19346 -1.35121 -0.408654 
1.13372 -1.3359 -0.378997 1.06412 -1.33185 -0.334332 0.988082 -1.33517 -0.282118 
0.912086 -1.3385 -0.237325 0.843665 -1.33329 -0.214903 4.82877 0.579522 -0.353677 
4.76052 0.58535 -0.28682 2.06852 -1.23612 0.0270504 2.1515 -1.24036 0.258284 
2.22147 -1.22685 0.413394 2.27746 -1.20106 0.503562 2.33559 -1.17775 0.554861 
2.37931 -1.14247 0.576419 2.40787 -1.09433 0.583046 2.42502 -1.03644 0.582172 
2.46238 -0.996161 0.574052 2.52492 -0.977954 0.551327 2.58259 -0.955912 0.506347 
2.61741 -0.914214 0.453762 2.6662 -0.884612 0.4013 2.70974 -0.850331 0.356205 
2.74837 -0.811938 0.303662 2.79318 -0.778893 0.251158 2.84801 -0.754385 0.206154 
2.88392 -0.713119 0.183215 2.90089 -0.655198 0.17493 2.92792 -0.605989 0.166727 
2.96237 -0.56346 0.143776 2.99803 -0.522359 0.098617 3.03228 -0.48017 0.0460279 
3.05763 -0.430142 0.000785994 1.95408 -1.28995 0.0504774 -0.543379 0.810107 0.194158 
-0.611333 0.786741 0.178082 -0.671111 0.764274 0.171221 -0.714764 0.729226 0.170033 
-0.741751 0.679849 0.170828 -0.748266 0.612747 0.171788 -0.753322 0.544382 0.17276 
-0.769755 0.485868 0.173639 -0.782197 0.423898 0.174552 -0.798518 0.365414 0.182842 
-0.801871 0.296107 0.206042 -0.796237 0.221957 0.251497 -0.781395 0.155729 0.304225 
-0.748774 0.109796 0.34918 -0.602529 -0.311382 0.14703 -0.587963 -0.378789 0.125688 
-0.556819 -0.42691 0.118823 -0.524352 -0.473365 0.126752 -0.500467 -0.529593 0.149662 
-0.466517 -0.573991 0.1946 -0.425993 -0.610726 0.246805 -0.384337 -0.646292 0.284178 
-0.342726 -0.682188 0.291914 -0.301175 -0.718289 0.28485 -0.259564 -0.754185 0.292585 
-0.217865 -0.789771 0.322548 -0.175947 -0.824809 0.375965 -0.131678 -0.855339 0.462643 
-0.0735646 -0.860241 0.614346 -0.572635 -0.190765 0.367485 -0.536076 -0.14723 0.507488 
-0.499811 -0.104727 0.573419 -0.667069 -0.216912 0.249692 -0.698278 -0.16855 0.308409 
-0.722613 -0.115167 0.352207 -0.72704 -0.0542624 0.373599 -0.713307 0.00416612 0.380142 
1.28355 1.61519 0.157164 1.35215 1.6106 0.179178 1.40431 1.58723 0.22374 
1.45524 1.56252 0.275747 1.51486 1.54776 0.32016 1.5656 1.52255 0.342532 
1.61635 1.49721 0.350094 1.67699 1.48322 0.350047 1.73417 1.46524 0.35007 
1.79474 1.45117 0.350025 1.8442 1.42427 0.350203 1.88704 1.38973 0.350514 
1.9288 1.354 0.358256 1.97175 1.3197 0.383255 2.02148 1.29155 0.437775 
2.08212 1.2642 0.519403 -0.631926 0.0778774 0.475102 -0.56329 0.0737463 0.541554 
-0.513789 0.0471706 0.57136 -0.479909 0.00234808 0.57926 1.84901 -1.34769 0.475823 
1.77293 -1.3462 0.581666 1.6957 -1.34945 0.656106 1.61962 -1.35266 0.71572 
1.55012 -1.34842 0.767792 1.4917 -1.33145 0.812233 1.42996 -1.31818 0.87156 
1.37174 -1.30072 0.945636 1.30372 -1.29442 1.03471 1.23684 -1.28695 1.10896 
1.18639 -1.2607 1.16065 1.14356 -1.22594 1.18256 1.10197 -1.18982 1.19704 
1.06055 -1.15343 1.21892 1.02041 -1.11535 1.263 0.986908 -1.06954 1.31436 
0.964521 -1.01089 1.36548 0.93872 -0.956248 1.40927 0.916334 -0.897598 1.4604 
0.882934 -0.851598 1.51916 0.844144 -0.811753 1.58543 0.810703 -0.765733 1.6516 
0.787046 -0.70855 1.70276 0.753362 -0.663224 1.72448 0.712955 -0.626076 1.7019 
0.671198 -0.590696 1.65712 0.628176 -0.556775 1.61238 0.578633 -0.530179 1.58998 
0.518052 -0.516361 1.58262 0.461067 -0.501268 1.58264 0.401839 -0.506823 1.58295 
0.355052 -0.536636 1.57614 0.308475 -0.569294 1.55456 0.251645 -0.593736 1.50327 
0.204739 -0.627628 1.41626 0.156245 -0.66537 1.27375 0.0889234 -0.713917 1.07097 
-0.396798 -0.0699859 0.550304 -0.34625 -0.0960431 0.506021 -0.302277 -0.129762 0.45445 
-0.252998 -0.157286 0.410193 -0.19381 -0.173227 0.380546 -0.144473 -0.200544 0.351097 
-0.100542 -0.234243 0.306947 -0.0512926 -0.26187 0.25527 0.00783017 -0.278025 0.210815 
0.0571314 -0.305314 0.188777 0.0999463 -0.339957 0.181678 0.141527 -0.375956 0.182014 
0.181845 -0.413413 0.182375 0.215553 -0.458506 0.182869 0.237997 -0.516437 0.183586 
0.261173 -0.570743 0.18425 0.265646 -0.631318 0.192487 0.252031 -0.689334 0.215571 
0.247224 -0.756998 0.260976 0.239554 -0.82207 0.321179 0.205208 -0.863584 0.397211 
0.148612 -0.881974 0.498943 0.0901582 -0.87716 0.643564 2.13282 1.11845 0.750885 
2.12007 1.05514 0.855528 2.1261 0.995859 0.920536 2.15719 0.950899 0.948201 
-0.23196 -0.547769 0.985975 -0.190379 -0.583768 0.986311 -0.148747 -0.62001 0.980479 
-0.105841 -0.659383 0.956164 -0.0548105 -0.716747 0.901194 1.52499 0.922324 1.46228 
1.49982 0.872915 1.55196 1.46558 0.8311 1.62677 1.42843 0.791548 1.68673 
1.3836 0.758393 1.73182 1.32714 0.734916 1.75459 -0.205028 1.19707 2.26541 
-0.150837 1.21661 2.20566 -0.099315 1.21023 2.19814 -0.0688837 1.16465 2.23569 
-0.0415268 1.11287 2.28817 -0.0199483 1.05419 2.33334 0.00607452 1.0005 2.36362 
0.0287852 0.942982 2.39396 0.062597 0.898426 2.43889 0.101858 0.860231 2.49114 
0.135771 0.81586 2.54347 0.15984 0.760121 2.59601 0.193907 0.716135 2.67056 
0.470077 1.70967 2.58156 0.538751 1.72358 2.62554 0.594801 1.74615 2.67686 
0.655774 1.75124 2.72841 0.714347 1.73823 2.7728 0.784278 1.73569 2.83182 
0.860818 1.74075 2.90553 0.937345 1.74594 2.99405 1.00604 1.74202 3.07533 
1.05575 1.71617 3.15698 1.08991 1.6725 3.25375 1.1053 1.6075 3.38795 
1.11408 1.53537 3.55931 1.12684 1.47083 3.75276 1.1419 1.42421 3.94596 
1.13559 1.37593 4.12446 1.13527 1.31114 4.27353 1.14777 1.24567 4.40032 
1.17129 1.19005 4.49731 1.18348 1.12368 4.56487 1.18135 1.05547 4.57323 
1.16642 0.99517 4.52968 1.16396 0.925825 4.45658 1.17568 0.857803 4.40561 
1.19901 0.800827 4.39891 1.21515 0.735787 4.43679 1.23914 0.679965 4.48933 
1.28962 0.654654 4.53393 -0.699643 0.796001 4.76953 -0.658062 0.760003 4.76986 

LINES 36 546
19 35 37 38 39 40 41 42 43 44 45 46 47 48 49 50 51 52 53 27 
20 35 54 55 56 57 58 59 60 61 62 63 64 65 66 67 68 69 70 71 34 
3 36 72 27 
21 35 73 74 75 76 77 78 79 80 81 82 83 84 85 86 87 88 89 90 91 24 
10 34 92 93 94 95 96 97 98 99 26 
9 34 100 101 102 103 104 105 106 31 
5 30 107 108 109 26 
3 33 110 30 
25 25 111 112 113 114 115 116 117 118 119 120 121 122 123 124 125 126 127 128 129 130 131 132 133 30 
24 25 134 135 136 137 138 139 140 141 142 143 144 145 146 147 148 149 150 151 152 153 154 155 25 
4 32 156 157 28 
9 27 158 159 160 161 162 163 164 28 
19 29 165 166 167 168 169 170 171 172 173 174 175 176 177 178 179 180 181 22 
8 28 182 183 184 185 186 187 15 
7 27 188 189 190 191 192 24 
30 26 193 194 195 196 197 198 199 200 201 202 203 204 205 206 207 208 209 210 211 212 213 214 215 216 217 218 219 220 11 
5 25 221 222 223 22 
26 24 224 225 226 227 228 229 230 231 232 233 234 235 236 237 238 239 240 241 242 243 244 245 246 247 15 
10 23 248 249 250 251 252 253 254 255 19 
18 19 256 257 258 259 260 261 262 263 264 265 266 267 268 269 270 271 21 
4 22 272 273 20 
26 19 274 275 276 277 278 279 280 281 282 283 284 285 286 287 288 289 290 291 292 293 294 295 296 297 18 
16 15 299 300 301 302 303 304 305 306 307 308 309 310 311 312 14 
17 17 313 314 315 316 317 318 319 320 321 322 323 324 325 326 327 9 
5 17 328 329 330 12 
7 17 331 332 333 334 335 14 
18 16 336 337 338 339 340 341 342 343 344 345 346 347 348 349 350 351 11 
6 14 352 353 354 355 12 
25 12 393 394 395 396 397 398 399 400 401 402 403 404 405 406 407 408 409 410 411 412 413 414 415 9 
6 11 416 417 418 419 8 
7 10 420 421 422 423 424 9 
8 7 425 426 427 428 429 430 6 
15 5 431 432 433 434 435 436 437 438 439 440 441 442 443 3 
30 4 444 445 446 447 448 449 450 451 452 453 454 455 456 457 458 459 460 461 462 463 464 465 466 467 468 469 470 471 2 
4 1 472 473 0 
41 19 298 13 356 357 358 359 360 361 362 363 364 365 366 367 368 369 370 371 372 373 374 375 376 377 378 379 380 381 382 383 384 385 386 387 388 389 390 391 392 9 

POINT_DATA 474
SCALARS DY_raw double
LOOKUP_TABLE default
47.1788 0 125.862 172.556 102.763 113.569 192.353 92.7447 273.965 
145.047 161.629 129.494 122.145 171.017 151.628 172.773 71.1829 118.475 
116.245 192.908 394.54 126.147 254.681 233.561 153.416 180.255 205.145 
160.95 136.873 162.072 166.719 312.353 170.087 167.056 134.733 150.545 
98.8564 156.419 188.505 184.499 180.876 164.716 151.655 151.655 157.015 
153.767 153.767 124.334 152.57 155.436 165.577 188.624 195.423 194.327 
137.627 158.915 159.948 183.791 180.813 180.813 152.872 129.25 129.25 
102.947 97.4494 97.4494 101.497 114.769 144.685 134.694 129.409 123.957 
121.645 138.493 138.628 145.488 137.047 155.885 118.021 115.186 115.186 
107.703 122.78 111.325 135.1 134.317 158.116 156.179 160.693 147.977 
182.38 163.419 130.61 129.256 136.69 158.226 181.676 177.396 175.506 
164.598 153.112 156.765 173.263 201.99 230.967 230.967 287.571 161.113 
165.969 171.13 168.201 189.866 195.075 202.782 236.579 207.242 209.456 
209.456 197.062 219.018 164.633 180.435 199.996 170.051 209.033 178.949 
194.093 181.654 181.654 176.044 197.877 210.801 200.708 202.76 215.285 
155.402 170.878 178.201 156.05 186.039 221.515 199.508 227.636 154.928 
120.334 143.61 152.914 136.166 105.64 95.6073 104.262 114.852 111.625 
150.481 165.867 150.931 156.468 162.765 154.091 207.964 257.852 251.878 
214.678 185.858 166.346 125.53 124.645 117.962 98.9146 97.4615 112.241 
101.712 141.098 181.58 183.389 217.787 197.263 198.708 217.591 243.102 
253.169 253.169 168.627 151.331 131.928 119.136 141.221 162.483 157.498 
163.208 149.478 150.433 170.956 191.229 212.065 219.492 192.127 192.127 
171.565 166.52 166.52 140.748 129.222 129.222 116.031 116.031 107.79 
91.2465 91.2465 102.462 120.941 120.588 131.581 128.748 137.788 107.905 
119.915 106.818 87.5845 96.1451 118.273 277.54 250.431 242.004 182.567 
179.694 156.92 169.459 169.459 146.208 136.787 139.877 140.231 133.294 
144.274 137.987 168.09 166.306 147.435 151.37 152.095 158.935 141.571 
136.896 125.221 133.538 126.186 147.409 156.473 160.074 134.883 142.407 
130.003 146.975 150.603 175.425 166.943 146.468 123.3 125.208 122.822 
170.362 145.404 161.342 139.592 142.377 130.175 155.109 145.826 111.482 
131.617 129.103 313.241 364.95 195.583 188.449 204.781 224.116 236.049 
182.116 163.989 163.989 174 189.846 226.949 216.263 200.997 175.04 
169.007 153.631 167.821 170.463 170.463 188.047 196.378 156.617 160.128 
151.293 196.494 142.795 106.943 104.716 109.436 126.811 130.344 131.494 
131.667 131.667 119.221 124.371 118.357 133.759 133.421 88.669 91.5673 
91.5673 92.3227 103.811 113.457 125.559 149.909 142.935 142.935 134.696 
124.021 123.859 139.786 156.709 141.016 151.534 163.96 147.869 168.704 
167.7 160.348 151.628 80.6534 107.637 114.455 110.48 135.639 161.594 
146.003 152.674 126.555 126.555 121.172 121.172 106.897 107.91 110.129 
119.587 152.941 140.46 126.956 126.956 188.99 217.174 213.6 171.73 
191.874 207.519 184.843 185.528 203.227 188.402 204.888 171.032 120.319 
136.289 126.93 127.813 127.813 123.017 149.538 174.167 206.843 220.839 
220.504 199.523 199.523 186.833 173.297 173.297 163.444 149.095 137.795 
135.714 139.249 150.879 165.545 158.082 142.127 150.708 168.783 136.628 
143.991 176.146 164.425 140.141 144.86 158.226 140.195 151.761 151.948 
151.948 124.472 124.472 110.634 106.432 109.846 98.4862 112.594 119.499 
139.406 149.377 147.627 164.788 187.78 207.201 158.573 158.573 155.551 
154.651 142.795 131.648 133.16 162.428 173.75 195.382 242.887 98.5318 
82.362 71.4766 74.532 93.1553 95.3448 87.8403 98.5912 98.5912 108.335 
115.305 122.294 143.253 102.763 102.747 101.786 80.1926 62.0207 58.2455 
57.3033 54.464 51.4755 58.6333 73.3275 97.7099 89.0416 77.8222 73.429 
75.7832 76.2959 84.9698 93.7918 106.073 96.4773 86.2664 71.6265 75.405 
80.4208 94.4511 92.8919 103.218 56.1115 47.1788 
FIELD FieldData 7
DY_minmax 1 474 double
0.119579 0 0.319009 0.437359 0.260464 0.287852 0.487537 0.23507 0.69439 
0.367636 0.409665 0.328216 0.309589 0.43346 0.384315 0.437911 0.18042 0.300286 
0.294635 0.488943 1 0.319731 0.645513 0.591984 0.388847 0.456874 0.519961 
0.407943 0.346919 0.410788 0.422565 0.791689 0.431102 0.423419 0.341493 0.381572 
0.250561 0.396459 0.477783 0.46763 0.458449 0.41749 0.384385 0.384385 0.397969 
0.389738 0.389738 0.315136 0.386703 0.393967 0.419671 0.478085 0.495319 0.49254 
0.348829 0.402785 0.405403 0.465836 0.458288 0.458288 0.387469 0.327597 0.327597 
0.26093 0.246995 0.246995 0.257253 0.290892 0.366717 0.341395 0.327999 0.314181 
0.308321 0.351025 0.351366 0.368754 0.347358 0.395105 0.299137 0.291951 0.291951 
0.272984 0.311197 0.282163 0.342425 0.340439 0.400761 0.395852 0.407292 0.375061 
0.46226 0.4142 0.331043 0.327612 0.346455 0.40104 0.460476 0.449627 0.444838 
0.41719 0.388077 0.397335 0.439151 0.511964 0.585409 0.585409 0.728876 0.408357 
0.420665 0.433745 0.426322 0.481233 0.494437 0.51397 0.599632 0.525275 0.530887 
0.530887 0.499472 0.555122 0.417278 0.457331 0.506909 0.43101 0.529815 0.453563 
0.491948 0.46042 0.46042 0.446199 0.501538 0.534296 0.508713 0.513915 0.545662 
0.393881 0.433107 0.451669 0.395525 0.471535 0.56145 0.505673 0.576967 0.39268 
0.304999 0.363994 0.387576 0.345125 0.267755 0.242326 0.264262 0.291105 0.282925 
0.381409 0.420405 0.382548 0.396584 0.412543 0.390558 0.527104 0.653551 0.638409 
0.544121 0.471076 0.421619 0.318168 0.315924 0.298985 0.250709 0.247026 0.284486 
0.257799 0.357626 0.460231 0.464818 0.552003 0.499981 0.503644 0.551506 0.616165 
0.64168 0.64168 0.427401 0.383563 0.334384 0.301961 0.357939 0.411828 0.399194 
0.413665 0.378867 0.381287 0.433305 0.48469 0.5375 0.556325 0.486963 0.486963 
0.434848 0.422062 0.422062 0.356741 0.327525 0.327525 0.294091 0.294091 0.273203 
0.231273 0.231273 0.2597 0.306536 0.305642 0.333504 0.326323 0.349237 0.273495 
0.303936 0.27074 0.221992 0.243689 0.299775 0.703453 0.634741 0.613382 0.462735 
0.455452 0.39773 0.42951 0.42951 0.370578 0.346701 0.354531 0.355428 0.337848 
0.365676 0.349741 0.42604 0.421518 0.373687 0.383662 0.385499 0.402836 0.358826 
0.346975 0.317386 0.338465 0.319832 0.373622 0.396595 0.405724 0.341875 0.360946 
0.329506 0.372522 0.381719 0.444632 0.423133 0.371238 0.312516 0.317353 0.311305 
0.4318 0.368541 0.408937 0.353809 0.360869 0.329942 0.39314 0.36961 0.282563 
0.333597 0.327225 0.79394 0.925001 0.495725 0.477643 0.519038 0.568045 0.598288 
0.461589 0.415646 0.415646 0.441019 0.481182 0.575225 0.54814 0.509445 0.443655 
0.428365 0.389393 0.425358 0.432056 0.432056 0.476625 0.497739 0.396962 0.405861 
0.383466 0.498033 0.361929 0.271059 0.265413 0.277377 0.321416 0.33037 0.333284 
0.333723 0.333723 0.302176 0.315229 0.299988 0.339024 0.33817 0.22474 0.232086 
0.232086 0.234001 0.26312 0.287567 0.318242 0.379959 0.362282 0.362282 0.3414 
0.314342 0.313931 0.354302 0.397195 0.35742 0.384078 0.415573 0.374789 0.427596 
0.425052 0.406417 0.384315 0.204424 0.272817 0.290098 0.280023 0.343791 0.409577 
0.370058 0.386967 0.320767 0.320767 0.307123 0.307123 0.270941 0.27351 0.279132 
0.303104 0.387643 0.356011 0.321782 0.321782 0.479014 0.550448 0.54139 0.435268 
0.486323 0.525977 0.468501 0.470239 0.515098 0.477522 0.51931 0.433497 0.304961 
0.345437 0.321717 0.323955 0.323955 0.311798 0.379018 0.441443 0.524263 0.559739 
0.558889 0.50571 0.50571 0.473546 0.439238 0.439238 0.414266 0.377896 0.349256 
0.343981 0.352939 0.382418 0.419589 0.400674 0.360234 0.381985 0.427796 0.346298 
0.364959 0.446458 0.416751 0.355201 0.367162 0.401039 0.355339 0.384652 0.385126 
0.385126 0.315485 0.315485 0.280413 0.269763 0.278415 0.249623 0.285381 0.302881 
0.353337 0.378611 0.374174 0.417671 0.475947 0.52517 0.401918 0.401918 0.394259 
0.391978 0.361927 0.333674 0.337506 0.41169 0.440386 0.495215 0.615622 0.249739 
0.208755 0.181164 0.188909 0.236111 0.241661 0.22264 0.249889 0.249889 0.274586 
0.292252 0.309967 0.363089 0.260464 0.260423 0.257986 0.203256 0.157197 0.147629 
0.145241 0.138044 0.13047 0.148612 0.185856 0.247655 0.225685 0.197248 0.186113 
0.19208 0.193379 0.215364 0.237724 0.268852 0.244531 0.21865 0.181544 0.191121 
0.203834 0.239396 0.235443 0.261615 0.14222 0.119579 
WidthEq 1 474 double
1.90637 1.30959 1.43387 2.60884 2.22336 2.29147 2.43568 2.86626 2.27705 
6.4881 4.14071 5.47884 6.72159 7.16389 6.14907 4.89433 3.2963 5.31092 
4.41093 8.22943 1 5.17152 3.4425 2.75397 5.19145 6.05336 2.91179 
6.76496 7.87517 3.69409 3.16959 1.53682 4.95628 2.25733 4.61061 6.69167 
5.52205 6.14594 5.36353 5.1242 4.95747 4.98621 5.17173 5.17173 5.03946 
4.94878 4.94878 5.17309 4.77945 4.62789 4.6899 5.01321 5.63229 6.04888 
6.82497 5.95652 5.36763 4.49924 4.00082 4.00082 4.35449 4.57647 4.57647 
4.7808 5.09947 5.09947 5.15791 5.15629 4.46564 4.79338 4.84642 4.7472 
6.94677 6.90971 6.48643 6.06908 5.5873 5.29661 5.55543 5.75484 5.75484 
5.60021 5.60777 5.61906 5.47512 5.27187 4.99215 4.96903 4.92274 5.35672 
4.85388 5.40361 4.74245 4.43453 4.17301 4.1136 4.01341 3.85488 3.60346 
3.61426 3.99531 3.97641 3.80244 3.29927 2.91314 2.91314 1.85154 3.27745 
3.10925 2.97768 2.90801 6.03084 5.8357 5.43013 5.39059 4.60553 4.19305 
4.19305 4.09918 3.9494 4.37944 4.4273 4.14103 4.14012 3.83614 3.92693 
3.8262 3.91943 3.91943 4.0611 3.76992 3.45325 3.17796 2.88597 5.51449 
5.35419 4.60651 4.44166 4.39192 4.14617 3.54961 3.54918 3.07161 2.96731 
3.28668 3.59946 4.27639 5.23876 5.98466 5.81085 5.9105 5.17168 5.18772 
5.39869 5.67734 5.80896 5.96722 6.48297 6.28091 5.21721 4.44247 4.6259 
5.53626 6.5043 6.98317 5.0979 5.13074 5.54587 5.12755 4.57442 4.35865 
3.76711 3.5508 2.90666 2.98632 2.81068 2.8749 2.94976 2.46398 2.66728 
2.75958 2.75958 6.24645 6.77528 7.07629 7.86145 7.16784 5.92217 6.02198 
5.4177 5.14937 5.07927 4.96174 3.27512 3.01954 2.66852 2.95451 2.95451 
3.27928 3.36127 3.36127 3.62263 3.87767 3.87767 4.37496 4.37496 4.44858 
4.80424 4.80424 4.52538 4.24025 4.15465 4.37982 4.58339 4.49357 5.23509 
4.89638 5.32561 5.61355 5.84023 5.5436 4.44598 3.88367 3.53978 4.81899 
4.64885 4.48725 4.62897 4.62897 5.42337 5.94631 6.12482 6.35496 6.16117 
5.85006 5.95252 5.86686 5.81496 5.90845 5.8546 5.57817 5.3274 5.44595 
5.65957 5.91504 5.71163 5.95452 5.44465 3.86444 4.25246 4.78318 5.1538 
6.40822 6.74946 7.67678 7.94528 8.32973 7.57222 6.88784 6.6355 6.06681 
4.9302 5.32729 4.84605 5.29007 5.28602 5.58838 5.55576 5.95717 6.90674 
6.71484 5.8519 2.62348 1.79186 7.73987 6.61875 5.06706 3.95977 3.70597 
3.81324 3.93466 3.93466 3.66271 3.25849 3.23024 3.17585 3.36354 3.80913 
4.30366 4.28735 4.38933 4.55201 4.55201 4.44053 4.47067 4.68882 4.7317 
4.70724 7.91092 5.10184 5.50309 5.61528 5.66805 5.11988 5.13441 4.9054 
4.84875 4.84875 5.04837 5.51779 6.12147 5.33236 6.53396 5.82176 5.81506 
5.81506 5.54501 6.11494 6.1575 5.90796 5.21089 5.42759 5.42759 5.49148 
5.59238 6.42588 6.0262 5.32221 5.62494 5.69192 5.48268 4.86727 4.54963 
5.17687 5.72044 6.14907 4.42238 5.33625 5.19566 5.59167 4.78998 3.95199 
4.323 4.02918 4.14206 4.14206 3.91748 3.91748 4.37215 4.55433 4.78377 
5.16822 6.3898 6.54498 6.87671 6.87671 6.07772 4.37728 3.85375 4.9 
5.35743 4.99685 5.75387 5.29618 4.91977 4.77129 4.49508 4.87429 5.32135 
5.23066 5.01953 4.82806 4.82806 4.58555 4.07871 3.83598 3.20113 3.0749 
3.02262 3.31601 3.31601 3.49387 4.03371 4.03371 4.41563 4.79727 4.91453 
4.97022 4.89844 4.60024 4.45252 4.73343 5.83008 5.56154 4.95531 5.42084 
5.27117 5.01489 5.33253 5.67193 5.68852 5.47306 5.74021 5.70326 6.10592 
6.10592 6.64095 6.64095 6.94876 7.11296 7.13764 7.42866 6.97123 7.35288 
7.19598 6.95206 5.56208 4.94424 3.99547 3.3428 4.74186 4.74186 5.76635 
5.98153 6.42356 3.32433 3.78591 3.80038 3.6518 3.27015 2.55785 2.36573 
2.88592 3.19951 3.46173 3.33508 3.59946 4.40823 4.55152 4.55152 4.50777 
4.51965 4.41304 3.8416 2.22336 2.28094 2.30297 2.70573 2.85373 3.15732 
3.08517 3.47275 3.71769 3.58482 3.39341 3.16375 3.45131 3.89593 4.05181 
4.05948 4.28935 3.87244 3.48879 2.9294 2.53873 2.60646 3.04217 3.39341 
3.27701 3.08922 3.07971 2.55877 2.09119 1.90637 
rRFP 1 474 double
2611.01 2500.52 2523.53 2741.07 2669.7 2682.31 2709.01 2788.73 2679.64 
3459.3 3024.69 3272.44 3502.53 3584.42 3396.53 3164.22 2868.35 3241.35 
3074.72 3781.7 2443.2 3215.54 2895.42 2767.94 3219.23 3378.81 2797.16 
3510.56 3716.11 2942 2844.89 2542.59 3175.69 2675.99 3111.69 3496.99 
3280.44 3395.95 3251.09 3206.78 3175.91 3181.23 3215.58 3215.58 3191.09 
3174.3 3174.3 3215.83 3142.95 3114.89 3126.37 3186.23 3300.85 3377.98 
3521.67 3360.88 3251.85 3091.07 2998.79 2998.79 3064.27 3105.37 3105.37 
3143.2 3202.2 3202.2 3213.02 3212.72 3084.85 3145.53 3155.35 3136.98 
3544.22 3537.36 3458.99 3381.72 3292.52 3238.7 3286.62 3323.54 3323.54 
3294.91 3296.31 3298.4 3271.75 3234.12 3182.33 3178.05 3169.48 3249.83 
3156.73 3258.51 3136.1 3079.09 3030.67 3019.67 3001.12 2971.77 2925.22 
2927.22 2997.77 2994.27 2962.06 2868.9 2797.41 2797.41 2600.86 2864.86 
2833.72 2809.36 2796.46 3374.64 3338.51 3263.42 3256.1 3110.75 3034.38 
3034.38 3017 2989.27 3068.89 3077.75 3024.75 3024.58 2968.3 2985.11 
2966.46 2983.72 2983.72 3009.95 2956.04 2897.41 2846.44 2792.38 3279.04 
3249.36 3110.93 3080.41 3071.2 3025.7 2915.25 2915.17 2826.75 2807.44 
2866.57 2924.48 3049.81 3227.99 3366.09 3333.91 3352.36 3215.57 3218.54 
3257.6 3309.19 3333.56 3362.86 3458.35 3420.94 3224 3080.56 3114.52 
3283.07 3462.3 3550.96 3201.91 3207.99 3284.85 3207.4 3104.99 3065.04 
2955.52 2915.47 2796.21 2810.96 2778.44 2790.33 2804.19 2714.25 2751.89 
2768.98 2768.98 3414.56 3512.47 3568.2 3713.57 3585.15 3354.52 3373 
3261.12 3211.44 3198.46 3176.7 2864.43 2817.11 2752.12 2805.07 2805.07 
2865.2 2880.38 2880.38 2928.77 2975.99 2975.99 3068.06 3068.06 3081.69 
3147.54 3147.54 3095.91 3043.12 3027.27 3068.96 3106.65 3090.02 3227.31 
3164.6 3244.07 3297.38 3339.35 3284.43 3081.21 2977.1 2913.43 3150.27 
3118.77 3088.85 3115.09 3115.09 3262.17 3358.99 3392.04 3434.65 3398.77 
3341.17 3360.14 3344.28 3334.67 3351.98 3342.01 3290.83 3244.4 3266.35 
3305.9 3353.2 3315.54 3360.51 3266.11 2973.54 3045.38 3143.64 3212.26 
3444.51 3507.69 3679.38 3729.09 3800.27 3660.02 3533.31 3486.59 3381.3 
3170.86 3244.38 3155.28 3237.49 3236.74 3292.72 3286.68 3361 3536.81 
3501.28 3341.51 2743.78 2589.81 3691.06 3483.49 3196.2 2991.19 2944.2 
2964.06 2986.54 2986.54 2936.19 2861.35 2856.12 2846.05 2880.8 2963.3 
3054.86 3051.84 3070.72 3100.84 3100.84 3080.2 3085.78 3126.17 3134.11 
3129.58 3722.73 3202.64 3276.93 3297.7 3307.47 3205.98 3208.67 3166.27 
3155.78 3155.78 3192.74 3279.65 3391.42 3245.32 3467.79 3335.93 3334.69 
3334.69 3284.69 3390.21 3398.09 3351.89 3222.83 3262.95 3262.95 3274.78 
3293.46 3447.78 3373.78 3243.44 3299.49 3311.89 3273.15 3159.21 3100.4 
3216.53 3317.17 3396.53 3076.84 3246.04 3220.01 3293.33 3144.9 2989.75 
3058.44 3004.04 3024.94 3024.94 2983.36 2983.36 3067.54 3101.27 3143.75 
3214.93 3441.1 3469.83 3531.25 3531.25 3383.32 3068.49 2971.56 3165.27 
3249.96 3183.2 3323.36 3238.62 3168.93 3141.44 3090.3 3160.51 3243.28 
3226.49 3187.4 3151.95 3151.95 3107.05 3013.21 2968.27 2850.73 2827.36 
2817.68 2872 2872 2904.93 3004.88 3004.88 3075.59 3146.25 3167.96 
3178.27 3164.98 3109.77 3082.42 3134.43 3337.47 3287.75 3175.51 3261.7 