# vtk DataFile Version 3.0
vtk output
ASCII
DATASET POLYDATA
POINTS 550 float
2.60886 -0.172838 1.55047 0.573269 -0.89438 1.3216 1.50335 1.17376 1.30602 
-0.132496 -1.0802 0.343552 1.9941 -2.35515 0.573912 6.66555 -0.0105789 0.428559 
1.05917 1.59546 0.0897516 6.34823 0.74772 0.209604 5.61789 -0.855969 0.0214372 
6.92997 0.797955 -0.0996928 -0.128143 -1.22669 -0.407172 0.509112 -1.95399 -0.262705 
0.754505 -1.70745 -0.261871 0.624725 1.48938 -0.317323 5.57302 -1.00696 -0.177032 
7.12052 -0.166964 -0.159953 6.37936 1.42978 -0.201184 -0.226739 -0.975378 -0.493677 
4.99746 -0.6452 -0.485368 6.72885 0.861679 -0.384865 6.91697 1.05889 -0.384362 
6.97398 1.23118 -0.386069 5.35954 -0.940332 -0.58254 6.46643 -1.06057 -0.558402 
7.20287 -0.44392 -0.553861 6.75702 1.05518 -0.587568 5.70949 -1.09965 -0.839663 
6.10156 -1.06479 -0.765701 7.41308 -0.0666236 -1.19361 1.89501 1.43006 -1.09119 
3.52959 -1.60154 -1.07319 3.32828 0.0530463 -1.23981 3.28341 -0.0979401 -1.43828 
7.334 0.660756 -1.42164 0.353184 0.21191 -1.87359 4.88666 -0.466206 -1.60018 
5.5272 -1.00568 -1.57844 5.30605 0.785778 -1.81255 5.527 0.958476 -1.81099 
7.15253 -0.193409 -1.75941 7.22583 0.0281126 -1.76161 0.591556 -0.0746355 -2.15943 
2.53296 -0.0605492 -2.05412 5.60815 -0.626816 -1.98322 5.75537 -0.470696 -1.98286 
5.47399 0.782881 -2.00921 0.840758 -0.363157 -2.28304 2.29419 -1.54006 -2.2345 
5.6845 0.0422766 -2.19282 5.85554 0.55916 -2.19795 5.8312 0.485369 -2.19721 
5.80849 0.412396 -2.19646 5.7947 0.343912 -2.1956 5.79446 0.28224 -2.19459 
5.78063 0.213854 -2.19374 5.757 0.142703 -2.19303 5.72644 0.0812911 -2.19263 
5.81461 0.602684 -2.10315 5.75168 0.634548 -2.03084 5.67882 0.660704 -1.98828 
5.60525 0.687358 -1.96795 5.53568 0.724052 -1.97736 5.92218 0.549049 -2.19644 
5.97758 0.561285 -2.19554 6.02849 0.582454 -2.19487 6.08303 0.596423 -2.19401 
6.14427 0.597048 -2.19279 6.19789 0.61284 -2.19198 6.24258 0.646379 -2.19164 
6.28047 0.69345 -2.19166 6.3295 0.718198 -2.18368 6.39034 0.719101 -2.16025 
6.44924 0.723345 -2.11468 6.51041 0.722907 -2.06158 6.56497 0.735789 -2.01624 
6.62075 0.746767 -1.99308 6.68734 0.736582 -1.98417 6.75489 0.724648 -1.98262 
6.81647 0.724603 -1.98138 6.88393 0.712694 -1.97243 6.95109 0.701029 -1.94866 
7.01163 0.701841 -1.8956 7.07775 0.691034 -1.81999 7.14345 0.680661 -1.72218 
7.20346 0.683295 -1.62469 7.27035 0.677085 -1.51951 2.34918 -1.52854 -2.1669 
2.41555 -1.5395 -2.10611 2.48655 -1.55951 -2.05249 2.55409 -1.57243 -2.00647 
2.61472 -1.5718 -1.9534 2.68211 -1.58461 -1.89996 2.75327 -1.60474 -1.85375 
2.82033 -1.61622 -1.82999 2.87544 -1.60373 -1.81427 2.92504 -1.58047 -1.79144 
2.97333 -1.55512 -1.74643 3.02142 -1.52955 -1.69402 3.06957 -1.50408 -1.64161 
3.11872 -1.48045 -1.59656 3.17294 -1.46722 -1.53641 3.23902 -1.47794 -1.46081 
3.31015 -1.49901 -1.36456 3.38377 -1.52259 -1.27008 3.46287 -1.55217 -1.16983 
0.778067 -0.33137 -2.21813 0.729156 -0.292849 -2.16047 0.67762 -0.25603 -2.12012 
0.641926 -0.210585 -2.10924 0.615771 -0.152246 -2.12555 0.852925 -0.418388 -2.27448 
0.853046 -0.479483 -2.25865 0.86665 -0.533598 -2.23525 0.889475 -0.583469 -2.22656 
0.914073 -0.632644 -2.22525 0.938672 -0.68182 -2.22395 0.961051 -0.731323 -2.19304 
0.974211 -0.785071 -2.14743 0.973927 -0.845582 -2.10198 0.989255 -0.898829 -2.07856 
1.02273 -0.943344 -2.06974 1.07152 -0.980351 -2.06816 1.10686 -1.02412 -2.06672 
1.13328 -1.07238 -2.0654 1.15817 -1.12141 -2.06409 1.1846 -1.16966 -2.06276 
1.21994 -1.21343 -2.06133 1.26882 -1.2504 -2.05974 1.30417 -1.29416 -2.05831 
1.33059 -1.34242 -2.05698 1.35539 -1.3915 -2.05568 1.38008 -1.44062 -2.05437 
1.40488 -1.4897 -2.05306 1.43115 -1.53784 -2.04433 1.46605 -1.58124 -2.02069 
1.51405 -1.61746 -1.97467 1.54846 -1.66032 -1.9214 1.57566 -1.70681 -1.86822 
1.61195 -1.74892 -1.82234 1.67054 -1.77962 -1.76879 1.73091 -1.80962 -1.72262 
1.77804 -1.84667 -1.69143 1.82884 -1.88267 -1.68982 1.86605 -1.92538 -1.68836 
1.90394 -1.96551 -1.67953 1.95949 -1.98519 -1.65587 2.01732 -1.98695 -1.63986 
2.0748 -2.00605 -1.63099 2.12185 -2.04177 -1.62945 2.17423 -2.07684 -1.62783 
2.22027 -2.11504 -1.61886 2.27226 -2.14984 -1.59502 2.31928 -2.18656 -1.54901 
2.38118 -2.21539 -1.48802 2.4519 -2.23947 -1.41951 2.52338 -2.26101 -1.35103 
2.58975 -2.27197 -1.29025 2.64431 -2.25909 -1.24491 2.69464 -2.23743 -1.21462 
2.74858 -2.22297 -1.18414 2.80902 -2.2218 -1.1385 2.86334 -2.20861 -1.08575 
2.91776 -2.19544 -1.04042 2.97783 -2.193 -1.01704 3.02753 -2.16978 -1.0016 
3.07028 -2.13289 -0.979127 3.12538 -2.12107 -0.933765 3.17796 -2.10442 -0.88111 
3.22697 -2.08051 -0.83607 3.27483 -2.05379 -0.813326 3.31842 -2.01821 -0.80563 
3.35448 -1.96749 -0.805747 3.39198 -1.91965 -0.805787 3.42202 -1.85678 -0.813639 
3.44873 -1.78673 -0.83834 3.48045 -1.72352 -0.894329 3.51969 -1.66969 -0.974091 
0.864856 -0.289288 -2.27637 0.885439 -0.216991 -2.26234 0.886204 -0.154467 -2.24113 
0.847883 -0.112119 -2.23518 0.802753 -0.0755425 -2.23916 0.744262 -0.0575822 -2.2431 
0.677591 -0.0643694 -2.21468 5.50229 0.875806 -1.91385 5.38651 0.774006 -1.90708 
5.72398 -0.532501 -2.04174 5.67489 -0.577874 -2.04197 5.5824 -0.728447 -1.90796 
5.55809 -0.810398 -1.82557 5.54252 -0.878934 -1.73584 5.54074 -0.939295 -1.65336 
5.5187 -0.595713 -1.98552 5.44933 -0.563903 -1.98744 5.39862 -0.526904 -1.98165 
5.335 -0.496845 -1.96119 5.26287 -0.472555 -1.91858 5.19351 -0.457983 -1.86834 
5.13167 -0.458626 -1.8177 5.06771 -0.454872 -1.77458 5.00679 -0.457338 -1.72389 
4.9434 -0.455071 -1.66592 2.58908 -0.0499143 -2.04576 2.65547 -0.0598789 -2.02945 
2.72157 -0.0695988 -1.99833 2.7771 -0.0584742 -1.96035 2.83223 -0.0470802 -1.90015 
2.89821 -0.0577652 -1.81715 2.96905 -0.0786406 -1.71165 3.0407 -0.101141 -1.6061 
3.11198 -0.122384 -1.52281 3.1785 -0.13347 -1.46943 3.23346 -0.120857 -1.44631 
0.502055 -0.0409344 -2.06297 0.44343 -0.00137607 -1.98223 0.427046 0.0568569 -1.92495 
0.401569 0.12426 -1.89234 7.30879 -0.00766315 -1.48103 7.20443 -0.16528 -1.65464 
7.28115 -0.126545 -1.46618 0.456996 0.315408 -1.93886 0.515035 0.389434 -1.97809 
0.556708 0.43881 -1.9823 0.593866 0.487878 -1.98343 0.643051 0.512658 -1.99027 
0.702896 0.516406 -2.00395 0.751785 0.54143 -1.99598 0.788167 0.590813 -1.96643 
0.825848 0.637443 -1.92939 0.860642 0.69016 -1.90734 0.898673 0.73661 -1.89252 
0.933516 0.789229 -1.87047 0.97187 0.834346 -1.82599 1.01225 0.875272 -1.77398 
1.06632 0.88911 -1.72867 1.11332 0.91755 -1.70598 1.14629 0.974075 -1.69143 
1.182 1.02497 -1.66932 1.23082 1.04927 -1.62429 1.27119 1.09019 -1.57229 
1.3149 1.12466 -1.52753 1.36277 1.15137 -1.50478 1.41156 1.17643 -1.4894 
1.46024 1.20151 -1.46661 1.50848 1.22696 -1.42161 1.55643 1.25265 -1.36179 
1.60423 1.27847 -1.29457 1.65207 1.30419 -1.22735 1.70089 1.32816 -1.16749 
1.75444 1.34305 -1.12221 1.81436 1.34577 -1.09882 1.86247 1.37234 -1.09089 
0.213498 0.201789 -1.68992 0.114819 0.214068 -1.50897 0.0406367 0.226885 -1.34447 
-0.0184501 0.21845 -1.21318 -0.0757304 0.207707 -1.11783 -0.137632 0.206672 -1.04495 
-0.186934 0.181164 -0.986232 -0.217817 0.123241 -0.934025 -0.233458 0.0574112 -0.888794 
-0.234551 -0.00338289 -0.843346 -0.247197 -0.0705058 -0.81285 -0.259152 -0.138069 -0.811972 
-0.25699 -0.199318 -0.840556 -0.259438 -0.262887 -0.869194 -0.256233 -0.322824 -0.868139 
-0.260014 -0.385291 -0.830139 -0.259325 -0.445311 -0.784668 -0.271733 -0.512511 -0.761578 
-0.283253 -0.580446 -0.782912 -0.280696 -0.641891 -0.82631 -0.281114 -0.704832 -0.869733 
-0.266965 -0.759659 -0.883369 -0.246162 -0.810152 -0.85988 -0.233693 -0.863459 -0.784654 
-0.235795 -0.922717 -0.657744 5.49263 -1.05899 -1.37818 5.45356 -1.07321 -1.17866 
5.42839 -1.0369 -0.9797 5.41074 -0.981324 -0.780905 5.59558 -1.02767 -1.35194 
5.65834 -1.05632 -1.10568 7.37649 0.614781 -1.32371 7.42324 0.573334 -1.24057 
7.45497 0.528686 -1.1651 7.46767 0.475239 -1.09727 7.45644 0.409616 -1.03713 
7.44532 0.343655 -0.991806 7.4555 0.287307 -0.977236 7.46561 0.22482 -1.00379 
7.44941 0.117161 -1.08153 3.30591 -0.0225081 -1.34275 3.35563 -0.119843 -1.40683 
3.42114 -0.129156 -1.3535 3.46686 -0.104183 -1.27889 3.48256 -0.050477 -1.19796 
3.45794 -0.00253708 -1.15479 3.39875 0.0287214 -1.17131 7.38591 -0.256545 -1.09885 
7.35818 -0.368617 -0.996128 7.32404 -0.432268 -0.871647 7.27196 -0.454936 -0.722724 
3.35128 0.127939 -1.1739 3.3727 0.201843 -1.11541 3.38378 0.270145 -1.07186 
3.37111 0.325911 -1.05081 3.34809 0.376076 -1.04469 3.32324 0.425325 -1.03859 
3.29628 0.473901 -1.0177 3.25831 0.517534 -0.97473 3.19775 0.549997 -0.924601 
3.13733 0.582337 -0.881889 3.09981 0.625602 -0.861128 3.07299 0.674056 -0.847641 
3.04775 0.7235 -0.826736 3.02207 0.773311 -0.783618 2.99461 0.822427 -0.733102 
2.95838 0.866931 -0.690108 2.90905 0.904256 -0.669485 2.87331 0.948221 -0.656102 
2.84472 0.99598 -0.635236 2.80829 1.04039 -0.592245 2.75664 1.07733 -0.542012 
2.70961 1.1166 -0.491734 2.65811 1.15343 -0.448919 2.62153 1.19796 -0.39852 
2.5921 1.24628 -0.340627 2.55336 1.29031 -0.268026 2.49022 1.32246 -0.180901 
2.41604 1.34953 -0.0716852 2.34081 1.37422 0.0449608 2.27016 1.38972 0.154438 
2.20758 1.38969 0.242107 2.14302 1.39394 0.31484 2.08161 1.39194 0.387739 
2.01681 1.39633 0.475289 1.9547 1.39484 0.585218 1.89017 1.398 0.702435 
1.83341 1.38586 0.812647 1.78168 1.36425 0.900889 1.73174 1.33925 0.981811 
1.68633 1.30524 1.06298 1.64759 1.2578 1.1519 1.60233 1.22367 1.22566 
1.55302 1.19808 1.27697 7.3658 -0.0503322 -0.784035 7.30349 -0.0374261 -0.446961 
7.24535 -0.0466759 -0.220115 7.19406 -0.0695712 -0.108224 7.15096 -0.106445 -0.101065 
6.03492 -1.05467 -0.767202 5.97951 -1.06691 -0.768108 5.92855 -1.08808 -0.771249 
5.87239 -1.10161 -0.782032 5.7991 -1.09832 -0.805781 5.64538 -1.09327 -0.608873 
5.60388 -1.05703 -0.388008 6.82322 1.06731 -0.490112 7.17217 -0.505292 -0.553461 
7.13462 -0.553033 -0.553423 7.09856 -0.603749 -0.553306 7.05488 -0.639307 -0.553592 
7.00748 -0.667469 -0.554075 6.9638 -0.703027 -0.554361 6.92769 -0.753653 -0.554247 
6.88927 -0.799662 -0.554255 6.85321 -0.850386 -0.554138 6.81035 -0.88757 -0.554381 
6.76744 -0.924664 -0.554626 6.73052 -0.973656 -0.554555 6.68674 -1.00902 -0.554846 
6.63843 -1.03537 -0.555377 6.58843 -1.05835 -0.555998 6.53307 -1.07068 -0.556902 
7.1873 -0.385873 -0.392118 7.18436 -0.322452 -0.267253 7.16883 -0.266746 -0.194389 
7.14527 -0.216262 -0.166056 5.2867 -0.916606 -0.628844 5.21519 -0.891817 -0.660325 
5.15255 -0.862367 -0.684303 5.10464 -0.824746 -0.684023 5.0529 -0.786572 -0.667174 
5.01425 -0.729316 -0.596639 5.43011 -0.96205 -0.417754 5.50127 -0.984258 -0.282578 
-0.171297 -1.11697 -0.546246 -0.200255 -1.03225 -0.56097 6.94719 1.15023 -0.385267 
6.92695 0.973513 -0.301243 6.9358 0.89616 -0.206425 6.81691 0.833973 -0.240377 
5.03178 -0.565171 -0.35448 5.08065 -0.520197 -0.256063 5.12928 -0.491728 -0.199991 
5.17689 -0.464561 -0.164286 5.21978 -0.428465 -0.11957 5.25567 -0.378615 -0.0677982 
5.29764 -0.340689 -0.0231304 5.33904 -0.301283 0.0066864 5.36915 -0.23943 0.0359065 
5.39448 -0.168401 0.0796938 5.42328 -0.104449 0.13109 5.45898 -0.0540528 0.175426 
5.48808 0.0095724 0.204596 5.51106 0.0813116 0.23351 5.52401 0.150432 0.277082 
5.52322 0.212961 0.32791 5.53612 0.28218 0.371478 5.55838 0.35552 0.392939 
5.58257 0.429434 0.399613 5.607 0.503275 0.398881 5.63149 0.577017 0.398152 
5.65684 0.649035 0.397469 5.68759 0.710308 0.397071 5.73132 0.745768 0.39736 
5.78494 0.76156 0.398171 5.84709 0.760371 0.399435 5.90795 0.761928 0.393214 
5.9759 0.749725 0.372548 6.04353 0.738683 0.329629 6.10083 0.748338 0.278739 
6.15799 0.758116 0.235266 6.22513 0.74754 0.214557 6.29196 0.737208 0.208652 
-0.211552 -0.981191 -0.249985 -0.171134 -1.01244 0.0292135 6.39167 1.37443 -0.200023 
6.39209 1.31309 -0.199 6.40614 1.25861 -0.197818 6.42886 1.20869 -0.189125 
6.4512 1.15896 -0.165629 6.46253 1.1043 -0.120043 6.44953 1.03759 -0.0673231 
6.42588 0.96552 -0.0147372 6.40051 0.892586 0.0378284 6.37459 0.819969 0.112605 
7.05094 -0.15317 -0.0578387 6.98926 -0.150699 0.029806 6.92981 -0.130231 0.109785 
6.87941 -0.0940282 0.189696 6.8145 -0.0628898 0.276792 6.74076 -0.036264 0.356394 
5.59538 -0.931401 -0.0740983 0.671607 1.51702 -0.250149 0.713948 1.55352 -0.17581 
0.750165 1.60202 -0.0943797 0.797712 1.62799 -0.0123502 0.857862 1.62941 0.0481098 
0.917976 1.63159 0.0789169 0.986254 1.61804 0.0879192 0.723524 -1.76758 -0.291137 
0.681631 -1.80652 -0.298744 0.638476 -1.84346 -0.284171 0.601254 -1.89221 -0.269296 
0.557327 -1.92745 -0.262179 -0.0751125 -1.23072 -0.180588 -0.081676 -1.17128 0.083427 
6.87181 0.718152 0.0545846 6.82337 0.664745 0.168617 6.78551 0.612349 0.238379 
6.74589 0.567204 0.294641 6.70793 0.519315 0.346551 6.65901 0.497853 0.382969 
6.6047 0.5143 0.381611 6.56751 0.553748 0.343172 6.53142 0.595641 0.289879 
6.48324 0.631774 0.243863 6.44651 0.674256 0.220198 6.40786 0.716164 0.211319 
2.04259 -2.32985 0.604104 2.08996 -2.30268 0.649058 2.13256 -2.26634 0.708589 
2.16834 -2.21646 0.767761 2.21123 -2.18036 0.812487 2.259 -2.15346 0.835226 
2.30692 -2.12667 0.850557 2.35026 -2.09095 0.87307 2.38644 -2.04134 0.910017 
2.42861 -2.00363 0.94729 2.47112 -1.96627 0.96975 2.50877 -1.91889 0.977133 
2.5579 -1.89418 0.977707 2.61817 -1.89179 0.986286 2.67216 -1.87726 1.00935 
2.72142 -1.85366 1.047 2.76981 -1.82833 1.08459 2.81763 -1.80153 1.10734 
2.86111 -1.76592 1.12244 2.89774 -1.71668 1.13719 2.94015 -1.67912 1.15964 
2.9819 -1.64006 1.17465 3.01332 -1.5803 1.1817 3.04495 -1.52076 1.18135 
3.08781 -1.48357 1.18159 3.1352 -1.45539 1.18207 3.1798 -1.42167 1.18241 
3.22228 -1.38354 1.17521 3.27861 -1.37263 1.15393 3.33224 -1.35585 1.11027 
3.37803 -1.32309 1.05137 3.41643 -1.27549 0.984658 3.46251 -1.24298 0.910947 
3.51689 -1.22681 0.830251 3.57465 -1.21702 0.734922 3.61804 -1.17864 0.638824 
3.65926 -1.13595 0.54262 3.69699 -1.08667 0.461043 3.74129 -1.05061 0.387238 
3.78476 -1.01292 0.31339 3.8171 -0.952904 0.231528 3.84509 -0.884079 0.14204 
3.87641 -0.822208 0.0675386 3.91394 -0.773461 0.0156164 3.9421 -0.711479 0.000330085 
3.95267 -0.646184 0.0216996 3.92669 -0.596055 0.0870332 3.86508 -0.56274 0.188994 
3.79065 -0.535281 0.313014 3.71425 -0.508616 0.444429 3.63801 -0.482074 0.568426 
3.56393 -0.455032 0.670242 3.501 -0.423168 0.742551 3.46115 -0.380285 0.792912 
3.42458 -0.335753 0.843312 3.38324 -0.293421 0.901064 3.35827 -0.242663 0.966418 
3.30451 -0.206383 1.03143 3.23281 -0.179131 1.09623 3.15783 -0.153523 1.161 
3.08272 -0.128108 1.22577 3.00862 -0.104539 1.28318 2.93998 -0.0916503 1.33346 
2.88282 -0.101428 1.37693 2.82638 -0.112808 1.42786 2.76401 -0.112388 1.47848 
2.70863 -0.125721 1.52205 2.65819 -0.148345 1.54364 -0.0259692 -1.07264 0.529571 
0.0419637 -1.05271 0.6751 0.092323 -1.02741 0.774482 0.140163 -1.00156 0.847877 
0.187861 -0.975717 0.922509 0.235933 -0.951135 1.01939 0.288046 -0.935108 1.13872 
0.346817 -0.932501 1.26583 0.399572 -0.917062 1.35555 0.449745 -0.895281 1.39324 
0.505593 -0.883413 1.37193 
LINES 44 636
9 49 50 51 52 53 54 55 56 48 
7 49 57 58 59 60 61 45 
7 46 105 106 107 108 109 41 
9 46 177 178 179 180 181 182 183 41 
3 45 184 38 
3 45 185 37 
4 44 186 187 43 
6 43 188 189 190 191 36 
12 43 192 193 194 195 196 197 198 199 200 201 35 
13 42 202 203 204 205 206 207 208 209 210 211 212 32 
6 41 213 214 215 216 34 
3 40 217 28 
4 39 218 219 28 
34 34 220 221 222 223 224 225 226 227 228 229 230 231 232 233 234 235 236 237 238 239 240 241 242 243 244 245 246 247 248 249 250 251 29 
27 34 252 253 254 255 256 257 258 259 260 261 262 263 264 265 266 267 268 269 270 271 272 273 274 275 276 17 
6 36 277 278 279 280 22 
4 36 281 282 26 
3 32 292 31 
8 32 293 294 295 296 297 298 31 
6 28 299 300 301 302 24 
45 31 303 304 305 306 307 308 309 310 311 312 313 314 315 316 317 318 319 320 321 322 323 324 325 326 327 328 329 330 331 332 333 334 335 336 337 338 339 340 341 342 343 344 345 2 
7 28 346 347 348 349 350 15 
7 27 351 352 353 354 355 26 
4 26 356 357 14 
3 25 358 20 
18 24 359 360 361 362 363 364 365 366 367 368 369 370 371 372 373 374 23 
6 24 375 376 377 378 15 
4 22 385 386 14 
3 21 389 20 
4 20 390 391 9 
3 19 392 9 
4 17 426 427 3 
12 16 428 429 430 431 432 433 434 435 436 437 7 
8 15 438 439 440 441 442 443 5 
3 14 444 8 
9 13 445 446 447 448 449 450 451 6 
7 12 452 453 454 455 456 11 
14 9 459 460 461 462 463 464 465 466 467 468 469 470 7 
70 4 471 472 473 474 475 476 477 478 479 480 481 482 483 484 485 486 487 488 489 490 491 492 493 494 495 496 497 498 499 500 501 502 503 504 505 506 507 508 509 510 511 512 513 514 515 516 517 518 519 520 521 522 523 524 525 526 527 528 529 530 531 532 533 534 535 536 537 538 0 
13 3 539 540 541 542 543 544 545 546 547 548 549 1 
36 49 62 63 64 65 66 67 68 69 70 71 72 73 74 75 76 77 78 79 80 81 82 83 84 85 33 283 284 285 286 287 288 289 290 291 28 
89 47 86 87 88 89 90 91 92 93 94 95 96 97 98 99 100 101 102 103 104 30 176 175 174 173 172 171 170 169 168 167 166 165 164 163 162 161 160 159 158 157 156 155 154 153 152 151 150 149 148 147 146 145 144 143 142 141 140 139 138 137 136 135 134 133 132 131 130 129 128 127 126 125 124 123 122 121 120 119 118 117 116 115 114 113 112 111 110 46 
42 22 379 380 381 382 383 384 18 393 394 395 396 397 398 399 400 401 402 403 404 405 406 407 408 409 410 411 412 413 414 415 416 417 418 419 420 421 422 423 424 425 7 
7 17 388 387 10 457 458 3 

POINT_DATA 550
SCALARS DY_raw double
LOOKUP_TABLE default
971.005 608.578 1183.07 475.125 623.477 1165.22 459.492 661.833 610.253 
433.354 165.619 668.144 462.14 617.18 534.723 490.582 736.713 381.882 
568.088 416.472 468.639 575.875 514.378 875.917 641.795 467.194 516.546 
502.105 650.663 712.909 521.363 381.911 374.703 858.711 528.996 725.734 
516.358 621.033 507.736 686.793 543.462 364.155 539.485 497.777 386.682 
321.605 340.597 488.197 1756.08 615.476 613.328 783.806 881.21 1102.02 
1373.12 1632.1 1482.78 637.273 462.714 413.566 395.963 330.835 637.244 
637.244 731.144 797.897 797.897 874.971 915.289 896.461 896.461 913.472 
822.889 917.296 868.143 961.201 971.396 971.396 1011.07 960.314 957.742 
1040.32 1085.46 1053.06 898.586 867.893 546.919 551.129 542.596 604.455 
651.046 699.609 776.837 633.861 717.08 638.418 607.989 688.711 671.989 
705.392 787.911 627.643 642.202 530.943 490.324 345.102 368.38 365.827 
379.341 359.751 332.316 349.109 370.779 370.779 380.085 389.151 413.045 
447.394 443.45 464.722 443.382 432.487 432.487 427.906 408.594 408.594 
409.999 409.999 420.179 448.989 449.113 443.319 426.907 426.907 435.348 
499.63 555.563 614.874 680.551 788.921 1049.93 992.012 1048.98 922.528 
801.169 684.635 602.438 518.098 498.069 492.218 465.603 519.319 462.384 
560.527 573.613 638.607 729.156 840.765 769.362 765.019 774.936 892.894 
731.994 731.994 663.392 636.121 636.121 654.182 723.395 834.045 891.667 
880.51 1022.38 946.863 714.149 601.536 563.805 346.242 388.265 404.086 
402.752 379.132 355.263 365.275 391.497 413.821 440.009 458.092 512.637 
574.194 568.919 501.787 530.158 588.193 653.041 657.256 541.965 447.74 
445.616 458.938 470.59 510.981 539.485 476.174 430.254 446.191 479.166 
554.645 659.493 723.755 644.822 601.92 440.061 393.194 464.243 467.285 
488.766 533.612 601.87 666.196 617.483 571.774 638.814 574.978 574.978 
520.432 520.432 493.188 470.116 470.116 477.132 469.652 530.026 547.23 
545.403 545.403 455.014 496.661 496.661 480.801 513.016 513.929 514.322 
514.322 543.637 564.604 598.712 636.556 666.451 719.222 703.143 703.143 
614.871 648.272 554.123 433.897 462.927 469.619 476.78 444.307 440.119 
471.668 506.389 506.389 524.057 483.276 502.527 502.896 561.296 562.08 
614.206 602.771 476.234 423.574 441.198 364.669 323.319 528.552 657.773 
696.442 575.542 462.415 525.681 747.666 707.691 682.999 716.703 689.814 
829.918 725.385 623.46 641.939 422.541 359.16 358.969 373.766 360.535 
385.829 410.456 579.224 550.891 556.473 577.15 532.759 508.084 522.699 
479.223 479.223 408.901 415.107 415.107 418.426 425.757 468.671 404.438 
411.947 442.912 473.238 507.926 503.97 454.38 480.632 446.055 441.682 
468.184 385.038 402.709 408.473 416.256 441.741 461.551 487.645 480.915 
492.067 512.124 527.845 536.666 593.513 662.239 706.383 744.085 707.74 
749.86 832.103 922.247 994.372 814.746 661.247 572.651 520.856 488.553 
494.172 444.708 411.55 405.083 434.206 628.175 556.264 475.001 678.466 
724.983 724.983 916.7 810.67 810.67 820.112 765.897 779.562 662.61 
674.845 681.7 681.7 688.553 775.224 875.917 691.503 674.178 580.303 
482.929 538.956 546.698 566.35 562.779 543.421 549.369 547.257 498.054 
198.595 227.955 518.104 454.679 418.36 425.011 574.31 560.462 596.683 
614.558 604.934 630.46 750.385 697.859 708.47 802.696 865.549 785.248 
990.513 984.892 912.704 1008.07 923.62 797.22 793.393 613.159 571.386 
579.208 602.334 659.706 697.661 697.661 731.533 788.69 730.142 736.384 
766.794 785.539 731.595 332.245 363.292 736.713 672.737 611.703 611.703 
527.99 550.352 630.415 595.734 613.551 700.422 492.467 572.065 757.162 
1050.88 1134.47 1274.59 557.775 516.765 492.5 561.128 488.794 480.151 
494.319 459.492 425.027 429.463 424.566 424.566 484.281 245.921 294.805 
527.171 585.996 622.601 599.576 613.582 663.231 677.818 619.967 593.365 
543.468 604.905 672.664 689.738 543.672 666.829 614.077 475.351 479.386 
452.19 398.534 398.534 432.029 425.661 425.661 442.531 466.82 466.82 
507.685 507.685 536.485 578.221 578.221 644.905 629.957 629.957 626.449 
574.996 647.153 537.292 537.292 513.495 457.443 421.173 373.663 370.952 
362.767 404.17 387.644 391.158 442.89 504.274 480.196 565.588 522.159 
492.494 474.542 444.794 433.718 467.777 503.416 528.586 438.541 416.278 
372.473 337.477 351.101 343.753 319.753 330.524 311.326 322.723 332.279 
336.498 333.693 342.13 345.497 411.356 479.364 488.279 683.187 460.173 
476.516 506.221 472.787 510.574 510.338 527.889 602.712 615.139 633.054 
633.054 
FIELD FieldData 7
DY_minmax 1 550 double
0.506386 0.27851 0.639724 0.194602 0.287878 0.628495 0.184773 0.311994 0.279564 
0.168338 0 0.315962 0.186438 0.283919 0.232074 0.20432 0.359075 0.135975 
0.253052 0.157724 0.190524 0.257948 0.219282 0.446599 0.299396 0.189615 0.220645 
0.211566 0.304971 0.344108 0.223674 0.135994 0.131462 0.435781 0.228473 0.352172 
0.220527 0.286342 0.215106 0.327688 0.237569 0.124829 0.235068 0.208844 0.138993 
0.0980764 0.110017 0.202821 1 0.282848 0.281497 0.388684 0.449927 0.588759 
0.759215 0.922048 0.828165 0.296552 0.186798 0.155897 0.144828 0.103879 0.296534 
0.296534 0.355574 0.397544 0.397544 0.446005 0.471354 0.459517 0.459517 0.470212 
0.413258 0.472616 0.441712 0.500222 0.506631 0.506631 0.531577 0.499664 0.498047 
0.549967 0.57835 0.557975 0.460853 0.441554 0.239742 0.242389 0.237024 0.275918 
0.305212 0.335746 0.384303 0.294407 0.346731 0.297272 0.27814 0.328894 0.31838 
0.339382 0.391266 0.290497 0.299651 0.229697 0.204158 0.11285 0.127486 0.125881 
0.134378 0.12206 0.104811 0.115369 0.128994 0.128994 0.134846 0.140545 0.155569 
0.177166 0.174686 0.188061 0.174643 0.167793 0.167793 0.164913 0.152771 0.152771 
0.153654 0.153654 0.160054 0.178169 0.178247 0.174604 0.164285 0.164285 0.169592 
0.210009 0.245177 0.282469 0.323763 0.391901 0.556012 0.519594 0.55541 0.475906 
0.399602 0.326331 0.274649 0.221621 0.209028 0.205349 0.188615 0.222389 0.18659 
0.248298 0.256526 0.297391 0.354324 0.424497 0.379603 0.376873 0.383108 0.457274 
0.356108 0.356108 0.312974 0.295828 0.295828 0.307184 0.350701 0.420272 0.456502 
0.449487 0.538686 0.491207 0.344888 0.274083 0.250359 0.113567 0.139989 0.149936 
0.149097 0.134246 0.119238 0.125534 0.142021 0.156057 0.172523 0.183892 0.218188 
0.256891 0.253575 0.211365 0.229204 0.265693 0.306466 0.309116 0.236627 0.177383 
0.176048 0.184424 0.19175 0.217146 0.235068 0.195261 0.166389 0.176409 0.197142 
0.2446 0.310523 0.350928 0.301298 0.274324 0.172555 0.143088 0.18776 0.189672 
0.203179 0.231375 0.274293 0.314737 0.284109 0.25537 0.297521 0.257384 0.257384 
0.223088 0.223088 0.205959 0.191452 0.191452 0.195863 0.191161 0.229121 0.239938 
0.238789 0.238789 0.181957 0.208143 0.208143 0.19817 0.218425 0.219 0.219247 
0.219247 0.237678 0.250862 0.272307 0.296101 0.314898 0.348078 0.337968 0.337968 
0.282467 0.303468 0.244272 0.16868 0.186932 0.19114 0.195642 0.175225 0.172592 
0.192428 0.214259 0.214259 0.225368 0.199727 0.21183 0.212063 0.248782 0.249275 
0.282049 0.274859 0.195299 0.162189 0.17327 0.125153 0.0991539 0.228194 0.309441 
0.333754 0.257739 0.18661 0.226389 0.365962 0.340828 0.325302 0.346493 0.329587 
0.417678 0.351953 0.287867 0.299486 0.16154 0.121689 0.121569 0.130872 0.122553 
0.138457 0.153941 0.260054 0.242239 0.245749 0.25875 0.230839 0.215325 0.224514 
0.197179 0.197179 0.152963 0.156866 0.156866 0.158952 0.163562 0.190543 0.150157 
0.154878 0.174348 0.193415 0.215226 0.212738 0.181559 0.198064 0.176324 0.173574 
0.190238 0.13796 0.14907 0.152694 0.157588 0.173612 0.186067 0.202473 0.198242 
0.205254 0.217865 0.227749 0.233295 0.269038 0.312249 0.340005 0.36371 0.340858 
0.367341 0.419051 0.475729 0.521078 0.408138 0.311626 0.255921 0.223355 0.203044 
0.206577 0.175477 0.154629 0.150563 0.168874 0.290832 0.245618 0.194524 0.322452 
0.3517 0.3517 0.472241 0.405575 0.405575 0.411512 0.377424 0.386016 0.312483 
0.320175 0.324485 0.324485 0.328794 0.383289 0.446599 0.330649 0.319756 0.260733 
0.199508 0.234735 0.239603 0.251959 0.249714 0.237542 0.241282 0.239954 0.209018 
0.0207339 0.0391939 0.221625 0.181746 0.158911 0.163093 0.256964 0.248257 0.271031 
0.28227 0.276219 0.292268 0.367671 0.334645 0.341317 0.400562 0.440081 0.389591 
0.518651 0.515117 0.469729 0.529693 0.476592 0.397119 0.394712 0.281391 0.255126 
0.260044 0.274584 0.310657 0.334521 0.334521 0.355818 0.391755 0.354944 0.358868 
0.377988 0.389774 0.355857 0.104766 0.124287 0.359075 0.31885 0.280475 0.280475 
0.227841 0.241901 0.29224 0.270435 0.281637 0.336257 0.205505 0.255552 0.371932 
0.556605 0.609165 0.697263 0.246568 0.220783 0.205526 0.248676 0.203196 0.197762 
0.20667 0.184773 0.163103 0.165892 0.162813 0.162813 0.200359 0.0504899 0.0812255 
0.227325 0.264312 0.287327 0.27285 0.281657 0.312873 0.322045 0.285671 0.268945 
0.237572 0.276201 0.318804 0.32954 0.2377 0.315136 0.281967 0.194744 0.197281 
0.180181 0.146445 0.146445 0.167505 0.163501 0.163501 0.174108 0.18938 0.18938 
0.215074 0.215074 0.233182 0.259423 0.259423 0.301351 0.291952 0.291952 0.289747 
0.257395 0.302764 0.233689 0.233689 0.218727 0.183484 0.16068 0.130807 0.129103 
0.123957 0.149989 0.139598 0.141808 0.174334 0.212929 0.19779 0.25148 0.224175 
0.205522 0.194235 0.175531 0.168567 0.189982 0.21239 0.228215 0.1716 0.157602 
0.130059 0.108055 0.116622 0.112002 0.0969117 0.103684 0.0916132 0.098779 0.104787 
0.10744 0.105676 0.110981 0.113098 0.154507 0.197267 0.202872 0.32542 0.185201 
0.195477 0.214153 0.193132 0.21689 0.216742 0.227777 0.274822 0.282635 0.293899 
0.293899 
WidthEq 1 550 double
1 3.03768 2.20567 6.31999 2.29538 1.4266 5.16534 3.29317 3.70154 
5.30039 10.9945 2.9063 3.5728 5.71254 5.18684 5.34144 3.25468 7.77495 
5.54933 3.57833 5.32434 3.56591 5.71191 2.09567 4.88633 3.54398 6.55942 
3.8545 5.41218 3.48613 6.51042 6.78659 7.38847 4.02285 6.06996 4.58243 
5.97094 5.20963 6.23418 4.17718 5.92572 7.39739 5.93331 5.80392 3.05599 
8.29698 7.60949 5.62887 1.26729 4.72659 4.77411 3.6472 3.22718 2.43148 
1.86383 1.44931 1.47229 5.20979 6.90929 7.5278 8.0683 8.52641 4.38121 
4.38121 3.71568 3.49155 3.49155 3.3322 3.36281 3.43768 3.43768 3.52458 
3.8196 3.57564 3.58476 3.01926 2.85695 2.85695 2.59363 2.1853 2.25584 
2.10494 2.30562 2.43475 3.31225 3.4695 5.42441 5.8304 5.62209 5.36871 
4.77505 4.54636 4.32441 5.16889 4.84465 5.12764 5.40045 5.0192 4.921 
4.55392 4.16311 4.84633 4.92193 5.73723 6.42364 7.48453 6.90785 7.18328 
7.02182 7.27255 7.72568 7.57747 7.29277 7.29277 7.27493 7.21339 6.88471 
6.53068 6.85854 6.44826 6.3977 6.28922 6.28922 5.98625 6.13629 6.13629 
6.1329 6.1329 6.02723 5.67316 5.89253 5.76247 5.84618 5.84618 5.69318 
5.20464 4.8519 4.43028 4.04848 3.28974 2.45609 2.43888 2.36818 2.71695 
3.19544 3.8961 4.4209 5.14361 5.33977 5.37292 5.15728 4.89323 4.35148 
3.89727 3.72226 3.51422 3.58414 3.44516 3.56474 3.7891 3.85329 3.55391 
4.02406 4.02406 4.20246 4.23249 4.23249 4.02063 3.74871 3.42416 3.26138 
3.21776 3.05599 3.4561 4.374 5.56265 6.29857 7.46447 7.13303 6.74694 
6.81557 7.26192 7.45652 7.2232 8.0755 7.23894 4.78852 5.56464 6.01176 
5.72718 5.64718 5.87123 5.44544 4.74996 4.02055 3.44333 3.70937 4.47683 
4.55146 5.66572 5.58248 5.84579 5.93331 6.63051 7.52216 7.58179 7.23352 
5.96463 5.26183 4.73216 5.32033 5.53386 6.88989 7.09193 6.49632 6.83205 
6.6145 6.62081 4.9492 5.14731 4.49432 4.52034 3.90362 4.40426 4.40426 
5.03147 5.03147 5.36774 5.68437 5.68437 5.65878 5.80271 5.26311 5.29303 
5.31784 5.31784 5.80968 5.58333 5.58333 5.89705 5.79441 5.89553 5.84096 
5.84096 5.51875 5.276 5.21555 4.95142 4.67015 4.44883 4.13149 4.13149 
5.53309 5.5549 6.08495 7.74558 7.3674 7.65264 7.69385 7.99378 7.78711 
7.31559 6.57878 6.57878 5.93035 5.9868 5.85128 5.97351 5.49748 5.69096 
5.40715 5.29361 6.33876 6.74818 6.52678 7.77717 8.57767 6.39653 5.31546 
4.9148 5.55322 6.72672 6.28941 4.32983 4.74758 4.98079 4.93218 4.93841 
4.69917 5.64815 6.21868 6.2736 6.86114 7.67325 7.56539 7.47584 7.37309 
6.85916 6.58058 5.12433 5.72138 5.93246 5.90332 4.89085 5.09168 4.32001 
3.60945 3.60945 3.52294 3.67704 3.67704 3.94833 4.22458 4.06005 4.59933 
4.59388 4.58722 4.75982 4.55392 4.74077 5.25041 5.27733 5.74058 5.8974 
5.69918 6.819 6.68867 6.84837 6.80934 6.93749 7.10864 7.07331 7.01017 
6.61185 6.34589 5.54524 5.1267 5.03388 4.76379 4.60276 4.48824 4.22022 
4.06024 3.53124 2.82843 2.739 4.87254 5.1491 5.36104 5.39971 5.42461 
4.12576 5.18271 6.79002 7.18176 7.05026 5.62766 5.66334 4.96194 4.20791 
3.67361 3.67361 2.47946 2.43397 2.43397 2.19718 2.15971 2.23621 2.43432 
2.58791 2.91475 2.91475 2.95304 2.53178 2.09567 4.24881 3.95098 4.45685 
5.10528 5.52783 5.50422 5.18883 5.16487 5.22747 5.37132 5.96522 5.75141 
10.7369 10.2313 4.67249 5.42612 5.58333 4.94378 5.25388 5.29166 4.5115 
4.29913 4.00851 3.90876 3.43604 3.58752 3.39319 3.18932 2.94143 2.94809 