# vtk DataFile Version 3.0
vtk output
ASCII
DATASET POLYDATA
POINTS 362 float
1.90723 1.45736 1.49408 1.97108 -0.146088 1.75044 1.3334 -0.885196 1.84899 
3.44988 0.404429 1.11908 4.91066 0.879669 0.920696 -0.0794284 -0.215143 0.515626 
3.74697 0.205321 0.894528 3.50004 -0.00430996 0.978229 3.46998 -0.193136 1.00693 
-0.197141 -0.12672 0.209113 -0.202927 -0.360689 0.11203 0.0780265 -1.14431 0.387754 
0.0734113 -1.3152 0.488266 -0.01861 -1.37245 0.50709 4.18551 0.172731 0.0466706 
-0.615921 -0.636695 -0.49656 -0.473541 -0.977673 -0.6233 -0.336139 -1.4834 -0.418431 
3.32612 -1.55709 0.226374 3.48867 -1.67997 0.325879 -0.443933 -1.62553 -1.05626 
0.286247 -2.48159 -1.34506 0.651915 -2.65775 -1.51688 0.826112 -2.71527 -1.37593 
1.76454 -2.79116 -1.41171 1.02469 -2.66044 -1.84541 0.886657 -2.74631 -1.81718 
1.84827 -2.31606 -1.91431 1.68601 -2.5384 -1.89723 1.44987 -2.57027 -2.06384 
1.54647 -2.55282 -1.98768 1.75134 -2.59252 -1.80334 1.7686 -2.63277 -1.72122 
1.77123 -2.65771 -1.64079 1.75879 -2.69068 -1.55916 1.74994 -2.7353 -1.48199 
1.78442 -2.46432 -1.88258 1.82856 -2.38898 -1.89063 0.91935 -2.70037 -1.83903 
0.972475 -2.681 -1.8418 0.806397 -2.7032 -1.74865 0.732226 -2.67418 -1.64758 
0.887899 -2.74017 -1.69887 0.863974 -2.73215 -1.55102 1.69014 -2.79358 -1.30943 
1.62854 -2.79509 -1.2404 1.57285 -2.80304 -1.21873 1.51711 -2.80474 -1.24427 
1.47191 -2.80524 -1.30356 1.41405 -2.81604 -1.36754 1.34679 -2.82829 -1.42349 
1.27586 -2.83153 -1.4593 1.20807 -2.83423 -1.47753 1.14727 -2.84362 -1.48194 
1.0774 -2.83884 -1.48754 0.999132 -2.81596 -1.47917 0.914723 -2.77313 -1.44015 
1.84123 -2.75131 -1.301 1.90023 -2.7226 -1.20398 1.94227 -2.70732 -1.11916 
1.99284 -2.68459 -1.05477 2.04473 -2.65236 -1.01318 2.10199 -2.62896 -0.982863 
2.15131 -2.59507 -0.96007 2.19947 -2.55488 -0.923809 2.25894 -2.527 -0.869688 
2.31939 -2.5028 -0.821941 2.36964 -2.4725 -0.805564 2.41575 -2.44161 -0.807599 
2.46285 -2.41439 -0.816001 2.51419 -2.39031 -0.813145 2.57252 -2.37052 -0.789218 
2.62597 -2.33721 -0.748011 2.68641 -2.31059 -0.692984 2.74698 -2.28653 -0.645128 
2.79721 -2.25383 -0.621483 2.84653 -2.21993 -0.59869 2.90176 -2.18893 -0.55583 
2.9532 -2.15062 -0.509209 3.00835 -2.11712 -0.459135 3.0609 -2.08263 -0.418781 
3.11501 -2.0454 -0.362395 3.1633 -1.9958 -0.296896 3.21024 -1.93728 -0.210834 
3.24283 -1.85771 -0.130888 3.26423 -1.75641 -0.0395831 3.29767 -1.66358 0.084808 
0.746042 -2.67986 -1.35499 0.684568 -2.66585 -1.39947 0.537538 -2.58649 -1.43585 
0.416679 -2.52863 -1.36824 0.226433 -2.40807 -1.37815 0.198006 -2.36128 -1.42794 
0.171379 -2.32796 -1.46944 0.143323 -2.29366 -1.50308 0.114095 -2.25584 -1.53029 
0.0833451 -2.21896 -1.55719 0.0442379 -2.18729 -1.58238 -0.00867138 -2.15982 -1.59864 
-0.0536363 -2.11425 -1.59824 -0.10643 -2.04726 -1.55966 -0.187497 -1.96717 -1.47259 
-0.283052 -1.86979 -1.34598 -0.373439 -1.75604 -1.20214 -0.456925 -1.44501 -0.908846 
-0.468228 -1.23679 -0.760186 -0.39922 -1.53974 -0.873675 -0.369554 -1.47646 -0.706301 
-0.368986 -1.45759 -0.569559 -0.35848 -1.46322 -0.477542 -0.475321 -1.14209 -0.921819 
-0.44299 -1.23742 -1.18611 -0.402626 -1.27132 -1.38549 -0.367809 -1.27042 -1.53249 
-0.339541 -1.24505 -1.63854 -0.315508 -1.20478 -1.71933 -0.29714 -1.1505 -1.77456 
-0.2892 -1.09394 -1.81548 -0.294979 -1.04153 -1.84748 -0.288017 -0.981311 -1.88203 
-0.270698 -0.920882 -1.9237 -0.244494 -0.873863 -1.97335 -0.207006 -0.848512 -2.03439 
-0.175479 -0.81781 -2.10829 -0.144026 -0.784615 -2.17497 -0.103273 -0.756333 -2.21113 
-0.0636266 -0.721826 -2.23377 -0.0320139 -0.674483 -2.25663 0.00768223 -0.637648 -2.27195 
0.0536482 -0.611358 -2.28868 0.101685 -0.592544 -2.31803 0.147648 -0.578213 -2.37115 
0.187598 -0.55846 -2.43718 0.239822 -0.552269 -2.48445 0.302199 -0.552097 -2.50039 
0.354538 -0.534092 -2.51117 0.396279 -0.499916 -2.52457 0.434323 -0.460933 -2.54143 
0.488301 -0.442665 -2.5434 0.538581 -0.41959 -2.54882 0.578206 -0.380268 -2.55692 
0.607863 -0.325599 -2.56706 0.644447 -0.27754 -2.56345 0.6884 -0.243845 -2.56751 
0.734411 -0.215219 -2.57692 0.781443 -0.187923 -2.58538 0.829631 -0.152555 -2.56364 
0.883709 -0.120057 -2.52185 0.929775 -0.0795422 -2.49482 0.969472 -0.0427073 -2.51014 
0.999082 -0.00233278 -2.56399 1.0296 0.0368577 -2.61699 1.07459 0.0668194 -2.62736 
1.12977 0.0930895 -2.59908 1.17783 0.13102 -2.57019 1.22705 0.162647 -2.55477 
1.28011 0.184511 -2.55032 1.31809 0.22357 -2.56723 1.35887 0.259 -2.58154 
1.40494 0.28755 -2.59089 1.45721 0.308035 -2.59445 1.51756 0.318018 -2.59046 
1.56988 0.338435 -2.59397 1.61698 0.365656 -2.60238 1.66407 0.392876 -2.61078 
1.71645 0.413218 -2.61423 1.77783 0.421865 -2.60928 1.83653 0.433996 -2.60684 
1.89795 0.44498 -2.59457 1.95457 0.466993 -2.57223 2.0161 0.489795 -2.52348 
2.0766 0.516338 -2.46839 2.13011 0.549575 -2.42714 2.18946 0.568034 -2.40225 
2.24718 0.583831 -2.39344 2.30854 0.594889 -2.38122 2.36517 0.614497 -2.36616 
2.4235 0.634286 -2.34223 2.47489 0.660703 -2.33205 2.52726 0.685856 -2.32097 
2.59189 0.697447 -2.29114 2.65976 0.709623 -2.24374 2.72232 0.731095 -2.19402 
2.77681 0.76287 -2.15173 2.83678 0.786997 -2.09532 2.89368 0.799051 -2.03224 
2.93886 0.801955 -1.96568 2.99783 0.808934 -1.90796 3.06307 0.828593 -1.83934 
3.12767 0.856624 -1.75838 3.18878 0.891236 -1.66452 3.2436 0.913177 -1.58156 
3.28772 0.919695 -1.50861 3.34496 0.925606 -1.45055 3.39956 0.934254 -1.38584 
3.43304 0.92977 -1.31681 3.45776 0.915446 -1.25209 3.48446 0.893588 -1.19997 
3.51951 0.87693 -1.14956 3.5667 0.876586 -1.08944 3.60845 0.877244 -1.0221 
3.65298 0.879631 -0.955333 3.67702 0.860499 -0.896577 3.68193 0.820707 -0.846092 
3.70164 0.768192 -0.829134 3.72634 0.696874 -0.843683 3.74148 0.60645 -0.874565 
3.75895 0.526249 -0.893735 3.76796 0.458315 -0.886781 3.78798 0.410379 -0.863786 
3.81389 0.370493 -0.835896 3.83295 0.326349 -0.806607 3.83944 0.274383 -0.774745 
3.85869 0.230359 -0.745494 3.88679 0.196222 -0.711953 3.9227 0.175709 -0.667817 
3.96827 0.174355 -0.607364 4.00013 0.168867 -0.538001 4.02363 0.158168 -0.466934 
4.04665 0.142783 -0.401868 4.06853 0.13108 -0.330472 4.08948 0.123176 -0.252782 
4.10996 0.123757 -0.162798 4.13826 0.137966 -0.0622214 3.45944 -1.64215 0.298669 
3.4286 -1.60533 0.271789 3.38787 -1.57467 0.246931 3.35044 -1.49787 0.203971 
3.38594 -1.44841 0.20657 3.42364 -1.39461 0.233048 3.45493 -1.32771 0.268105 
3.4762 -1.24538 0.301073 3.49814 -1.16153 0.341938 3.50901 -1.05852 0.387026 
3.5124 -0.938583 0.446942 3.5181 -0.816869 0.523582 3.5317 -0.703038 0.614877 
3.54171 -0.583177 0.70781 3.55059 -0.46359 0.809417 3.53173 -0.330098 0.90983 
-0.420157 -0.766787 -0.422114 -0.381705 -0.620598 -0.245907 -0.333451 -0.541564 -0.110904 
-0.281679 -0.485444 -0.00958244 -0.23972 -0.425226 0.0572828 -0.532107 -0.813067 -0.560898 
-0.578508 -0.705582 -0.514819 0.0274008 -1.34382 0.497678 0.0786918 -1.25591 0.453997 
0.0727458 -1.2036 0.422024 0.145723 -1.32183 0.512764 0.206167 -1.32707 0.551881 
0.242483 -1.33418 0.614226 0.276725 -1.33381 0.689195 0.330955 -1.31662 0.766176 
0.395014 -1.2932 0.841079 0.460702 -1.27119 0.908385 0.522292 -1.24847 0.957196 
0.572641 -1.21591 0.98095 0.622931 -1.18327 1.00465 0.682463 -1.15548 1.05882 
0.739851 -1.11771 1.13282 0.788118 -1.06331 1.21284 0.845564 -1.02562 1.2869 
0.905083 -0.995408 1.34834 0.959564 -0.963439 1.3905 1.02006 -0.936895 1.44557 
1.07959 -0.909092 1.49975 1.12772 -0.869039 1.53608 1.17636 -0.837544 1.56019 
1.22834 -0.829558 1.59877 1.26186 -0.836331 1.66046 1.28539 -0.846891 1.73146 
1.30841 -0.862277 1.79652 -0.200551 -0.241837 0.163724 -0.158018 -0.309847 0.245794 
-0.124337 -0.265985 0.381862 3.36806 -0.127871 1.18052 3.29117 -0.0833426 1.31542 
3.23088 -0.066088 1.40256 3.1772 -0.0673009 1.45823 3.12394 -0.0697519 1.51181 
3.07062 -0.0721217 1.56534 3.01737 -0.0769847 1.61166 2.96188 -0.0861084 1.63404 
2.89849 -0.0873499 1.64177 2.8377 -0.0895941 1.6592 2.77541 -0.0826938 1.69706 
2.7238 -0.0872817 1.75219 2.66246 -0.0816351 1.79094 2.60692 -0.0906901 1.81328 
2.55156 -0.10477 1.82124 2.48478 -0.106392 1.81123 2.41709 -0.106831 1.80038 
2.35737 -0.117634 1.79698 2.29491 -0.124876 1.79102 2.23615 -0.136931 1.78852 
2.17369 -0.144174 1.78256 2.11392 -0.154901 1.77911 2.04514 -0.153934 1.76725 
3.48602 -0.0934259 0.991058 3.46847 0.0920046 1.03481 3.45247 0.189892 1.07562 
3.43983 0.286568 1.10322 3.5667 -0.00253587 0.988121 3.62 0.0166206 0.985516 
3.66601 0.0452462 0.976104 3.70468 0.0834098 0.959836 3.72895 0.140299 0.930105 
3.65806 0.260814 0.954301 3.56108 0.326931 1.02964 3.80146 0.222921 0.893043 
3.87024 0.21955 0.897632 3.94639 0.201815 0.894557 4.02132 0.17849 0.868508 
4.08829 0.163107 0.827738 4.156 0.149175 0.794938 4.21257 0.156894 0.773564 
4.26804 0.170829 0.765712 4.33578 0.171198 0.776613 4.40779 0.168422 0.798777 
4.4734 0.178748 0.829512 4.52588 0.215718 0.877085 4.57701 0.261618 0.945242 
4.61804 0.325422 1.01851 4.66206 0.38057 1.08002 4.72153 0.408443 1.13413 
4.78406 0.425175 1.16926 4.83321 0.459289 1.19189 4.87404 0.506613 1.21403 
4.90862 0.559666 1.22305 4.93392 0.615218 1.19429 4.96225 0.657086 1.13934 
4.99699 0.68511 1.08495 5.01161 0.724922 1.03767 4.99621 0.764994 1.0027 
4.96884 0.803858 0.975174 4.9398 0.841792 0.947926 3.4075 0.497073 1.12969 
3.357 0.574911 1.16223 3.29333 0.642369 1.21036 3.24144 0.720221 1.26294 
3.20041 0.794543 1.29913 3.16547 0.85949 1.31577 3.1415 0.913732 1.30578 
3.12238 0.962225 1.2826 3.07051 0.985956 1.26002 3.00762 1.00722 1.2458 
2.95229 1.04195 1.24222 2.88252 1.08085 1.25989 2.81068 1.12723 1.29018 
2.74895 1.18428 1.3245 2.67446 1.23339 1.36143 2.59264 1.27356 1.39376 
2.51137 1.30531 1.41378 2.43312 1.32578 1.41489 2.35699 1.33869 1.40344 
2.28287 1.34661 1.38658 2.213 1.3514 1.38098 2.14909 1.35322 1.39549 
2.07405 1.37669 1.42143 1.99164 1.41453 1.45505 
LINES 29 420
3 28 30 29 
7 28 31 32 33 34 35 24 
4 28 36 37 27 
4 26 38 39 25 
4 26 40 41 22 
4 26 42 43 23 
15 24 44 45 46 47 48 49 50 51 52 53 54 55 56 23 
32 24 57 58 59 60 61 62 63 64 65 66 67 68 69 70 71 72 73 74 75 76 77 78 79 80 81 82 83 84 85 86 18 
4 23 87 88 22 
4 20 104 105 16 
6 20 106 107 108 109 17 
116 16 110 111 112 113 114 115 116 117 118 119 120 121 122 123 124 125 126 127 128 129 130 131 132 133 134 135 136 137 138 139 140 141 142 143 144 145 146 147 148 149 150 151 152 153 154 155 156 157 158 159 160 161 162 163 164 165 166 167 168 169 170 171 172 173 174 175 176 177 178 179 180 181 182 183 184 185 186 187 188 189 190 191 192 193 194 195 196 197 198 199 200 201 202 203 204 205 206 207 208 209 210 211 212 213 214 215 216 217 218 219 220 221 222 223 14 
5 19 224 225 226 18 
15 18 227 228 229 230 231 232 233 234 235 236 237 238 239 8 
7 16 240 241 242 243 244 10 
4 16 245 246 15 
3 13 247 12 
4 12 248 249 11 
26 12 250 251 252 253 254 255 256 257 258 259 260 261 262 263 264 265 266 267 268 269 270 271 272 273 2 
3 10 274 9 
4 10 275 276 5 
25 8 277 278 279 280 281 282 283 284 285 286 287 288 289 290 291 292 293 294 295 296 297 298 299 1 
3 8 300 7 
5 7 301 302 303 3 
7 7 304 305 306 307 308 6 
4 6 309 310 3 
29 6 311 312 313 314 315 316 317 318 319 320 321 322 323 324 325 326 327 328 329 330 331 332 333 334 335 336 337 4 
26 3 338 339 340 341 342 343 344 345 346 347 348 349 350 351 352 353 354 355 356 357 358 359 360 361 0 
18 22 89 90 21 91 92 93 94 95 96 97 98 99 100 101 102 103 20 

POINT_DATA 362
SCALARS DY_raw double
LOOKUP_TABLE default
96.4836 76.0036 16.4494 53.9702 55.941 87.464 71.8508 56.5801 46.4433 
96.4615 70.2293 113.571 54.2556 53.4567 66.2839 92.2066 54.8413 65.1901 
65.9511 58.4143 50.7308 75.5412 55.8399 45.6833 56.0159 80.6763 55.4389 
100.032 87.4045 100.182 87.676 83.5411 87.4494 79.5341 68.5916 64.3226 
82.2997 96.1975 61.8636 65.8367 60.9218 60.3414 52.8645 55.8909 58.2446 
64.5348 64.1433 60.0587 65.7232 74.5578 70.4729 67.6917 62.4525 56.1729 
54.369 58.0954 52.9008 57.284 59.7353 69.9121 69.9807 63.735 65.3118 
63.5757 68.1431 80.4954 70.4309 70.4309 54.3608 59.1596 59.1596 62.2769 
57.4698 62.9601 56.2103 56.2103 57.5037 65.5671 61.1549 52.7524 44.1311 
45.9148 48.2942 51.4384 58.9693 67.5534 67.1678 57.6422 60.0724 67.0578 
85.5177 82.9449 81.4404 83.8868 97.4781 99.549 102.661 102.661 89.7043 
66.0749 69.7377 51.7196 51.9416 58.6637 48.0322 46.25 49.5877 48.8499 
52.979 65.1901 63.5988 61.5991 69.5773 68.9363 60.4099 50.3843 59.2818 
63.8609 65.6014 74.7214 77.2996 79.2649 73.6096 69.5719 62.6671 62.6671 
75.2792 82.6477 82.6477 88.9683 94.5951 84.9911 72.3958 64.5934 67.9852 
78.507 78.507 81.567 82.5133 82.5133 88.7058 87.4504 92.8742 86.8466 
91.1068 91.1068 90.0354 95.9954 99.3282 91.468 89.99 92.4763 92.6407 
92.6407 94.2784 82.4648 83.1682 85.6337 85.6337 80.9886 70.1123 70.1123 
67.7897 72.7743 63.6942 76.3711 83.1641 71.5736 75.6971 63.6098 62.5852 
71.7453 69.1973 66.7346 62.0935 62.0935 63.9974 75.9414 66.3727 70.5101 
63.4353 67.6694 73.8229 67.3229 64.0673 63.2725 71.6418 64.705 63.3879 
68.8443 57.929 53.8438 64.3049 54.431 67.1976 66.1585 58.3283 59.2804 
52.8531 54.9193 66.0967 65.5576 59.7348 61.9767 61.8284 60.6087 57.0163 
66.5093 66.5093 69.2747 69.7541 69.7541 63.3005 64.5574 66.9098 60.1968 
59.0935 62.0883 62.1752 62.911 63.0056 53.626 59.2859 57.6228 63.6383 
67.1274 66.092 72.3656 72.3656 67.0832 62.4505 65.542 76.8204 74.8835 
72.0151 70.6261 73.0327 70.9821 61.3742 52.694 55.5481 58.7104 64.8876 
62.9579 58.248 64.1657 68.6546 54.2556 82.4557 89.097 59.4582 59.8982 
56.7596 58.4144 57.3925 76.782 89.9641 88.7936 71.2376 75.9196 56.4856 
61.3948 54.0127 41.3678 56.513 48.7158 59.3923 53.9396 50.0198 50.1502 
49.1594 43.6124 42.4682 45.7634 74.5845 72.2915 83.7372 49.8225 60.8944 
66.8504 53.3833 53.3833 60.3471 62.5019 71.0022 66.7705 59.3517 66.396 
66.1268 75.007 79.0273 70.5057 62.1674 62.1674 51.7423 51.7423 54.7118 
53.9827 58.6617 67.2064 51.6249 50.2189 51.2337 50.5194 57.2427 66.9749 
68.2263 68.2263 71.8508 66.5451 58.4424 75.7388 83.1104 80.2317 81.9726 
77.9002 71.2 57.7198 61.9015 52.9139 60.0368 68.0543 65.4587 65.4365 
54.9106 61.1439 68.9808 61.3582 67.8378 57.8742 57.8742 54.2209 47.3814 
45.8971 57.0784 53.1777 53.1777 55.941 55.9626 57.257 60.3809 67.4111 
65.8035 66.622 66.622 62.6888 55.0744 58.306 52.9567 67.4279 70.5834 
57.8639 57.6639 62.3279 71.5393 77.6843 76.4346 64.1504 66.6951 71.9879 
84.0056 93.2668 
FIELD FieldData 7
DY_minmax 1 362 double
0.824062 0.613192 0 0.386328 0.406621 0.731193 0.570433 0.413201 0.308828 
0.823835 0.553738 1 0.389267 0.381041 0.513115 0.780024 0.395297 0.501852 
0.509688 0.432087 0.352975 0.608432 0.405579 0.301003 0.407391 0.661304 0.401451 
0.860603 0.73058 0.862143 0.733376 0.690801 0.731043 0.649544 0.536876 0.49292 
0.678019 0.821117 0.467602 0.50851 0.457905 0.451929 0.374944 0.406105 0.430339 
0.495105 0.491074 0.449018 0.507342 0.598306 0.556246 0.52761 0.473666 0.409008 
0.390435 0.428803 0.375317 0.420449 0.445688 0.550472 0.551178 0.486871 0.503105 
0.48523 0.532258 0.659442 0.555814 0.555814 0.390351 0.43976 0.43976 0.471858 
0.422361 0.478891 0.409393 0.409393 0.422711 0.505735 0.460305 0.373789 0.285021 
0.303387 0.327887 0.36026 0.437801 0.526186 0.522216 0.424137 0.449159 0.521083 
0.711154 0.684662 0.669172 0.694361 0.834302 0.855625 0.887672 0.887672 0.75426 
0.510963 0.548676 0.363155 0.365441 0.434655 0.325188 0.306839 0.341205 0.333608 
0.376123 0.501852 0.485468 0.464879 0.547025 0.540425 0.452634 0.349407 0.441018 
0.488167 0.506088 0.599991 0.626537 0.646772 0.588543 0.54697 0.475875 0.475875 
0.605734 0.681603 0.681603 0.746682 0.804618 0.705731 0.576046 0.495709 0.530632 
0.638968 0.638968 0.670476 0.680219 0.680219 0.743979 0.731053 0.786898 0.724836 
0.768701 0.768701 0.75767 0.819036 0.853352 0.77242 0.757201 0.782802 0.784495 
0.784495 0.801357 0.679719 0.686961 0.712348 0.712348 0.66452 0.552533 0.552533 
0.528619 0.579942 0.48645 0.616976 0.68692 0.56758 0.610037 0.485581 0.475032 
0.569347 0.543113 0.517755 0.469969 0.469969 0.489572 0.612552 0.514029 0.556629 
0.483784 0.52738 0.590739 0.523813 0.490292 0.482108 0.568282 0.496858 0.483297 
0.539478 0.427089 0.385027 0.492738 0.391073 0.522522 0.511823 0.431201 0.441005 
0.374826 0.396101 0.511187 0.505637 0.445683 0.468766 0.467239 0.454681 0.417693 
0.515436 0.515436 0.543909 0.548845 0.548845 0.482397 0.495339 0.519559 0.45044 
0.439079 0.469916 0.47081 0.478386 0.47936 0.382785 0.441061 0.423937 0.485875 
0.5218 0.511139 0.575735 0.575735 0.521345 0.473645 0.505476 0.621602 0.601659 
0.572126 0.557823 0.582603 0.561489 0.462563 0.373188 0.402576 0.435136 0.498738 
0.478869 0.430374 0.491305 0.537525 0.389267 0.679626 0.748007 0.442835 0.447366 
0.415049 0.432088 0.421565 0.621208 0.756935 0.744884 0.56412 0.612327 0.412228 
0.462775 0.386766 0.25657 0.41251 0.332227 0.442156 0.386013 0.345654 0.346996 
0.336795 0.27968 0.2679 0.301829 0.598581 0.574971 0.69282 0.343622 0.457622 
0.518948 0.380285 0.380285 0.451988 0.474174 0.561696 0.518125 0.441739 0.514269 
0.511497 0.602931 0.644326 0.556584 0.47073 0.47073 0.363389 0.363389 0.393964 
0.386458 0.434634 0.522614 0.36218 0.347704 0.358152 0.350798 0.420024 0.520229 
0.533115 0.533115 0.570433 0.515805 0.432376 0.610466 0.686366 0.656727 0.674652 
0.632721 0.563733 0.424936 0.467992 0.375452 0.448793 0.531344 0.504618 0.504389 
0.396012 0.460192 0.540883 0.462398 0.529114 0.426525 0.426525 0.38891 0.318487 
0.303205 0.418332 0.378169 0.378169 0.406621 0.406843 0.420171 0.452336 0.524721 
0.508169 0.516597 0.516597 0.476098 0.397698 0.430971 0.375893 0.524894 0.557384 
0.426419 0.42436 0.472382 0.567227 0.630498 0.61763 0.491148 0.517349 0.571846 
0.695584 0.790941 
WidthEq 1 362 double
2.14898 1.90282 1.21713 2.93998 1 2.99725 3.17576 4.1734 4.45772 
3.57999 4.62458 2.18314 4.21028 3.77242 1.81207 3.41419 7.04125 6.16369 
3.99676 2.15822 6.19605 4.03 4.14401 4.17704 3.21161 2.75249 4.14819 
2.20949 3.36814 2.65647 2.87583 3.59262 3.34137 3.14043 3.05447 3.10639 
3.19358 2.5428 3.85834 3.46131 4.34854 4.31645 4.5055 4.56176 3.11636 
2.84406 2.65813 2.4751 2.42534 2.3779 2.4164 2.55365 2.80118 3.32066 
3.70507 3.90515 3.86499 3.34545 3.25688 2.8875 2.71591 2.66825 2.57245 
2.50726 2.48097 2.48947 2.58837 2.58837 2.6889 2.64253 2.64253 2.38838 
2.41242 2.23588 2.33375 2.33375 2.46595 2.77763 2.85522 3.69161 4.21247 
4.19148 4.55998 4.53904 4.50932 4.33955 4.22838 3.95979 4.0786 3.91037 
3.82214 3.70006 3.46254 3.27061 2.73704 2.86533 2.4953 2.4953 2.37359 
2.83876 2.94075 3.77093 4.62483 5.56001 7.46793 7.8184 7.40589 7.58406 
7.42352 6.16369 6.4047 5.59588 4.84268 4.53797 4.18708 4.09078 3.71246 
3.64387 3.59735 3.61491 3.66639 3.68071 3.79639 3.59687 3.62808 3.62808 
3.22614 3.08044 3.08044 2.93611 2.87331 3.00374 3.16511 3.22898 3.28882 
3.3885 3.3885 3.40776 3.31378 3.31378 3.15392 3.1371 3.00989 3.02385 
2.97432 2.97432 2.91764 2.85275 2.79146 2.82734 2.90067 2.88864 2.85977 
2.85977 2.81338 2.90101 2.79159 2.87727 2.87727 2.92154 3.10675 3.10675 
3.2362 3.51637 3.66942 3.63372 3.47747 3.60721 3.46831 3.77852 3.82057 
3.71399 3.72284 3.77947 3.99109 3.99109 3.88127 3.88893 4.16363 4.04298 
4.46141 4.29738 4.455 4.7611 4.76282 4.80369 4.43081 4.7794 4.90063 
4.78283 5.09954 5.12707 4.64788 5.33687 4.83367 5.0479 5.34151 5.00403 
5.0283 5.2621 4.65063 5.03284 5.27316 5.09306 5.25699 5.12997 5.06646 
4.47758 4.47758 4.39787 4.5391 4.5391 4.68292 4.78614 4.70366 4.93251 
4.98534 4.88032 4.68307 4.41196 4.20488 3.45319 3.12622 2.58285 2.33666 
3.01681 3.95874 3.89648 3.89648 3.48867 3.22481 3.17935 2.49284 2.30867 
2.37479 2.45364 2.80273 3.20308 3.78662 3.92646 6.84129 6.42 5.87987 
5.49591 4.89787 6.40219 5.53133 4.21028 3.36776 3.12458 4.33853 4.43571 
4.21604 4.02762 3.65398 3.21261 3.09002 3.11059 3.2629 3.1685 3.2196 
3.2125 3.17927 3.57091 3.53779 3.69759 3.70572 3.7748 3.68236 3.61815 
3.18578 2.87856 2.37003 2.28809 4.63154 4.41243 3.40591 4.28925 3.86819 
3.52819 3.50524 3.50524 3.25701 2.98248 2.80542 2.7388 2.67374 2.57878 
2.6097 2.58937 2.56837 2.83794 2.95767 2.95767 3.0138 3.0138 2.89994 
2.99449 2.79724 2.37702 4.54221 4.03575 3.68763 3.36784 4.35009 3.97539 
3.75824 3.75824 3.17576 3.08739 3.03087 2.75923 2.23259 2.35357 2.28931 
2.26432 2.37459 2.23651 2.10562 2.22722 2.10856 2.22779 2.24555 2.2616 
2.2484 2.40189 2.65003 2.8412 2.96975 2.93069 2.93069 2.82218 2.84502 
2.78604 2.35555 1.96626 1.96626 1 2.76151 2.66624 2.61458 3.05337 
3.00776 3.41705 3.41705 3.5351 3.77455 3.59433 3.66207 2.96437 3.0163 
2.98029 3.17202 3.28924 3.36963 3.34844 3.4007 3.59796 3.37522 3.12318 
2.71186 2.15233 
rRFP 1 362 double
3620.42 3461.17 3017.57 4132.15 2877.1 4169.2 4284.69 4930.1 5114.04 
4546.2 5221.99 3642.52 4953.96 4670.69 3402.46 4438.94 6785.43 6217.7 
4815.83 3626.4 6238.64 4837.33 4911.09 4932.46 4307.88 4010.86 4913.79 
3659.57 4409.15 3948.74 4090.65 4554.37 4391.83 4261.83 4206.22 4239.81 
4296.22 3875.2 4726.28 4469.42 5043.41 5022.65 5144.95 5181.35 4246.26 
4070.1 3949.81 3831.4 3799.21 3768.52 3793.43 3882.22 4042.36 4378.43 
4627.12 4756.56 4730.58 4394.47 4337.17 4098.2 3987.19 3956.36 3894.38 
3852.21 3835.2 3840.7 3904.68 3904.68 3969.72 3939.72 3939.72 3775.3 
3790.85 3676.64 3739.96 3739.96 3825.48 4027.12 4077.32 4618.41 4955.38 
4941.8 5180.2 5166.65 5147.42 5037.59 4965.67 4791.91 4868.77 4759.94 
4702.86 4623.88 4470.22 4346.05 4000.86 4083.86 3844.47 3844.47 3765.73 
4066.67 4132.65 4669.73 5222.15 5827.16 7061.47 7288.2 7021.33 7136.6 
7032.74 6217.7 6373.62 5850.36 5363.09 5165.96 4938.95 4876.65 4631.9 
4587.53 4557.43 4568.79 4602.1 4611.36 4686.2 4557.12 4577.31 4577.31 
4317.28 4223.02 4223.02 4129.65 4089.02 4173.4 4277.8 4319.12 4357.83 
4422.32 4422.32 4434.78 4373.98 4373.98 4270.56 4259.68 4177.38 4186.41 
4154.37 4154.37 4117.7 4075.72 4036.07 4059.28 4106.72 4098.94 4080.26 
4080.26 4050.25 4106.94 4036.15 4091.58 4091.58 4120.22 4240.04 4240.04 
4323.79 4505.04 4604.06 4580.96 4479.88 4563.81 4473.95 4674.64 4701.84 
4632.89 4638.62 4675.25 4812.16 4812.16 4741.11 4746.07 4923.78 4845.73 
5116.43 5010.31 5112.28 5310.31 5311.42 5337.86 5096.63 5322.15 5400.58 
5324.37 5529.26 5547.07 5237.06 5682.8 5357.26 5495.85 5685.8 5467.47 
5483.17 5634.43 5238.84 5486.11 5641.58 5525.07 5631.12 5548.95 5507.86 
5126.89 5126.89 5075.32 5166.69 5166.69 5259.73 5326.51 5273.15 5421.2 
5455.38 5387.44 5259.83 5084.44 4950.47 4464.17 4252.64 3901.11 3741.84 
4181.86 4791.23 4750.95 4750.95 4487.12 4316.42 4287.01 3842.88 3723.73 
3766.51 3817.52 4043.36 4302.36 4679.88 4770.35 6656.07 6383.52 6034.09 
5785.69 5398.79 6372 5808.6 4953.96 4408.9 4251.58 5036.93 5099.8 
4957.69 4835.79 4594.07 4308.53 4229.22 4242.53 4341.06 4279.99 4313.05 
4308.46 4286.96 4540.33 4518.9 4622.28 4627.54 4672.23 4612.43 4570.89 
4291.17 4092.42 3763.43 3710.42 5226.49 5084.74 4433.58 5005.05 4732.65 
4512.69 4497.84 4497.84 4337.25 4159.65 4045.1 4002 3959.91 3898.48 
3918.48 3905.33 3891.74 4066.14 4143.6 4143.6 4179.91 4179.91 4106.25 
4167.42 4039.81 3767.95 5168.7 4841.05 4615.84 4408.95 5044.41 4802 
4661.52 4661.52 4284.69 4227.52 4190.95 4015.22 3674.51 3752.78 3711.21 
3695.04 3766.38 3677.05 3592.37 3671.04 3594.27 3671.41 3682.9 3693.28 
3684.74 3784.04 3944.57 4068.25 4151.41 4126.14 4126.14 4055.94 4070.72 
4032.56 3754.06 3502.21 3502.21 2877.1 4016.69 3955.06 3921.64 4205.51 
4176 4440.79 4440.79 4517.16 4672.07 4555.48 4599.3 4147.93 4181.53 
4158.23 4282.27 4358.1 4410.11 4396.4 4430.21 4557.83 4413.73 4250.67 
3984.57 3622.59 
rGFP 1 362 double
2517 2454.28 2329.68 2468.33 2365.6 2571.81 2537.84 2545.79 2516.69 
2654.99 2634.44 2557.6 2538.09 2511.32 2429.77 2624.47 2695.81 2711.47 
2573.25 2435.73 2623.99 2614.09 2541.06 2500.48 2489.56 2531.72 2539.63 
2530.68 2604.05 2575.79 2561.8 2609.79 2601.86 2559.43 2519.17 2509.47 
2572.49 2554.27 2548.35 2537.54 2574.58 2570.12 2547.84 2564.62 2491.17 
2493.2 2480.16 2458.31 2469.06 2486.95 2479.95 2482.52 2484.6 2496.19 
2511.1 2536.53 2514.12 2501.3 2504.21 2511.53 2499.72 2479.72 2477.67 
2469.06 2478.72 2510.05 2491.96 2491.96 2455.83 2465.99 2465.99 2458.4 
2448.3 2450.43 2440.84 2440.84 2451.46 2491.78 2484.27 2504.4 2495.56 
2502.11 2529.88 2543.14 2575.57 2602.81 2593.67 2537.91 2554.67 2571.88 
2636.52 2616.56 2591.65 2584.02 2576.46 2594.9 2565.83 2565.83 2522.58 
2497.23 2514.74 2504.69 2549.88 2635.83 2668.36 2671.26 2676.9 2680.14 
2702.95 2711.47 2716.99 2654.36 2646.6 2622.49 2562.6 2515.77 2529.74 
2542.36 2545.65 2579.77 2593.07 2601.41 2589.11 2559.9 2537.02 2537.02 
2552.52 2564.25 2564.25 2570.88 2581.46 2564.95 2538.8 2518.23 2533.25 
2575.68 2575.68 2587.62 2583.09 2583.09 2589.43 2584 2589.2 2572.27 
2580.64 2580.64 2572.35 2583.51 2586.93 2568.27 2570.69 2576.79 2574.59 
2574.59 2574.9 2548.89 2541.83 2556.05 2556.05 2546.27 2527.48 2527.48 
2529.04 2565.56 2543.38 2587.17 2598.86 2567.84 2572.2 2550.01 2548.77 
2576.12 2567.27 2561.88 2557.48 2557.48 2558.05 2604.99 2586.01 2594.73 
2592.67 2600.46 2638.54 2630.19 2614.8 2613.6 2627.09 2618.91 2620.3 
2638.93 2605.07 2585.72 2608.54 2600.15 2634.47 2643.62 2621.22 2606.3 
2575.42 2598.65 2617.05 2639.6 2624.65 2625.31 2634.69 2620.58 2598.53 
2607.46 2607.46 2614.32 2626.28 2626.28 2606.09 2618.64 2624.38 2606.58 
2604.26 2612.67 2600.83 2587.22 2574.59 2494.84 2495 2458.49 2458.36 
2512.17 2571.3 2591.63 2591.63 2543.69 2511.05 2518.04 2501.16 2482.54 
2480.68 2482.95 2514.35 2537.02 2542.06 2516.56 2689.68 2686.58 2691.19 
2655.67 2594.95 2720.46 2689.41 2538.09 2587.35 2588.05 2567.62 2575.35 
2548.96 2544.93 2519.37 2556.33 2587.65 2585.86 2542.1 2550.21 2491.52 
2506.89 2481.38 2457.38 2509.59 2489.79 2529.75 2513.27 2493.85 2491.11 
2466.27 2435.2 2410.31 2414.37 2655.1 2628.64 2594.86 2523.36 2545.21 
2545.52 2496.78 2496.78 2506.21 2496.07 2508.85 2492.53 2468.35 2480.88 
2482.23 2503.88 2512.63 2509.75 2493.53 2493.53 2465.6 2465.6 2468.32 
2471.31 2473.75 2469.41 2544.15 2512.33 2498.59 2479.8 2558.67 2575.91 
2566.07 2566.07 2537.84 2515.11 2486.79 2518.64 2495.21 2498.49 2497.32 
2486.05 2478.73 2438.75 2440 2427.51 2436.25 2461.27 2456.65 2457.65 
2433.12 2456.52 2492.46 2483.99 2511.12 2479.27 2479.27 2462.68 2444.46 
2437.53 2444.11 2414.22 2414.22 2365.6 2464.2 2462.32 2467.53 2515.49 
2507.58 2537.31 2537.31 2531.27 2517.54 2519.23 2503.59 2509.54 2522.56 
2482.11 2492.57 2514.67 2550.72 2569.78 2569.59 2540.47 2534.77 2534.49 
2537.47 2510.4 
bkstRFP 1 362 double
1390.26 1231.01 787.411 1901.99 646.941 1939.04 2054.53 2699.94 2883.88 
2316.04 2991.83 1412.36 2723.8 2440.53 1172.3 2208.78 4555.27 3987.54 
2585.67 1396.24 4008.48 2607.17 2680.93 2702.3 2077.72 1780.7 2683.63 
1429.41 2178.99 1718.58 1860.49 2324.21 2161.67 2031.67 1976.06 2009.65 
2066.06 1645.04 2496.12 2239.26 2813.25 2792.49 2914.79 2951.19 2016.1 
1839.94 1719.65 1601.24 1569.05 1538.36 1563.27 1652.06 1812.2 2148.27 
2396.96 2526.4 2500.42 2164.31 2107.01 1868.04 1757.03 1726.2 1664.22 
1622.05 1605.04 1610.54 1674.52 1674.52 1739.56 1709.56 1709.56 1545.14 
1560.69 1446.48 1509.8 1509.8 1595.32 1796.96 1847.16 2388.25 2725.22 
2711.64 2950.04 2936.49 2917.26 2807.43 2735.51 2561.75 2638.61 2529.78 
2472.7 2393.72 2240.06 2115.89 1770.7 1853.7 1614.31 1614.31 1535.57 
1836.51 1902.49 2439.57 2991.99 3597 4831.31 5058.04 4791.17 4906.44 
4802.58 3987.54 4143.46 3620.2 3132.93 2935.8 2708.79 2646.49 2401.74 
2357.37 2327.27 2338.63 2371.94 2381.2 2456.04 2326.96 2347.15 2347.15 
2087.12 1992.86 1992.86 1899.49 1858.86 1943.24 2047.64 2088.96 2127.67 
2192.16 2192.16 2204.62 2143.82 2143.82 2040.4 2029.52 1947.22 1956.25 
1924.21 1924.21 1887.54 1845.56 1805.91 1829.12 1876.56 1868.78 1850.1 
1850.1 1820.09 1876.78 1805.99 1861.42 1861.42 1890.06 2009.88 2009.88 
2093.63 2274.88 2373.9 2350.8 2249.72 2333.65 2243.79 2444.48 2471.68 
2402.73 2408.46 2445.09 2582 2582 2510.95 2515.91 2693.62 2615.57 
2886.27 2780.15 2882.12 3080.15 3081.26 3107.7 2866.47 3091.99 3170.42 
3094.21 3299.1 3316.91 3006.9 3452.64 3127.1 3265.69 3455.64 3237.31 
3253.01 3404.27 3008.68 3255.95 3411.42 3294.91 3400.96 3318.79 3277.7 
2896.73 2896.73 2845.16 2936.53 2936.53 3029.57 3096.35 3042.99 3191.04 
3225.22 3157.28 3029.67 2854.28 2720.31 2234.01 2022.48 1670.95 1511.68 
1951.7 2561.07 2520.79 2520.79 2256.96 2086.26 2056.85 1612.72 1493.57 
1536.35 1587.36 1813.2 2072.2 2449.72 2540.19 4425.91 4153.36 3803.93 
3555.53 3168.63 4141.84 3578.44 2723.8 2178.74 2021.42 2806.77 2869.64 
2727.53 2605.63 2363.91 2078.37 1999.06 2012.37 2110.9 2049.83 2082.89 
2078.3 2056.8 2310.17 2288.74 2392.12 2397.38 2442.07 2382.27 2340.73 
2061.01 1862.26 1533.27 1480.26 2996.33 2854.58 2203.42 2774.89 2502.49 
2282.53 2267.68 2267.68 2107.09 1929.49 1814.94 1771.84 1729.75 1668.32 
1688.32 1675.17 1661.58 1835.98 1913.44 1913.44 1949.75 1949.75 1876.09 
1937.26 1809.65 1537.79 2938.54 2610.89 2385.68 2178.79 2814.25 2571.84 
2431.36 2431.36 2054.53 1997.36 1960.79 1785.06 1444.35 1522.62 1481.05 
1464.88 1536.22 1446.89 1362.21 1440.88 1364.11 1441.25 1452.74 1463.12 
1454.58 1553.88 1714.41 1838.09 1921.25 1895.98 1895.98 1825.78 1840.56 
1802.4 1523.9 1272.05 1272.05 646.941 1786.53 1724.9 1691.48 1975.35 
1945.84 2210.63 2210.63 2287 2441.91 2325.32 2369.14 1917.77 1951.37 
1928.07 2052.11 2127.94 2179.95 2166.24 2200.05 2327.67 2183.57 2020.51 
1754.41 1392.43 
bkstGFP 1 362 double
207.341 144.621 20.021 158.671 55.941 262.151 228.181 236.131 207.031 
345.331 324.781 247.941 228.431 201.661 120.111 314.811 386.151 401.811 
263.591 126.071 314.331 304.431 231.401 190.821 179.901 222.061 229.971 
221.021 294.391 266.131 252.141 300.131 292.201 249.771 209.511 199.811 
262.831 244.611 238.691 227.881 264.921 260.461 238.181 254.961 181.511 
183.541 170.501 148.651 159.401 177.291 170.291 172.861 174.941 186.531 
201.441 226.871 204.461 191.641 194.551 201.871 190.061 170.061 168.011 
159.401 169.061 200.391 182.301 182.301 146.171 156.331 156.331 148.741 
138.641 140.771 131.181 131.181 141.801 182.121 174.611 194.741 185.901 
192.451 220.221 233.481 265.911 293.151 284.011 228.251 245.011 262.221 
326.861 306.901 281.991 274.361 266.801 285.241 256.171 256.171 212.921 