# vtk DataFile Version 3.0
vtk output
ASCII
DATASET POLYDATA
POINTS 565 float
5.73718 1.17977 2.06034 4.44852 2.02853 1.62421 5.3494 2.34383 1.15731 
5.80918 0.809119 1.65571 6.19678 1.48626 1.38895 0.889852 1.93209 1.40188 
1.10114 2.33748 1.15036 4.09206 1.34881 1.34772 6.28985 1.38473 0.978765 
1.87989 1.04212 1.41251 1.45478 1.00144 1.45886 4.43597 0.737213 1.07182 
5.25848 2.23652 0.294617 4.36406 2.25484 0.330497 2.60396 1.75624 0.718271 
2.67799 1.82446 0.673932 6.10121 0.742665 0.903943 5.60171 0.399357 1.1337 
2.66076 1.15315 0.840277 6.20971 1.25616 0.283293 2.51303 2.18734 0.00174436 
0.929831 2.79583 -0.431639 4.84703 1.85723 -0.15721 5.80199 0.443413 0.398771 
4.88733 0.115389 0.641165 3.61411 1.22024 -0.102858 1.80387 2.43251 -0.804954 
-0.337079 0.863531 0.392855 0.885743 2.74733 -0.943713 5.87948 0.631808 -0.182588 
3.25584 1.02265 -0.277296 2.90941 1.68647 -0.652964 0.449252 2.64932 -1.09553 
5.63764 0.525928 -0.339914 -0.388382 2.06456 -0.937646 -0.20332 2.23512 -1.04849 
2.79659 0.809974 -0.825459 -0.872066 1.8528 -1.2523 0.317094 -0.304871 -0.267304 
-1.01111 0.920938 -1.2354 -0.761016 1.41672 -1.46498 1.99346 -0.0473928 -1.43877 
-0.784724 0.809613 -1.80193 0.144226 0.12085 -1.67469 0.00907714 1.19006 -2.30188 
1.40233 -0.428396 -1.64741 1.09756 0.905817 -2.42294 0.861106 0.968779 -2.44793 
0.3846 1.16161 -2.53741 0.41588 1.12022 -2.51449 0.438271 1.07063 -2.48625 
0.472149 1.03178 -2.46497 0.519427 1.00759 -2.45309 0.578704 1.00722 -2.45597 
0.633659 1.02222 -2.46774 0.694309 1.02311 -2.47144 0.750914 1.00753 -2.46515 
0.811104 0.992918 -2.45963 1.16586 0.898536 -2.42219 1.22552 0.886775 -2.40971 
1.29604 0.89195 -2.3906 1.37298 0.913455 -2.35565 1.44353 0.932533 -2.31031 
1.49683 0.932384 -2.26128 1.54778 0.921995 -2.23191 1.60761 0.925597 -2.22855 
1.66386 0.941794 -2.2411 1.73286 0.953856 -2.24324 1.80876 0.966452 -2.22882 
1.88027 0.983092 -2.1907 1.94193 0.993977 -2.14003 2.01215 1.00928 -2.10105 
2.08047 1.0159 -2.07407 2.13303 1.008 -2.03764 2.18511 1.00658 -1.9878 
2.24757 1.01821 -1.9376 2.30491 1.02165 -1.89092 2.35801 1.01077 -1.86138 
2.38917 0.976203 -1.82525 2.42405 0.948536 -1.7848 2.46535 0.937192 -1.72851 
2.50692 0.929562 -1.66579 2.54183 0.9158 -1.59911 2.56621 0.888858 -1.53268 
2.60146 0.878872 -1.45963 2.64376 0.878858 -1.38423 2.68755 0.883677 -1.30317 
2.72945 0.879819 -1.2341 2.76365 0.872345 -1.15386 2.77997 0.851846 -1.05634 
2.78893 0.831508 -0.94129 1.36472 -0.361621 -1.60746 1.32677 -0.298622 -1.57388 
1.28783 -0.246949 -1.55939 1.24748 -0.210446 -1.57032 1.20483 -0.186465 -1.59955 
1.15457 -0.166041 -1.61766 1.08765 -0.157494 -1.61924 1.01943 -0.150145 -1.62003 
0.958848 -0.14977 -1.65157 0.888678 -0.167496 -1.68912 0.81931 -0.197237 -1.71958 
0.763757 -0.219715 -1.72058 0.712959 -0.204604 -1.70965 0.683289 -0.143379 -1.69269 
0.643645 -0.0855536 -1.66457 0.586674 -0.0470246 -1.63272 0.529384 -0.0226664 -1.62693 
0.459601 -0.0202275 -1.63335 0.383654 -0.0304064 -1.6492 0.31517 -0.0267709 -1.6564 
0.2655 0.00114275 -1.66174 0.224517 0.044 -1.65916 0.184501 0.0842787 -1.66372 
0.0389531 1.1335 -2.30437 0.0580855 1.06384 -2.30716 0.076669 0.998479 -2.31246 
0.0682468 0.943144 -2.30506 0.022196 0.91049 -2.30053 -0.0227098 0.874793 -2.29425 
-0.0620637 0.830441 -2.29175 -0.0995708 0.792685 -2.27601 -0.137262 0.76721 -2.24168 
-0.179654 0.761707 -2.18448 -0.225523 0.763057 -2.12253 -0.249354 0.742564 -2.0574 
-0.277992 0.713822 -2.01299 -0.313401 0.68246 -1.98391 -0.351846 0.649505 -1.96236 
-0.399165 0.623717 -1.94458 -0.466404 0.614146 -1.93539 -0.540887 0.616587 -1.92433 
-0.609357 0.63406 -1.90525 -0.665938 0.674684 -1.87466 -0.727261 0.727935 -1.83407 
-0.777013 0.938084 -1.79233 -0.772451 1.05756 -1.75998 -0.762883 1.17775 -1.69384 
-0.749066 1.29543 -1.59194 -0.865869 0.832426 -1.73362 -0.916416 0.842912 -1.65387 
-0.951636 0.856997 -1.55118 -0.982488 0.885278 -1.41116 2.03843 -0.04481 -1.36506 
2.08966 -0.0375942 -1.30304 2.15109 -0.0151789 -1.26783 2.20826 0.0124033 -1.26132 
2.27616 0.0295338 -1.25778 2.34304 0.0516552 -1.24854 2.39261 0.103929 -1.22179 
2.43454 0.174515 -1.17963 2.47705 0.25271 -1.12479 2.52627 0.317405 -1.07952 
2.58736 0.364421 -1.04163 2.6439 0.407026 -1.01814 2.70356 0.455199 -0.980863 
2.7439 0.527068 -0.939384 2.76483 0.622687 -0.893754 2.78655 0.713639 -0.853997 
-0.790948 1.44564 -1.334 -0.815594 1.4622 -1.21322 -0.837429 1.46436 -1.1099 
-0.882219 1.47697 -1.02883 -0.922439 1.4778 -0.958249 -0.949157 1.45156 -0.906795 
-0.95747 1.37669 -0.899314 -0.961944 1.2535 -0.958196 -0.976677 1.09492 -1.07889 
-0.751458 1.50928 -1.44278 -0.733697 1.58892 -1.42198 -0.735632 1.66642 -1.40751 
-0.764465 1.73188 -1.38449 -0.809612 1.79504 -1.33338 -0.992343 0.863725 -1.1306 
-0.958763 0.843875 -1.04298 -0.924763 0.83216 -0.965962 -0.901707 0.805065 -0.896497 
-0.87745 0.767604 -0.849682 -0.864053 0.713199 -0.809485 -0.849499 0.659861 -0.769981 
-0.818519 0.628596 -0.727192 -0.784984 0.613562 -0.65968 -0.75934 0.601666 -0.567743 
-0.722762 0.606776 -0.469241 -0.679867 0.614248 -0.38107 -0.637305 0.617938 -0.299275 
-0.601326 0.615562 -0.213538 -0.573291 0.615066 -0.105502 -0.524141 0.654024 0.0297488 
-0.442052 0.743751 0.196395 0.38394 -0.313486 -0.265688 0.43395 -0.337618 -0.253987 
0.477303 -0.367884 -0.2383 0.527312 -0.392016 -0.226599 0.593899 -0.404339 -0.231393 
0.66112 -0.423013 -0.249691 0.718453 -0.461205 -0.281755 0.785723 -0.493714 -0.326346 
0.860048 -0.516246 -0.368588 0.936596 -0.526324 -0.392472 1.0138 -0.52872 -0.403711 
1.09 -0.526253 -0.409157 1.15882 -0.51783 -0.417751 1.21644 -0.500368 -0.431122 
1.28526 -0.491944 -0.439716 1.36146 -0.489478 -0.445161 1.439 -0.488098 -0.450033 
1.51653 -0.486716 -0.454905 1.59265 -0.484185 -0.460386 1.66004 -0.474605 -0.469591 
1.70879 -0.449975 -0.48675 1.75619 -0.424253 -0.504486 1.81477 -0.407565 -0.517447 
1.87115 -0.385049 -0.525126 1.93938 -0.364019 -0.515306 2.00734 -0.330638 -0.486937 
2.05834 -0.279511 -0.459573 2.10799 -0.227303 -0.432791 2.16707 -0.186749 -0.408213 
2.21521 -0.133318 -0.382077 2.25639 -0.0702198 -0.352688 2.2979 -0.00334472 -0.316932 
2.34672 0.0576329 -0.27806 2.40638 0.105806 -0.240783 2.45419 0.15546 -0.221013 
2.49404 0.203456 -0.217082 2.53389 0.251453 -0.213151 2.58211 0.304818 -0.18698 
2.64387 0.359388 -0.136359 2.70247 0.424583 -0.0746508 2.76423 0.479153 -0.0240292 
2.81279 0.536294 0.00850808 2.85322 0.591905 0.0251292 2.89272 0.652312 0.047578 
2.93349 0.711705 0.0705743 2.98131 0.761352 0.0903468 3.0393 0.790647 0.0957991 
3.08545 0.821428 0.0837523 3.12388 0.854388 0.062191 3.1609 0.8885 0.0400214 
3.19648 0.923762 0.0172434 3.22428 0.96127 -0.0150838 3.23847 0.997639 -0.0718847 
3.25346 1.01315 -0.159452 2.88146 0.894277 -0.690238 2.96369 0.962287 -0.579688 
3.03631 1.00408 -0.496207 3.09094 1.0189 -0.421634 3.14361 1.02498 -0.359018 
3.20458 1.03175 -0.314499 -0.27204 2.19021 -1.09586 -0.318851 2.15189 -1.09654 
-0.347571 2.12321 -1.05217 -0.362933 2.09183 -0.989641 5.69051 0.538258 -0.272396 
5.75267 0.568288 -0.224487 5.81084 0.607195 -0.198885 0.516565 2.65883 -1.10469 
0.573151 2.67893 -1.11095 0.635018 2.69126 -1.09564 0.696454 2.6992 -1.05184 
0.778564 2.72075 -0.999937 1.87956 2.39434 -0.794891 1.89125 2.36194 -0.767661 
1.849 2.37312 -0.763454 2.83881 1.7506 -0.540751 2.77454 1.81708 -0.438895 
2.71994 1.88555 -0.355951 2.6576 1.94688 -0.268379 2.60199 2.01441 -0.184827 
2.56635 2.10728 -0.100122 3.32349 1.03607 -0.280166 3.3808 1.06731 -0.272957 
3.44471 1.11014 -0.238484 3.51443 1.1677 -0.181439 5.88615 0.619036 -0.0546647 
5.8835 0.605698 0.056843 5.86156 0.599861 0.147672 5.8376 0.587515 0.225221 
5.8242 0.557802 0.295269 5.80752 0.514023 0.347973 5.92082 0.715001 -0.122017 
5.96083 0.783088 -0.0869125 5.9995 0.836078 -0.0772576 6.03848 0.891605 -0.0633738 
6.08112 0.973972 -0.00526764 6.13541 1.09789 0.116675 0.957258 2.73126 -1.05 
1.02819 2.69211 -1.15118 1.0926 2.65311 -1.24349 1.14722 2.63668 -1.31419 
1.21464 2.62993 -1.34819 1.28913 2.62736 -1.35918 1.35734 2.62014 -1.35847 
1.40865 2.59721 -1.34755 1.45832 2.5693 -1.34221 1.51622 2.54203 -1.35493 
1.56319 2.49775 -1.37422 1.60417 2.4549 -1.3768 1.64715 2.43469 -1.3412 
1.69904 2.44698 -1.26499 1.76076 2.47871 -1.17496 1.80325 2.49222 -1.07311 
1.81459 2.474 -0.950821 0.904874 2.77326 -0.689957 3.70565 1.22305 -0.14667 
3.76261 1.23562 -0.19159 3.80991 1.24548 -0.237275 3.86503 1.23944 -0.291168 
3.90995 1.23885 -0.353528 3.9552 1.24205 -0.409512 4.01128 1.24863 -0.442208 
4.05676 1.27185 -0.466988 4.09528 1.30475 -0.488515 4.13388 1.33758 -0.510007 
4.18113 1.36343 -0.527809 4.24692 1.37429 -0.537692 4.31314 1.38886 -0.541173 
4.36247 1.42111 -0.545642 4.41121 1.46192 -0.537917 4.47105 1.49378 -0.525455 
4.52741 1.53249 -0.508253 4.58867 1.56318 -0.495179 4.64646 1.60074 -0.477369 
4.71561 1.63303 -0.448413 4.78378 1.68409 -0.387432 4.82735 1.76552 -0.291449 
-0.284987 1.02222 0.523037 -0.248829 1.14865 0.618565 -0.237521 1.25498 0.661231 
-0.236053 1.34349 0.663247 -0.229103 1.4221 0.659361 -0.211301 1.4879 0.653882 
-0.202999 1.56543 0.650573 -0.194957 1.63911 0.640928 -0.175722 1.70376 0.636061 
-0.16097 1.76393 0.616831 -0.140975 1.81988 0.599847 -0.124465 1.88268 0.587592 
-0.0958448 1.94783 0.599171 -0.0681617 2.01779 0.616584 -0.0580218 2.09787 0.620275 
-0.048799 2.16655 0.60491 -0.0217684 2.21277 0.584704 0.01198 2.24547 0.554917 
0.0395188 2.27915 0.516263 0.0569789 2.31692 0.467083 0.0936586 2.34726 0.438547 
0.149484 2.37022 0.430631 0.19487 2.4097 0.430701 0.226596 2.45617 0.418716 
0.25317 2.5068 0.40454 0.30244 2.54314 0.406267 0.350256 2.59279 0.42604 
0.400081 2.64891 0.459119 0.459823 2.69701 0.496431 0.507632 2.74667 0.516209 
0.54666 2.78724 0.50734 0.58207 2.8186 0.478262 0.610782 2.84728 0.433885 
0.637376 2.88172 0.394827 0.693709 2.89214 0.368455 0.757086 2.89283 0.338873 
0.801921 2.89232 0.276487 0.837113 2.88745 0.191311 0.869604 2.87003 0.0821276 
0.899978 2.84368 -0.0475236 0.922246 2.81149 -0.219256 -0.293976 0.81487 0.456828 
-0.268246 0.766969 0.509759 -0.243031 0.719407 0.53953 -0.222801 0.658492 0.55162 
-0.191952 0.599356 0.541977 -0.153974 0.550261 0.53463 -0.113699 0.513693 0.545604 
-0.0714595 0.485865 0.568516 -0.0228977 0.4604 0.581084 0.0343628 0.439486 0.581884 
0.0766092 0.411665 0.604792 0.109725 0.385839 0.652867 0.163897 0.386359 0.701461 
0.221319 0.389869 0.7481 0.285002 0.402621 0.797554 0.344463 0.41495 0.856104 
0.40896 0.435391 0.918203 0.470384 0.456466 0.9887 0.543569 0.491853 1.05873 
0.6238 0.537337 1.131 0.703581 0.581268 1.19561 0.775727 0.627443 1.25066 
0.836273 0.678945 1.29454 0.906321 0.718728 1.33625 0.975963 0.754795 1.37156 
1.03408 0.796124 1.39573 1.09634 0.838147 1.4279 1.15345 0.884344 1.45787 
1.2153 0.922656 1.48363 1.27108 0.953745 1.48813 1.33135 0.973118 1.48211 
1.38747 0.991798 1.4681 1.7266 2.58144 -0.665105 1.65368 2.68547 -0.524714 
1.58135 2.75113 -0.413317 1.50833 2.78891 -0.345702 1.44006 2.81009 -0.320212 
1.38107 2.82941 -0.319963 1.31278 2.83669 -0.320713 1.24448 2.84397 -0.321462 
1.18487 2.85699 -0.331821 1.11343 2.85299 -0.348698 1.0286 2.83011 -0.382427 
3.63009 1.2684 0.166606 3.6437 1.30542 0.393949 3.65526 1.3132 0.558284 
3.67214 1.29895 0.666435 3.70568 1.28393 0.733944 3.74724 1.27629 0.796648 
3.79044 1.27363 0.86494 3.83404 1.27481 0.939555 3.87764 1.276 1.01417 
3.92132 1.27724 1.08873 3.96663 1.28347 1.16889 4.02055 1.30457 1.25701 
4.88362 0.196065 0.627988 4.87263 0.276965 0.632296 4.84407 0.348623 0.660252 
4.80776 0.416596 0.699425 4.76892 0.482244 0.740108 4.72288 0.537782 0.778541 
4.66504 0.580184 0.819634 4.60837 0.627954 0.866105 4.53354 0.6802 0.951094 
5.74229 0.449943 0.5101 5.70041 0.449451 0.59879 5.67311 0.434221 0.669599 
5.65873 0.414018 0.751306 5.63527 0.411861 0.848645 5.6121 0.416478 0.976436 
5.91653 0.539216 0.56873 6.01307 0.639822 0.736781 4.92747 1.90884 -0.0799501 
4.99954 1.95508 -0.0249382 5.0584 2.0039 0.0119984 5.12208 2.06096 0.0696556 
5.18385 2.14382 0.16384 4.77857 1.94153 -0.00534914 4.71607 2.00484 0.124168 
4.66284 2.03653 0.220232 4.59739 2.05202 0.266189 4.53159 2.06953 0.285099 
4.48267 2.10494 0.292529 4.44235 2.15534 0.307835 4.40333 2.20695 0.322371 
6.19436 1.3265 0.236631 6.1644 1.37849 0.215974 6.134 1.42965 0.207337 
6.11401 1.49306 0.199501 6.08881 1.547 0.186061 6.06003 1.59416 0.168211 
6.00923 1.61757 0.156982 5.9606 1.64297 0.144458 5.91074 1.66724 0.132668 
5.85177 1.68311 0.126332 5.80191 1.70738 0.114542 5.75294 1.729 0.0956525 
5.70107 1.74101 0.065376 5.66859 1.76049 0.00379881 5.63134 1.77556 -0.054929 
5.58164 1.78957 -0.0865036 5.51586 1.80957 -0.0690685 5.45101 1.84084 -0.0324932 
5.4034 1.89147 0.000310364 5.36375 1.94943 0.0283499 5.32672 2.02368 0.0810692 
5.29177 2.12066 0.171935 6.27608 1.32173 0.502442 6.29877 1.36605 0.699128 
6.29157 1.38921 0.852445 2.58731 1.18082 0.896674 2.52015 1.19128 0.937092 
2.46268 1.17369 0.950529 2.3958 1.15156 0.941277 2.33805 1.12611 0.942157 
2.31213 1.09922 0.993948 2.28541 1.09319 1.07652 2.25333 1.09959 1.16924 
2.21763 1.09677 1.24174 2.17306 1.08493 1.28558 2.11522 1.07573 1.3113 
2.05984 1.06454 1.33808 1.99361 1.06616 1.36644 1.92831 1.06298 1.38898 
4.43897 0.638135 1.09307 4.44221 0.55806 1.12315 4.44654 0.49675 1.17367 
4.45478 0.453721 1.24761 4.47983 0.434339 1.32677 4.54198 0.456088 1.39684 
4.62084 0.500172 1.47003 4.70298 0.55421 1.55437 4.78492 0.604606 1.63228 
4.86546 0.639962 1.68468 4.94298 0.65753 1.70469 5.01206 0.669661 1.70251 
5.06839 0.685927 1.68991 5.12918 0.686957 1.68613 5.18716 0.672628 1.6916 
5.25634 0.66284 1.68516 5.33125 0.647922 1.65561 5.4041 0.612569 1.58656 
5.46822 0.556831 1.46971 5.52463 0.487625 1.30952 5.68794 0.496198 1.3189 
5.75168 0.635422 1.49162 6.09864 0.749488 1.0466 6.07718 0.767513 1.17496 
6.04633 0.785043 1.28688 6.01373 0.799942 1.39181 5.98002 0.804905 1.47973 
5.94332 0.803456 1.55435 5.89155 0.800155 1.61074 6.14121 0.810757 0.939056 
6.17922 0.856194 0.935978 6.21524 0.87898 0.894717 6.25051 0.894279 0.840688 
6.28535 0.922053 0.805142 6.31272 0.972043 0.791307 6.32168 1.05699 0.800797 
6.32188 1.16294 0.832768 6.31403 1.27782 0.894352 2.64098 1.79035 0.696101 
5.24102 2.27976 0.468169 5.24241 2.29789 0.62977 5.25948 2.30497 0.771233 
5.29422 2.31895 0.890457 5.32945 2.33669 1.01602 4.35638 0.82856 1.17409 
4.31972 0.928824 1.24585 4.28689 1.01099 1.29941 4.2427 1.07411 1.34763 
4.18791 1.12158 1.3913 4.14936 1.17709 1.41211 4.12805 1.23807 1.40291 
4.10505 1.29056 1.3816 6.25151 1.44065 1.13726 6.21057 1.48251 1.26976 
4.15062 1.40191 1.39076 4.18046 1.47417 1.41531 4.21258 1.54054 1.43461 
4.25159 1.5973 1.45062 4.29815 1.65201 1.47608 4.34758 1.70845 1.50899 
4.3676 1.79268 1.53557 4.38024 1.88287 1.55901 4.4101 1.95916 1.58978 
1.09435 2.27896 1.18543 1.07494 2.23063 1.21511 1.05062 2.18627 1.2427 
1.0025 2.16113 1.26013 0.95811 2.13298 1.27915 0.919828 2.09989 1.30078 
0.884323 2.06469 1.32351 0.85899 2.02352 1.34926 0.861606 1.97353 1.37878 
5.75457 0.988322 1.8655 
LINES 46 654
11 48 49 50 51 52 53 54 55 56 57 47 
35 46 58 59 60 61 62 63 64 65 66 67 68 69 70 71 72 73 74 75 76 77 78 79 80 81 82 83 84 85 86 87 88 89 90 36 
25 45 91 92 93 94 95 96 97 98 99 100 101 102 103 104 105 106 107 108 109 110 111 112 113 43 
23 44 114 115 116 117 118 119 120 121 122 123 124 125 126 127 128 129 130 131 132 133 134 42 
6 42 135 136 137 138 40 
6 42 139 140 141 142 39 
18 41 143 144 145 146 147 148 149 150 151 152 153 154 155 156 157 158 36 
11 40 159 160 161 162 163 164 165 166 167 39 
7 40 168 169 170 171 172 37 
19 39 173 174 175 176 177 178 179 180 181 182 183 184 185 186 187 188 189 27 
56 38 190 191 192 193 194 195 196 197 198 199 200 201 202 203 204 205 206 207 208 209 210 211 212 213 214 215 216 217 218 219 220 221 222 223 224 225 226 227 228 229 230 231 232 233 234 235 236 237 238 239 240 241 242 243 30 
8 36 244 245 246 247 248 249 30 
6 35 250 251 252 253 34 
5 33 254 255 256 29 
7 32 257 258 259 260 261 28 
5 26 262 263 264 26 
8 31 265 266 267 268 269 270 20 
6 30 271 272 273 274 25 
8 29 275 276 277 278 279 280 23 
8 29 281 282 283 284 285 286 19 
19 28 287 288 289 290 291 292 293 294 295 296 297 298 299 300 301 302 303 26 
3 28 304 21 
24 25 305 306 307 308 309 310 311 312 313 314 315 316 317 318 319 320 321 322 323 324 325 326 22 
43 27 327 328 329 330 331 332 333 334 335 336 337 338 339 340 341 342 343 344 345 346 347 348 349 350 351 352 353 354 355 356 357 358 359 360 361 362 363 364 365 366 367 21 
34 27 368 369 370 371 372 373 374 375 376 377 378 379 380 381 382 383 384 385 386 387 388 389 390 391 392 393 394 395 396 397 398 399 10 
13 26 400 401 402 403 404 405 406 407 408 409 410 21 
14 25 411 412 413 414 415 416 417 418 419 420 421 422 7 
11 24 423 424 425 426 427 428 429 430 431 11 
8 23 432 433 434 435 436 437 17 
4 23 438 439 16 
7 22 440 441 442 443 444 12 
10 22 445 446 447 448 449 450 451 452 13 
24 19 453 454 455 456 457 458 459 460 461 462 463 464 465 466 467 468 469 470 471 472 473 474 12 
5 19 475 476 477 8 
16 18 478 479 480 481 482 483 484 485 486 487 488 489 490 491 9 
22 11 492 493 494 495 496 497 498 499 500 501 502 503 504 505 506 507 508 509 510 511 17 
4 17 512 513 3 
9 16 514 515 516 517 518 519 520 3 
11 16 521 522 523 524 525 526 527 528 529 8 
3 15 530 14 
7 12 531 532 533 534 535 2 
10 11 536 537 538 539 540 541 542 543 7 
4 8 544 545 4 
11 7 546 547 548 549 550 551 552 553 554 1 
11 6 555 556 557 558 559 560 561 562 563 5 
3 3 564 0 

POINT_DATA 565
SCALARS DY_raw double
LOOKUP_TABLE default
484.583 647.492 467.41 439.455 453.77 269.423 233.156 260.922 289.151 
425.139 301.732 294.997 261.299 257.841 276.012 293.031 276.44 315.168 
331.741 256.348 250.692 231.722 359.688 232.149 242.42 451.16 209.388 
229.146 197.835 282.681 283.103 326.321 232.584 325.557 338.367 221.21 
247.859 244.192 188.413 185.451 245.645 208.434 196.108 328.238 305.685 
649.275 361.119 429.594 350.593 350.593 366.678 414.776 452.51 449.5 
512.881 446.874 391.915 391.915 362.09 331.261 309.246 338.14 300.676 
321.489 311.659 290.491 268.022 272.794 265.002 226.731 222.028 241.571 
232.239 248.455 235.223 251.725 224.631 224.631 193.03 205.268 209.974 
191.709 200.038 192.686 185.339 210.297 217.816 223.613 246.263 242.332 
257.397 507.672 472.73 472.73 441.745 401.478 366.253 398.594 398.594 
440.299 460.395 413.495 441.929 462.506 465.036 530.722 448.78 420.897 
517.631 315.508 366.951 303.509 341.725 358.798 303.891 335.06 369.971 
439.25 407.221 400.259 384.684 349.603 275.458 296.897 299.535 339.18 
339.18 352.807 368.851 368.851 306.823 258.997 235.643 207.033 194.344 
196.692 220.95 222.846 208.395 201.209 213.611 195.775 177.923 193.963 
202.033 207.961 204.88 204.88 195.534 215.198 223.189 272.465 285.918 
238.194 238.931 253.443 217.369 230.334 263.96 256.429 269.675 288.662 
305.713 304.515 281.464 303.795 250.415 212.248 215.755 197.574 192.391 
202.856 219.868 209.721 232.29 260.702 254.285 275.129 268.104 226.096 
201.664 215.441 204.662 199.804 211.11 241.254 216.405 233.629 272.473 
230.952 188.413 210.342 201.193 201.193 208.057 208.057 192.738 231.406 
194.406 231.062 302.048 290.688 343.809 344.865 308.664 369.432 369.983 
268.06 296.644 260.622 242.335 262.31 230.425 246.851 246.851 271.752 
299.931 318.219 270.418 295.094 262.56 285.701 322.813 288.964 281.818 
338.555 271.071 288.836 282.035 282.647 302.422 283.871 267.283 319.183 
325.1 339.12 339.12 305.171 304.277 304.277 345.104 345.104 350.765 
319.978 249.723 253.703 278.534 337.831 307.085 294.447 194.309 228.566 
228.566 292.972 260.779 232.694 251.48 232.584 222.347 203.056 192.516 
193.802 239.38 284.495 266.17 242.469 229.544 251.144 209.032 211.071 
242.493 256.033 268.599 303.181 383.194 316.532 319.009 335.096 259.756 
250.228 230.005 317.37 316.91 284.359 264.404 254.803 266.903 201.844 
208.777 249.366 275.454 266.921 273.268 251.198 276.448 268.138 255.665 
223.542 190.044 174.672 177.45 184.493 181.93 191.56 220.667 494.93 
464.44 509.417 392.636 358.805 310.002 260.496 260.496 262.65 262.072 
262.072 267.401 262.294 262.294 317.234 317.234 352.901 309.426 382.451 
351.479 343.72 322.567 235.823 233.972 244.121 247.636 228.614 246.863 
213.92 237.366 259.478 248.143 246.196 249.348 275.756 299.607 333.172 
325.779 343.324 271.88 260.765 260.765 266.683 266.683 278.526 273.627 
288.693 283.32 317.329 334.892 363.548 389.484 389.484 365.141 365.141 
311.667 339.787 339.787 296.096 252.071 251.214 256.081 244.963 252.275 
275.73 300.224 291.054 269.891 240.13 240.13 212.712 212.712 202.094 
200.06 223.346 246.626 229.79 249.725 248.637 297.541 255.326 235.111 
211.656 254.808 231.922 246.516 273.288 261.773 312.409 291.711 272.98 
291.704 305.637 252.866 294.264 196.173 213.411 261.988 316.818 327.311 
311.376 342.319 316.921 295.575 270.643 238.153 395.519 259.721 234.653 
225.948 233.12 252.421 299.993 340.393 317.996 274.724 275.025 231.308 
227.636 224.229 251.472 288.862 316.861 313.019 305.545 294.53 301.703 
275.053 298.007 317.879 294.176 298.519 293.446 309.631 330.376 308.403 
283.837 302.337 308.117 308.909 330.236 328.684 290.397 242.132 217.51 
235.804 216.002 239.45 240.393 263.58 262.578 279.711 285.094 282.207 
282.207 294.079 277.845 277.845 290.205 315.322 322.889 356.954 345.649 
343.868 305.732 341.57 278.633 277.21 293.125 283.011 253.484 266.252 
295.128 292.773 244.854 216.753 202.878 196.329 209.404 227.533 248.256 
267.039 317.71 369.198 322.333 435.569 425.139 294.991 267.79 253.703 
245.8 296.503 358.099 346.144 377.569 492.101 401.666 382.04 408.42 
410.222 369.072 366.84 348.033 332.082 338.343 368.139 331.152 353.989 
407.954 356.501 375.282 383.767 446.189 374.766 413.482 435.334 258.36 
270.547 247.831 261.092 261.092 282.5 311.6 367.04 342.112 293.031 
295.538 319.342 340.601 349.12 371.869 311.397 305.724 278.469 256.924 
241.358 232.215 260.048 259.042 293.93 365.032 277.611 316.808 360.234 
379.458 526.969 569.774 562.73 572.797 653.403 252.21 267.208 252.755 
252.755 255.838 246.215 246.215 233.229 269.423 527.713 
FIELD FieldData 7
DY_minmax 1 565 double
0.647359 0.987653 0.611487 0.553093 0.582996 0.197922 0.122166 0.180165 0.23913 
0.52319 0.26541 0.251341 0.180951 0.173729 0.211685 0.247235 0.212579 0.293475 
0.328095 0.170609 0.158796 0.119169 0.386472 0.12006 0.141517 0.577544 0.0725157 
0.113788 0.0483847 0.225615 0.226498 0.316773 0.12097 0.315177 0.341935 0.0972115 
0.152876 0.145217 0.028703 0.0225163 0.148253 0.0705242 0.0447775 0.320776 0.273667 
0.991376 0.389461 0.532494 0.367472 0.367472 0.401073 0.501543 0.580362 0.574075 
0.706469 0.56859 0.453789 0.453789 0.391489 0.327091 0.281106 0.341461 0.263204 
0.306678 0.286146 0.24193 0.194995 0.204962 0.188687 0.108745 0.0989189 0.139743 
0.120249 0.154121 0.126483 0.160952 0.104357 0.104357 0.0383472 0.0639112 0.0737406 
0.0355886 0.0529863 0.0376293 0.0222827 0.0744164 0.0901205 0.102231 0.149542 0.141332 
0.1728 0.695588 0.622599 0.622599 0.557876 0.473765 0.400185 0.467741 0.467741 
0.554856 0.596834 0.498865 0.558261 0.601244 0.606528 0.743737 0.572572 0.514328 
0.716392 0.294186 0.401643 0.269123 0.348949 0.384612 0.26992 0.335027 0.40795 
0.552665 0.48576 0.471218 0.438685 0.365405 0.210527 0.25531 0.260821 0.343633 
0.343633 0.372097 0.405612 0.405612 0.276044 0.176142 0.12736 0.0675968 0.041091 
0.0459965 0.0966679 0.100628 0.0704425 0.0554328 0.0813381 0.044082 0.00679076 0.0402961 
0.0571528 0.0695349 0.0630992 0.0630992 0.0435784 0.0846531 0.101345 0.204276 0.232377 
0.132688 0.134227 0.164541 0.0891887 0.11627 0.18651 0.170779 0.198447 0.238108 
0.273726 0.271223 0.223073 0.269719 0.158217 0.078491 0.0858156 0.0478393 0.0370121 
0.0588713 0.0944084 0.0732124 0.120355 0.179704 0.166301 0.20984 0.195166 0.107417 
0.056383 0.0851609 0.0626438 0.0524962 0.0761139 0.13908 0.0871746 0.123153 0.204291 
0.117561 0.028703 0.0745089 0.0553993 0.0553993 0.0697357 0.0697357 0.037737 0.118509 
0.0412221 0.117791 0.26607 0.242341 0.353303 0.355508 0.27989 0.406826 0.407976 
0.195074 0.254783 0.179537 0.141338 0.183063 0.116459 0.150772 0.150772 0.202786 
0.261648 0.299849 0.2 0.251545 0.183585 0.231922 0.309444 0.23874 0.223812 
0.342327 0.201363 0.238472 0.224266 0.225545 0.266852 0.2281 0.19345 0.301862 
0.314223 0.343508 0.343508 0.272594 0.270726 0.270726 0.356007 0.356007 0.367833 
0.303523 0.156772 0.165084 0.216953 0.340816 0.276591 0.250192 0.0410192 0.112576 
0.112576 0.247112 0.179865 0.121199 0.160441 0.12097 0.0995859 0.0592904 0.0372743 
0.0399608 0.135165 0.229403 0.191126 0.141618 0.11462 0.15974 0.0717738 0.0760322 
0.141667 0.169951 0.196199 0.268437 0.435572 0.296324 0.301498 0.335102 0.177727 
0.157826 0.115583 0.298075 0.297114 0.22912 0.187438 0.167382 0.192657 0.0567583 
0.0712413 0.156026 0.210519 0.192694 0.205952 0.159852 0.212595 0.195237 0.169183 
0.102082 0.0321091 0 0.00580295 0.0205141 0.0151612 0.0352763 0.096077 0.668973 
0.605283 0.699234 0.455296 0.384626 0.282684 0.179273 0.179273 0.183774 0.182566 
0.182566 0.193697 0.183029 0.183029 0.29779 0.29779 0.372295 0.281482 0.434019 
0.369323 0.353116 0.308931 0.127736 0.123868 0.145068 0.152412 0.112676 0.150796 
0.081983 0.13096 0.177147 0.153471 0.149403 0.155988 0.21115 0.260972 0.331084 
0.315641 0.352288 0.203052 0.179836 0.179836 0.192198 0.192198 0.216935 0.206703 
0.238173 0.22695 0.297989 0.334676 0.394535 0.448711 0.448711 0.397863 0.397863 
0.286162 0.344901 0.344901 0.253636 0.161674 0.159885 0.170051 0.146828 0.162101 
0.211096 0.262259 0.243105 0.198899 0.136732 0.136732 0.0794607 0.0794607 0.0572806 
0.0530311 0.101673 0.150302 0.115133 0.156775 0.154502 0.256655 0.168474 0.126249 
0.0772537 0.167392 0.119587 0.150071 0.205994 0.181941 0.287712 0.244476 0.205352 
0.244462 0.273568 0.163336 0.249811 0.0449129 0.0809194 0.18239 0.296923 0.31884 
0.285554 0.350189 0.297138 0.252548 0.200469 0.132603 0.461317 0.177654 0.125291 
0.107108 0.12209 0.162405 0.261778 0.346167 0.299382 0.208994 0.209622 0.118304 
0.110635 0.103517 0.160424 0.238526 0.297011 0.288987 0.273375 0.250366 0.265349 
0.209682 0.257628 0.299139 0.249626 0.258697 0.248101 0.281909 0.325242 0.279344 
0.228031 0.266674 0.278747 0.280401 0.324951 0.321709 0.241732 0.140915 0.0894816 
0.127697 0.0863333 0.135313 0.137282 0.185715 0.183622 0.219412 0.230655 0.224626 
0.224626 0.249425 0.215513 0.215513 0.241331 0.293797 0.309604 0.380761 0.357145 
0.353427 0.273765 0.348626 0.217159 0.214187 0.24743 0.226305 0.164627 0.191298 
0.251615 0.246696 0.146601 0.0879016 0.0589172 0.0452389 0.0725505 0.110418 0.153707 
0.192941 0.298785 0.406336 0.308442 0.544975 0.52319 0.25133 0.194509 0.165084 
0.148577 0.254488 0.383152 0.35818 0.423822 0.663063 0.474158 0.43316 0.488265 
0.49203 0.406072 0.40141 0.362126 0.328807 0.341885 0.404125 0.326864 0.374567 
0.487291 0.379814 0.419046 0.436768 0.56716 0.417967 0.498838 0.544484 0.174812 
0.200269 0.152818 0.180519 0.180519 0.225236 0.286023 0.401829 0.349757 0.247235 
0.252471 0.302194 0.346602 0.364397 0.411916 0.285598 0.273749 0.216817 0.171813 
0.139298 0.120199 0.178338 0.176236 0.249113 0.397634 0.215024 0.296901 0.387612 
0.427769 0.735898 0.825311 0.810597 0.831625 1 0.161965 0.193295 0.163103 
0.163103 0.169544 0.149443 0.149443 0.122318 0.197922 0.73745 
WidthEq 1 565 double
2.57786 1.4418 3.70815 4.53099 4.00416 4.07565 5.44054 5.88787 5.72309 
4.03514 3.70639 4.9575 6.30709 4.40801 8.3065 7.94997 5.36976 5.74607 
5.28465 6.95947 6.46979 6.50157 6.60966 6.98413 7.31088 3.12303 6.97084 
6.57483 7.94644 3.68942 6.20853 4.14915 5.95744 1 4.61138 6.86427 
7.70192 4.02842 5.82782 7.91009 7.64964 6.03767 9.0126 3.60823 2.21812 
1.25181 4.1847 3.35186 2.41485 2.41485 2.85097 2.98403 2.92791 3.26226 
2.94664 3.3272 3.62664 3.62664 4.31433 4.38759 4.67086 4.81202 5.06943 
4.79064 5.13557 5.4471 5.90148 5.80452 5.92782 6.47747 6.46202 6.28828 
6.26474 6.05985 6.46202 6.25281 6.5794 6.5794 6.62528 6.57187 6.12598 
6.43264 6.45185 6.59941 6.62664 6.47315 6.33135 6.42783 6.27435 7.06868 
6.80831 2.41212 2.88219 2.88219 3.51055 3.89687 4.00512 3.60855 3.60855 
3.24041 3.18044 3.46659 3.3308 3.14337 3.07307 2.60805 2.70965 2.81558 
2.33598 3.89022 3.59093 4.3731 3.72457 3.58989 2.56137 2.99725 3.65523 
3.4501 4.02545 4.1582 4.39448 4.70561 5.92318 5.30122 5.04277 4.67046 
4.67046 4.7177 4.68392 4.68392 5.72173 6.89165 7.48126 8.12387 8.64334 
8.7885 7.60216 7.22529 7.89264 8.30258 7.52281 7.00199 7.54611 6.96508 
8.24597 8.92341 9.19675 9.19675 8.97457 8.53677 7.97399 6.99622 7.00895 
7.65821 7.9181 7.82514 8.17519 7.67726 6.96387 7.21656 5.95873 5.07344 
4.72203 4.23739 4.14883 4.34219 4.9137 6.79774 9.01036 9.95058 9.62399 
7.94012 5.93927 7.93371 7.5739 6.20133 5.35983 4.80417 4.74669 5.11251 
5.70868 5.21579 5.84495 6.97228 6.83817 6.35089 7.31464 6.85122 6.02078 
6.75346 5.82782 6.7055 7.34635 7.34635 6.90334 6.90334 6.88405 5.60564 
5.51796 4.55413 3.99839 3.9879 3.87781 4.07509 4.40585 4.18246 4.3976 
5.26295 5.36928 6.01525 6.10757 5.96929 6.28604 6.04808 6.04808 5.67737 
5.5588 5.51572 6.15265 5.87618 6.17066 6.15104 5.7998 6.45393 6.64137 
6.2207 6.98189 6.91055 7.00351 6.6746 6.48004 6.63897 6.22479 5.6331 
5.46784 5.35111 5.35111 5.4122 5.41204 5.41204 5.20234 5.20234 5.31828 
5.99572 8.04124 7.35315 6.52335 5.74375 6.0918 6.14592 8.64646 8.0679 
8.0679 5.96281 1.48232 2.34014 3.15057 5.95744 6.44721 6.88045 7.33458 
7.67718 6.16426 4.98184 5.0105 6.80518 8.34557 8.10393 9.43527 9.05087 
8.41587 5.7114 4.73035 4.1265 3.41951 3.39677 3.66676 3.90287 5.39602 
5.90132 6.75122 3.99807 4.41898 4.86631 5.49634 6.19948 6.26874 7.35948 
6.24472 4.92796 4.50833 4.66662 4.8298 4.90097 4.94237 5.15935 5.4917 
5.91101 6.24192 6.78413 6.97428 7.12064 7.67606 8.04661 7.51529 2.90949 
3.06874 3.04585 3.87653 4.151 4.7579 5.45183 5.45183 5.03981 5.04333 
5.04333 4.43819 4.28279 4.28279 3.62136 3.62136 3.72392 4.0586 3.85916 
4.49736 5.33829 6.50822 6.47467 6.99942 7.16972 6.92296 6.68621 6.12638 
5.77706 5.44895 4.67607 4.4205 4.2096 4.12241 3.83033 3.72657 3.85091 
4.09543 4.0132 4.55333 4.73724 4.73724 4.74877 4.74877 4.50801 3.89847 