# vtk DataFile Version 3.0
vtk output
ASCII
DATASET POLYDATA
POINTS 462 float
0.825284 0.558459 1.18321 0.347336 0.953447 0.937094 0.513776 0.207706 0.988949 
0.740772 -0.0602516 1.01534 1.19358 0.136106 1.02472 1.37838 1.09977 0.775698 
0.53866 -0.519461 0.498302 1.27988 -1.05721 0.698217 -0.291568 1.16725 -0.10802 
-0.181724 1.17048 -0.103115 2.87015 0.424078 -0.117938 5.99922 0.570793 0.0185289 
0.107631 -0.767503 -0.376129 2.77248 0.299292 -0.315648 5.51422 0.145278 -0.293964 
5.84517 0.499276 -0.184949 5.88409 0.173083 -0.431262 6.10392 0.120057 -0.494683 
-0.0275658 0.852084 -0.87938 4.17864 -0.232841 -0.620057 4.49209 0.380511 -0.641816 
5.75821 0.307806 -0.578781 6.57862 0.448255 -0.9056 6.50776 -0.670901 -0.686655 
3.83051 -0.248897 -1.03638 3.27711 -0.46028 -1.25011 0.565133 -1.48561 -1.5158 
3.02914 -0.365108 -1.61823 3.55659 -0.299386 -1.44723 3.6562 0.0879992 -1.46554 
3.83314 -0.0287311 -1.65099 4.17094 0.341493 -2.05836 4.30611 -0.270773 -2.21642 
6.72705 -0.364525 -2.09857 6.77752 -0.357231 -2.00009 6.82764 -0.34939 -1.89423 
6.8776 -0.339626 -1.7885 6.92611 -0.318897 -1.69833 6.9644 -0.272318 -1.62503 
6.98372 -0.21484 -1.56068 6.99395 -0.155255 -1.48945 6.95908 -0.0955409 -1.39804 
6.90085 -0.0348333 -1.27804 6.83822 0.0247123 -1.14334 6.77672 0.0710469 -1.03008 
6.71801 0.0876267 -0.959502 6.66137 0.0882014 -0.925018 6.60545 0.0745193 -0.897089 
6.54967 0.0345827 -0.852747 6.49569 -0.0167562 -0.800207 6.45218 -0.0701627 -0.754499 
6.42676 -0.124491 -0.73018 6.39892 -0.179783 -0.720769 6.3903 -0.234959 -0.717903 
6.40173 -0.289548 -0.714142 6.43023 -0.343635 -0.709619 6.44553 -0.39811 -0.705685 
6.46083 -0.452584 -0.701752 6.48944 -0.506668 -0.697224 6.5028 -0.5612 -0.693377 
6.50619 -0.616024 -0.689975 4.25251 -0.272097 -2.24854 4.19761 -0.262251 -2.2591 
4.14094 -0.23543 -2.24102 4.08393 -0.220916 -2.20739 4.02551 -0.202727 -2.14432 
3.96435 -0.156731 -2.03845 3.8998 -0.0950051 -1.86682 4.22586 0.343214 -2.05591 
4.28072 0.346861 -2.05358 4.33562 0.361865 -2.05935 4.39053 0.401179 -2.08142 
4.44642 0.440899 -2.12574 4.50311 0.463248 -2.17644 4.55963 0.479379 -2.21934 
4.61598 0.464672 -2.23814 4.67151 0.455987 -2.24248 4.72643 0.457708 -2.24003 
4.78103 0.471103 -2.23829 4.83523 0.499735 -2.23747 4.88984 0.513241 -2.23574 
4.94471 0.516778 -2.2334 4.99963 0.518498 -2.23096 5.05455 0.52011 -2.2285 
5.10947 0.521721 -2.22605 5.16474 0.522785 -2.23098 5.22074 0.521159 -2.25057 
5.27769 0.50869 -2.28433 5.3347 0.481531 -2.3098 5.38994 0.471248 -2.30663 
5.44389 0.472246 -2.28189 5.49813 0.474621 -2.26466 5.55408 0.474921 -2.28437 
5.61105 0.473909 -2.32624 5.66803 0.472897 -2.3681 5.72432 0.47276 -2.3952 
5.78062 0.472622 -2.42229 5.83759 0.471611 -2.46416 5.89491 0.470162 -2.51341 
5.95155 0.469697 -2.5479 6.00642 0.473234 -2.54556 6.05931 0.488925 -2.5069 
6.11077 0.521054 -2.44698 6.16229 0.538604 -2.37878 6.21402 0.548001 -2.31008 
6.26554 0.56555 -2.24188 6.31666 0.598116 -2.17457 6.36784 0.615993 -2.09898 
6.41894 0.624339 -2.01538 6.46941 0.631633 -1.91691 6.51958 0.637329 -1.81092 
6.56894 0.632438 -1.68206 6.61561 0.602106 -1.5221 6.647 0.55995 -1.32502 
6.63686 0.507832 -1.10699 3.82714 -0.11213 -1.44576 3.82458 -0.178112 -1.24141 
3.11402 -0.412544 -1.59849 3.17744 -0.436427 -1.53656 3.22919 -0.457442 -1.41407 
2.94248 -0.327941 -1.71545 2.90147 -0.282259 -1.7962 2.86911 -0.232372 -1.86008 
2.84381 -0.181016 -1.91071 2.80377 -0.130398 -1.96756 2.76372 -0.0797795 -2.02442 
2.73847 -0.0282799 -2.07321 2.70703 0.0243795 -2.10007 2.68223 0.0776809 -2.11923 
2.65079 0.13034 -2.14609 2.62554 0.18184 -2.19487 2.5855 0.232458 -2.25173 
2.54511 0.283514 -2.30119 2.51883 0.336325 -2.32782 2.4866 0.389855 -2.33992 
2.45884 0.444412 -2.337 2.41344 0.499345 -2.32008 2.35693 0.555183 -2.28144 
2.29831 0.609591 -2.23537 2.24019 0.653479 -2.1961 2.18355 0.679013 -2.17795 
2.12786 0.706448 -2.18216 2.0733 0.716077 -2.20011 2.0193 0.717006 -2.22495 
1.96475 0.726534 -2.24291 1.90979 0.75106 -2.26176 1.85523 0.760578 -2.27972 
1.80089 0.761945 -2.29717 1.74531 0.772884 -2.29298 1.68824 0.801969 -2.26763 
1.63132 0.825894 -2.24198 1.57563 0.85323 -2.24618 1.52175 0.861984 -2.27891 
1.4681 0.862476 -2.31114 1.41286 0.872878 -2.31432 1.35584 0.900027 -2.28885 
1.29889 0.912606 -2.2551 1.24284 0.916158 -2.23562 1.18691 0.927425 -2.22402 
1.13024 0.954036 -2.20594 1.073 0.965126 -2.16469 1.01555 0.95897 -2.10756 
0.957945 0.946286 -2.04263 0.899537 0.963726 -1.97951 0.841608 0.97558 -1.92347 
0.784237 0.978955 -1.87434 0.727208 0.981892 -1.83259 0.669622 0.99331 -1.78394 
0.611556 1.01031 -1.72821 0.553611 0.997956 -1.65588 0.494843 0.991623 -1.56909 
0.434833 0.994643 -1.46063 0.374144 0.998318 -1.33739 0.313423 0.990746 -1.20604 
0.253715 0.957551 -1.08057 0.195085 0.921229 -0.977136 0.137765 0.897818 -0.911561 
0.082246 0.868909 -0.882712 0.0273019 0.855731 -0.87705 2.94666 -0.439344 -1.73838 
2.90865 -0.504067 -1.85702 2.86899 -0.553093 -1.95995 2.8198 -0.575018 -2.03708 
2.76776 -0.593625 -2.09039 2.71596 -0.625517 -2.1429 2.66381 -0.644019 -2.19623 
2.61165 -0.66252 -2.24955 2.55951 -0.693974 -2.29467 2.50736 -0.712585 -2.34799 
2.45526 -0.733012 -2.4012 2.40377 -0.776699 -2.453 2.3516 -0.81951 -2.49003 
2.29882 -0.839063 -2.52846 2.24564 -0.856362 -2.55962 2.19315 -0.88728 -2.59736 
2.13992 -0.902644 -2.62864 2.08647 -0.909855 -2.6604 2.03256 -0.924454 -2.6769 
1.97841 -0.955112 -2.67759 1.92314 -0.981135 -2.65633 1.86725 -1.02096 -2.612 
1.81132 -1.05908 -2.56777 1.75545 -1.0747 -2.53972 1.7009 -1.09035 -2.54132 
1.64641 -1.12068 -2.53463 1.59081 -1.14637 -2.50597 1.53394 -1.18682 -2.43937 
1.47729 -1.23552 -2.37225 1.42077 -1.2765 -2.31302 1.36454 -1.30326 -2.26948 
1.30831 -1.34275 -2.21776 1.25168 -1.37999 -2.15875 1.1941 -1.39342 -2.09377 
1.13647 -1.40514 -2.02889 1.07924 -1.43187 -1.96312 1.02186 -1.45334 -1.89765 
0.964288 -1.47953 -1.82449 0.905916 -1.48833 -1.74496 0.846934 -1.48662 -1.65866 
0.788589 -1.48397 -1.58724 0.731269 -1.48252 -1.53799 0.675319 -1.48282 -1.51828 
0.620055 -1.484 -1.51334 3.73291 0.0295126 -1.55509 3.83704 0.0750806 -1.49353 
3.85847 0.152076 -1.37081 3.87744 0.214064 -1.29932 3.90561 0.271713 -1.27171 
3.92976 0.327792 -1.26647 3.97121 0.383822 -1.26787 4.02245 0.438659 -1.26131 
4.0748 0.482856 -1.23178 4.12598 0.500732 -1.15618 4.17574 0.497554 -1.03483 
4.22518 0.468665 -0.889692 4.27566 0.438366 -0.766703 4.32752 0.430408 -0.689547 
4.38118 0.429697 -0.657302 4.43613 0.417806 -0.646619 3.60397 -0.288268 -1.28227 
3.65316 -0.28101 -1.15413 3.70558 -0.284187 -1.07724 3.76397 -0.289374 -1.04451 
3.08587 -0.267348 -1.42268 3.10045 -0.191448 -1.2575 3.0943 -0.127127 -1.12788 
3.07335 -0.0652483 -1.0081 3.02508 -0.00413798 -0.887667 2.96491 0.0566227 -0.767769 
2.90327 0.116892 -0.655351 2.84378 0.176779 -0.55022 2.79575 0.237448 -0.437194 
3.90731 -0.267197 -0.927746 3.96819 -0.29169 -0.834332 4.02133 -0.296314 -0.757304 
4.07331 -0.281276 -0.696355 4.12546 -0.250031 -0.65122 6.49228 0.417694 -0.744366 
6.42175 0.388841 -0.641938 6.36478 0.364685 -0.583723 6.32177 0.321964 -0.560908 
6.2949 0.270554 -0.551681 6.25273 0.226804 -0.543617 6.20073 0.197583 -0.529447 
6.15105 0.153538 -0.506863 5.8172 0.247904 -0.508118 5.7035 0.279468 -0.569032 
5.64612 0.277365 -0.529119 5.58409 0.234381 -0.433944 5.80473 0.370355 -0.476332 
5.83818 0.43431 -0.344849 4.48921 0.331317 -0.542466 4.48951 0.280427 -0.472592 
4.50162 0.227648 -0.439193 4.53146 0.174494 -0.419801 4.55775 0.121684 -0.393174 
4.59996 0.0706816 -0.343632 4.65009 0.0203593 -0.286322 4.69206 -0.0300924 -0.229393 
4.71929 -0.0794968 -0.180641 4.761 -0.116226 -0.124536 4.81202 -0.127476 -0.0694968 
4.86481 -0.136848 -0.0144972 4.91845 -0.161671 0.0340255 4.9716 -0.180788 0.0896192 
5.0249 -0.204953 0.145528 5.07803 -0.210798 0.192904 5.132 -0.198234 0.209526 
5.18683 -0.16856 0.195451 5.24312 -0.143738 0.152028 5.29965 -0.102857 0.0928033 
5.35645 -0.0542026 0.0214588 5.41342 -0.0108841 -0.0622984 5.46781 0.0378626 -0.167716 
4.54081 0.440977 -0.539141 4.59053 0.488885 -0.45053 4.6416 0.510734 -0.375164 
4.69341 0.529781 -0.314461 4.74555 0.561136 -0.269332 4.79913 0.575953 -0.245441 
4.85366 0.579927 -0.235716 4.90857 0.581758 -0.233277 4.96344 0.585295 -0.230941 
5.01805 0.5988 -0.229207 5.07191 0.627759 -0.220992 5.12554 0.64065 -0.196984 
5.17901 0.634479 -0.156994 5.23328 0.610927 -0.123369 5.28818 0.601081 -0.112819 
5.34349 0.60033 -0.11763 5.39841 0.601941 -0.115177 5.4526 0.606352 -0.0980729 
5.50652 0.620632 -0.0815547 5.56009 0.648193 -0.0658493 5.61433 0.650578 -0.0486125 
5.66929 0.625943 -0.0297535 5.72558 0.600956 -0.0405151 5.78439 0.556193 -0.0945656 
6.03867 0.150195 -0.487108 5.96764 0.182227 -0.470016 5.81167 0.113399 -0.294896 
5.7486 0.0721675 -0.195631 5.68893 0.0618296 -0.160291 5.6172 0.0812012 -0.200495 
5.8946 0.545476 -0.0888188 5.94607 0.564851 -0.0207295 2.71033 0.357848 -0.195711 
2.64918 0.403744 -0.0898404 2.58977 0.421309 -0.00449468 2.53137 0.426105 0.0667915 
2.47302 0.428974 0.138194 2.41433 0.432172 0.217002 2.35529 0.435806 0.30318 
2.29695 0.438458 0.374606 2.23934 0.438418 0.431363 2.18268 0.427535 0.473944 
2.12608 0.401963 0.524828 2.06907 0.391518 0.574808 2.01215 0.390604 0.616787 
1.9562 0.390194 0.636499 1.90094 0.38891 0.641442 1.84572 0.385811 0.646496 
1.7901 0.373507 0.666926 1.73389 0.345572 0.710537 1.67686 0.32356 0.768622 
1.61968 0.294901 0.834524 1.56236 0.2714 0.900114 1.50579 0.232445 0.959223 
1.44985 0.194442 1.00344 1.3942 0.18024 1.02398 1.33767 0.175634 1.02907 
1.27377 0.164422 1.02676 2.82114 0.361903 -0.213104 0.15498 -0.705288 -0.243908 
0.202641 -0.654757 -0.110972 0.250972 -0.629412 0.0234767 0.299698 -0.60643 0.150662 
0.348712 -0.570962 0.264738 0.400431 -0.551338 0.357583 0.460978 -0.538549 0.433924 
-0.236646 1.16887 -0.105567 -0.11901 1.21505 -0.303409 -0.0569325 1.25869 -0.488824 
0.00335752 1.29487 -0.629306 0.0599862 1.31936 -0.680125 0.112024 1.35469 -0.635226 
0.161121 1.38858 -0.523531 0.20952 1.4362 -0.405249 0.259215 1.47254 -0.308533 
0.310405 1.47756 -0.224746 0.360811 1.49954 -0.134567 0.410354 1.50428 -0.013695 
0.459808 1.47507 0.131465 0.509281 1.43269 0.284836 0.560179 1.38653 0.408784 
0.613134 1.33774 0.488407 0.668092 1.28825 0.523599 0.724107 1.24881 0.528531 
0.780137 1.23368 0.517174 0.836458 1.22004 0.498311 0.892104 1.19443 0.502408 
0.946024 1.18396 0.535242 0.998573 1.17524 0.597613 1.05182 1.15269 0.653424 
1.10574 1.14222 0.686259 1.16035 1.13088 0.704315 1.2153 1.10624 0.723184 
1.26951 1.09727 0.748512 1.3238 1.09783 0.765849 -0.134675 1.14455 0.0937356 
-0.0872624 1.14227 0.266921 -0.0384028 1.14779 0.402577 0.0123868 1.14297 0.50178 
0.0646558 1.11991 0.579859 0.11718 1.09973 0.650338 0.170148 1.06429 0.721751 
0.223777 1.02812 0.793237 0.281088 1.00154 0.864316 0.608818 -0.585905 0.495581 
0.669937 -0.643639 0.501833 0.727132 -0.697713 0.505209 0.783903 -0.751607 0.501124 
0.839387 -0.806244 0.484649 0.884543 -0.860737 0.475117 0.914238 -0.915237 0.472289 
0.958373 -0.968308 0.484908 1.01175 -1.01829 0.512625 1.06559 -1.05501 0.561861 
1.11849 -1.06427 0.616869 1.17141 -1.06207 0.663759 1.2253 -1.05925 0.688376 
0.559302 -0.430068 0.625199 0.596565 -0.358564 0.726688 0.633649 -0.297319 0.789165 
0.656469 -0.239569 0.821474 0.68441 -0.18159 0.856483 0.705707 -0.122017 0.920793 
1.12712 0.0802019 1.02495 1.06839 0.0481212 1.02412 1.01358 0.016765 1.02343 
0.958946 0.0029993 1.02171 0.904127 -0.00246345 1.01949 0.849525 -0.0160786 1.01777 
0.795326 -0.0448103 1.01695 1.15938 0.220015 1.08503 1.10924 0.286272 1.13821 
1.05212 0.343561 1.17673 0.994777 0.398214 1.19312 0.938051 0.45192 1.19474 
0.881667 0.50519 1.18897 0.698229 -0.0065764 1.01019 0.668977 0.0474892 1.00563 
0.624507 0.101108 1.00039 0.57005 0.154434 0.994712 0.457393 0.260976 0.983181 
0.401009 0.314245 0.977413 0.344736 0.367518 0.97165 0.290389 0.420847 0.965972 
0.247946 0.474525 0.960827 0.232543 0.528997 0.956889 0.228802 0.584257 0.960876 
0.228249 0.640506 0.979804 0.238915 0.697979 1.01404 0.275055 0.755821 1.04201 
0.31317 0.813221 1.04038 0.331629 0.875677 1.0004 0.564838 0.267258 1.03979 
0.616927 0.325498 1.06847 0.670387 0.38199 1.06761 0.723504 0.438919 1.07413 
0.77525 0.497596 1.11021 0.427929 0.966746 0.940045 0.492272 0.961343 0.94335 
0.549257 0.936552 0.94746 0.604276 0.924703 0.958145 0.658592 0.91176 0.983713 
0.712441 0.874939 1.03296 0.764445 0.82671 1.09023 0.806757 0.77582 1.13977 
0.832934 0.723006 1.16639 0.861085 0.669356 1.1783 0.860719 0.614422 1.18154 

LINES 33 529
29 33 34 35 36 37 38 39 40 41 42 43 44 45 46 47 48 49 50 51 52 53 54 55 56 57 58 59 60 23 
9 32 61 62 63 64 65 66 67 30 
4 30 115 116 24 
5 27 117 118 119 25 
61 27 120 121 122 123 124 125 126 127 128 129 130 131 132 133 134 135 136 137 138 139 140 141 142 143 144 145 146 147 148 149 150 151 152 153 154 155 156 157 158 159 160 161 162 163 164 165 166 167 168 169 170 171 172 173 174 175 176 177 178 18 
46 27 179 180 181 182 183 184 185 186 187 188 189 190 191 192 193 194 195 196 197 198 199 200 201 202 203 204 205 206 207 208 209 210 211 212 213 214 215 216 217 218 219 220 221 222 26 
3 30 223 29 
17 30 224 225 226 227 228 229 230 231 232 233 234 235 236 237 238 20 
6 28 239 240 241 242 24 
11 27 243 244 245 246 247 248 249 250 251 13 
7 24 252 253 254 255 256 19 
3 16 265 21 
5 21 266 267 268 14 
4 21 269 270 15 
25 20 271 272 273 274 275 276 277 278 279 280 281 282 283 284 285 286 287 288 289 290 291 292 293 14 
26 20 294 295 296 297 298 299 300 301 302 303 304 305 306 307 308 309 310 311 312 313 314 315 316 317 15 
6 16 320 321 322 323 14 
4 15 324 325 11 
28 13 326 327 328 329 330 331 332 333 334 335 336 337 338 339 340 341 342 343 344 345 346 347 348 349 350 351 4 
3 13 352 10 
9 12 353 354 355 356 357 358 359 6 
3 9 360 8 
30 9 361 362 363 364 365 366 367 368 369 370 371 372 373 374 375 376 377 378 379 380 381 382 383 384 385 386 387 388 5 
11 9 389 390 391 392 393 394 395 396 397 1 
15 6 398 399 400 401 402 403 404 405 406 407 408 409 410 7 
8 6 411 412 413 414 415 416 3 
9 4 417 418 419 420 421 422 423 3 
8 4 424 425 426 427 428 429 0 
6 3 430 431 432 433 2 
14 2 434 435 436 437 438 439 440 441 442 443 444 445 1 
7 2 446 447 448 449 450 0 
13 1 451 452 453 454 455 456 457 458 459 460 461 0 
61 31 68 69 70 71 72 73 74 75 76 77 78 79 80 81 82 83 84 85 86 87 88 89 90 91 92 93 94 95 96 97 98 99 100 101 102 103 104 105 106 107 108 109 110 111 112 113 114 22 257 258 259 260 261 262 263 264 17 318 319 16 

POINT_DATA 462
SCALARS DY_raw double
LOOKUP_TABLE default
435.291 367.224 411.752 409.24 315.712 352.881 294.341 289.741 430.282 
384.14 383.749 474.474 446.455 355.215 481.821 458.325 438.335 423.435 
369.08 360.087 287.37 425.652 326.599 338.336 372.592 493.656 417.687 
383.865 449.716 537.061 459.38 411.23 369.373 345.282 395.401 403.988 
378.699 346.829 361.825 343.905 357.378 397.754 428.168 476.549 489.702 
496.361 506.035 517.797 460.701 445.234 480.406 519.215 519.215 473.855 
425.038 425.038 345.743 327.188 327.188 333.382 338.336 370.991 370.991 
337.862 375.193 384.826 385.441 398.699 460.498 452.355 391.991 408.533 
338.684 343.814 330.314 289.266 288.697 288.697 299.696 299.696 322.209 
327.168 327.168 344.81 384.947 384.947 400.168 405.022 414.818 414.818 
411.368 441.964 458.982 468.109 499.632 492.279 476.346 461.86 433.051 
430.642 430.642 380.807 370.126 416.342 469.026 394.341 371.887 439.093 
423.688 396.077 445.236 417.805 413.783 407.681 377.799 419.984 349.03 
363.126 360.679 419.42 413.599 463.889 429.027 426.395 384.418 368.011 
360.033 374.521 403.405 383.843 439.503 434.018 391.714 345.616 336.438 
336.478 310.866 313.606 301.781 277.888 305.801 329.235 339.629 354.311 
359.086 359.086 328.771 385.615 385.615 406.809 419.265 419.265 372.204 
363.881 363.881 339.252 327.114 385.067 354.37 354.37 358.021 315.448 
361.074 360.597 321.394 325.065 322.253 329.825 331.904 341.272 344.568 
367.216 354.109 386.237 364.956 375.579 349.364 362.982 362.982 396.748 
394.008 366.713 364.028 372.851 386.931 350.162 377.993 363.162 369.32 
434.822 374.141 383.079 412.527 374.405 377.302 383.235 336.729 379.258 
379.258 400.253 451.969 391.849 401.706 395.664 395.664 413.722 387.333 
392.759 391.069 373.551 378.659 385.231 393.156 369.268 407.986 416.068 
420.168 398.357 427.5 420.601 397.959 402.552 402.552 493.704 449.754 
442.566 407.074 444.812 420.946 380.898 367.423 394.674 378.334 420.332 
435.283 382.531 480.183 343.429 287.37 566.789 518.11 470.683 413.938 
409.987 379.275 412.614 431.063 394.35 420.055 407.39 378.24 379.587 
320.521 319.653 328.81 341.887 341.059 351.208 429.995 449.49 446.492 
463.131 483.008 434.749 427.747 450.488 447.464 460.24 478.194 468.941 
473.57 301.778 351.215 372.447 440.68 425.544 392.511 436.399 436.752 
449.294 437.656 446.516 465.773 503.758 454.913 467.951 467.951 514.439 
470.872 523.774 561.639 503.563 519.747 500.493 264.794 304.978 331.205 
324.182 350.165 322.381 316.971 344.315 349.475 368.055 368.055 392.69 
442.383 438.248 468.207 424.403 417.426 443.927 443.927 486.44 513.446 
513.446 513.138 487.741 425.761 434.691 439.912 460.435 527.147 505.991 
461.375 473.188 383.84 399.378 413.086 428.584 362.451 399.222 361.132 
343.51 362.301 367.137 346.473 354.218 337.006 371.65 324.023 340.653 
340.653 380.538 359.222 399.199 347.048 377.541 348.698 336.94 298.829 
311.124 389.259 350.757 366.981 397.305 384.848 373.931 345.92 323.892 
387.869 381.101 410.554 335.914 326.736 324.042 372.301 414.585 379.707 
376.923 391.074 332.683 314.234 324.362 352.513 374.869 407.427 388.83 
370.958 360.91 360.91 386.653 421.365 437.206 402.74 392.19 384.926 
335.854 335.854 359.807 389.103 369.722 420.458 413.02 399.723 402.362 
400.435 373.842 269.501 264.207 269.513 277.601 325.464 293.042 287.5 
276.079 293.652 301.294 320.367 298.881 323.126 322.082 405.393 365.928 
354.215 354.215 355.868 318.316 325.776 342.3 357.801 347.618 347.618 
356.588 378.654 398.813 411.351 412.338 401.72 432.932 403.498 417.348 
447.76 438.647 411.752 415.091 400.306 398.232 393.862 393.762 393.762 
429.382 429.382 416.299 419.51 369.783 418.723 418.526 408.022 408.022 
418.611 353.607 350.55 328.438 311.731 324.011 337.074 395.657 426.625 
429.424 429.424 435.291 
FIELD FieldData 7
DY_minmax 1 462 double
0.565415 0.34046 0.48762 0.479319 0.170218 0.293059 0.0995888 0.0843868 0.548861 
0.396366 0.395072 0.694908 0.602308 0.30077 0.71919 0.641537 0.575473 0.52623 
0.346594 0.316873 0.0765503 0.53356 0.2062 0.244989 0.358199 0.758304 0.507236 
0.395458 0.613086 0.901754 0.645025 0.485894 0.347562 0.267942 0.433581 0.461961 
0.378382 0.273056 0.322618 0.263393 0.307919 0.441358 0.541873 0.701767 0.745235 
0.767244 0.799214 0.838086 0.64939 0.598276 0.714513 0.842774 0.842774 0.692864 
0.531529 0.531529 0.269467 0.208147 0.208147 0.228615 0.244989 0.35291 0.35291 
0.243422 0.366798 0.398633 0.400667 0.44448 0.648719 0.621808 0.422312 0.476983 
0.246137 0.263091 0.218476 0.0828165 0.0809355 0.0809355 0.117288 0.117288 0.191689 
0.208078 0.208078 0.266383 0.399033 0.399033 0.449337 0.465379 0.497754 0.497754 
0.486352 0.587467 0.643709 0.673874 0.778054 0.753755 0.701098 0.653223 0.55801 
0.550051 0.550051 0.385351 0.35005 0.502788 0.676905 0.430079 0.355872 0.577978 
0.527066 0.435817 0.598281 0.507625 0.494333 0.474164 0.375408 0.514826 0.280331 
0.326915 0.31883 0.512963 0.493723 0.659928 0.544713 0.536012 0.397285 0.343062 
0.316695 0.364577 0.460033 0.395384 0.579334 0.561207 0.421397 0.269047 0.238714 
0.238849 0.154204 0.163257 0.124177 0.0452154 0.137464 0.214911 0.249261 0.297782 
0.313566 0.313566 0.213375 0.401239 0.401239 0.471283 0.512451 0.512451 0.356919 
0.329413 0.329413 0.248016 0.2079 0.39943 0.297977 0.297977 0.310045 0.169347 
0.320135 0.318558 0.188996 0.201129 0.191836 0.21686 0.223731 0.254691 0.265585 
0.340434 0.297117 0.403296 0.332966 0.368071 0.281435 0.32644 0.32644 0.438034 
0.428977 0.338771 0.329898 0.359057 0.405591 0.284072 0.376052 0.327036 0.347385 
0.563864 0.363319 0.392859 0.490181 0.364193 0.373765 0.393376 0.239677 0.380229 
0.380229 0.449618 0.620532 0.421843 0.454418 0.43445 0.43445 0.494131 0.406917 
0.424851 0.419264 0.361369 0.378252 0.399969 0.426163 0.347215 0.475172 0.501884 
0.515435 0.44335 0.539666 0.516865 0.442036 0.457215 0.457215 0.758463 0.613211 
0.589458 0.47216 0.596879 0.518005 0.385651 0.341119 0.431179 0.377177 0.515977 
0.565389 0.391049 0.713778 0.261821 0.0765503 1 0.839121 0.682379 0.494844 
0.481787 0.380286 0.490467 0.551442 0.430108 0.515061 0.473203 0.376866 0.381319 
0.186112 0.183242 0.213506 0.256724 0.253987 0.287529 0.54791 0.612341 0.602433 
0.657423 0.723114 0.563623 0.540482 0.61564 0.605644 0.647867 0.707204 0.676623 
0.691921 0.124168 0.287552 0.357721 0.583224 0.533202 0.424029 0.569075 0.570244 
0.611691 0.57323 0.602512 0.666152 0.791689 0.630262 0.673351 0.673351 0.826988 
0.683004 0.857841 0.98298 0.791046 0.844533 0.7809 0.00194071 0.134744 0.221422 
0.198212 0.284082 0.192257 0.174378 0.264749 0.2818 0.343206 0.343206 0.424622 
0.588851 0.575186 0.674199 0.529429 0.506373 0.593954 0.593954 0.734456 0.823707 
0.823707 0.822691 0.738757 0.533918 0.563431 0.580686 0.648512 0.868988 0.799071 
0.651618 0.690659 0.395373 0.446724 0.49203 0.543248 0.324685 0.446211 0.320327 
0.262088 0.32419 0.340173 0.27188 0.297477 0.240594 0.355086 0.197684 0.252645 
0.252645 0.38446 0.314016 0.446133 0.273782 0.374555 0.279234 0.240375 0.11442 
0.155057 0.413282 0.286037 0.339655 0.439873 0.398705 0.362627 0.270053 0.197253 
0.408689 0.386321 0.483662 0.236984 0.20665 0.197748 0.357239 0.496983 0.381714 
0.372514 0.419282 0.226304 0.165333 0.198806 0.291841 0.365726 0.473326 0.411867 
0.352801 0.319592 0.319592 0.404671 0.519389 0.571742 0.457838 0.422971 0.398964 
0.236785 0.236785 0.315948 0.412768 0.348714 0.516393 0.491811 0.447864 0.456588 
0.45022 0.362331 0.017496 0 0.0175345 0.0442649 0.202447 0.0952955 0.0769818 
0.0392346 0.0973114 0.12257 0.185604 0.114595 0.19472 0.191272 0.466604 0.336175 
0.297465 0.297465 0.30293 0.178823 0.203479 0.25809 0.309318 0.275663 0.275663 
0.305308 0.378234 0.444857 0.486296 0.489558 0.454466 0.557617 0.460342 0.506113 
0.606622 0.576506 0.48762 0.498656 0.449792 0.442937 0.428495 0.428164 0.428164 
0.545884 0.545884 0.502649 0.513258 0.348918 0.510659 0.510007 0.475293 0.475293 
0.510289 0.295456 0.285355 0.212276 0.157061 0.197644 0.240818 0.434428 0.536774 
0.546025 0.546025 0.565415 
WidthEq 1 462 double
1.54414 2.15561 1.50479 1.64314 2.00265 1.55027 2.40334 1 2.13437 
3.16806 1.57176 1.06681 1.92183 2.64024 1.69862 1.85175 2.3866 2.33547 
2.06833 2.10777 2.38498 2.30193 2.55019 1.79892 2.45336 1.49918 1.70676 
2.45904 1.40669 1.8075 2.26186 1.62333 1.73029 1.35611 1.34737 1.7277 
2.08668 2.35566 2.34774 2.20352 2.16046 1.75214 1.68717 1.59679 1.473 
1.43996 1.43075 1.39337 1.33534 1.25882 1.28571 1.16892 1.16892 1.18249 
1.28217 1.28217 1.52747 1.66819 1.66819 1.82398 1.79892 1.96835 1.96835 
2.14839 2.08405 2.05945 2.06877 2.16106 1.54652 1.53641 1.63353 1.53816 
1.70366 1.68164 1.75775 1.91181 1.91658 1.91658 1.84751 1.84751 1.67451 
1.61495 1.61495 1.58087 1.42495 1.42495 1.36063 1.29546 1.27425 1.27425 
1.2404 1.15442 1.1173 1.12459 1.10624 1.11748 1.16789 1.24217 1.41887 
1.48249 1.48249 1.62232 1.68913 1.58269 1.54668 1.88063 2.0154 1.9255 
2.10287 2.42771 2.36812 2.44298 2.50733 2.44206 2.45938 2.30652 2.34642 
2.58192 2.52571 2.14568 2.18899 1.97847 1.91149 1.90054 1.85187 1.71003 
1.74229 1.68765 1.62544 1.64119 1.56438 1.56602 1.6171 1.49901 1.4172 
1.44625 1.49778 1.5281 1.55381 1.66038 1.53577 1.69891 1.7192 1.70712 
1.75078 1.75078 1.81784 1.75505 1.75505 1.75454 1.64567 1.64567 1.60154 
1.56139 1.56139 1.50817 1.4996 1.36252 1.4192 1.4192 1.46983 1.69166 
1.67326 1.75762 2.02727 1.92316 2.14499 2.40658 2.47503 2.47905 2.45824 
2.38584 2.62801 2.67292 2.79269 2.73205 2.57992 2.35624 2.35624 2.36974 
2.29777 2.28089 2.27189 2.09878 2.02809 2.12979 1.91803 2.00608 1.90778 
1.64502 1.79521 1.79076 1.56123 1.67487 1.49663 1.40606 1.5135 1.32852 
1.32852 1.29001 1.18358 1.28606 1.26598 1.36007 1.36007 1.44667 1.55355 
1.52595 1.67812 1.87236 1.86482 1.9547 1.92639 1.98647 1.72173 1.83054 
1.81132 1.81099 1.79516 1.82351 1.87494 1.77292 1.77292 2.09514 2.49259 
2.60578 2.74383 2.66443 2.86049 3.17886 3.22574 2.99929 2.8958 2.70032 
2.35856 2.27872 1.99651 2.30711 2.38498 1.30858 1.74114 2.0431 2.31583 
2.29456 2.21744 2.22727 2.17291 2.0407 2.0181 2.00734 2.25796 2.49677 
2.73558 2.73047 2.66126 2.51563 2.18027 2.45259 2.16694 2.07471 2.04864 
1.97735 2.03487 2.16907 2.27448 2.37502 2.13899 2.01584 1.85952 1.9653 
1.85151 2.3282 2.08818 2.00823 1.77172 1.74826 1.70042 1.72854 1.66667 
1.60628 1.57083 1.50989 1.53648 1.45074 1.40304 1.4262 1.4262 1.33209 
1.37095 1.24888 1.18181 1.30381 1.33769 1.49077 2.26818 2.0048 1.92696 
1.72295 1.6163 1.54076 1.54106 1.43282 1.46022 1.4797 1.4797 1.50185 
1.44708 1.45899 1.3881 1.4884 1.53546 1.51176 1.51176 1.54075 1.49147 
1.49147 1.6442 1.78507 2.37542 2.4055 2.21504 1.99227 1.81293 1.8515 
1.7437 1.41308 2.60963 2.35952 2.15621 2.08037 1.89971 1.80699 1.82072 
1.87311 1.82205 1.77936 1.72311 1.63758 1.65045 1.54807 1.74056 1.71351 
1.71351 1.59843 1.62721 1.54708 1.62338 1.59663 1.64681 1.8043 1.92991 
1.97552 2.2986 2.93298 3.10158 2.86445 2.68434 2.53386 2.52663 2.37215 
3.01491 2.99643 2.63191 2.76062 2.62041 2.90966 2.61917 2.4814 2.84557 
3.07116 3.00872 3.17465 2.94377 2.78639 2.49957 2.21251 2.19767 2.34035 
2.17987 2.27063 2.27063 2.244 2.14021 2.0379 1.96742 2.08244 1.95326 
1.85084 1.85084 3.32284 2.80484 2.61048 2.31629 1.95625 1.84618 1.74646 
1.79547 2.01374 2.44456 2.2859 2.07323 1.90057 1.84666 1.96689 2.0592 
2.10875 2.06432 1.91252 1.81233 1.34739 1.27721 2.12468 1.84278 1.81471 
1.78514 1.78514 1.70159 1.89218 1.70366 1.66044 1.60106 1.57688 1.57688 
1.6122 1.85138 1.66818 1.51673 1.38137 1.50356 1.56743 1.64018 1.54215 
1.4602 1.42851 1.50479 1.59727 1.64337 1.59977 1.54938 1.54934 1.54934 
1.58121 1.58121 1.75979 1.80394 2.07335 1.54047 1.4477 1.4336 1.4336 
1.60426 2.22997 2.25078 2.25392 2.17316 2.08552 1.98636 1.78784 1.61641 
1.51077 1.51077 1.54414 
rRFP 1 462 double
4702.27 5677.06 4639.54 4860.1 5433.22 4712.04 6071.99 3834.81 5643.2 
7291.1 4746.3 3941.31 5304.38 6449.65 4948.54 5192.65 6045.31 5963.8 
5537.93 5600.8 6042.72 5910.32 6306.1 5108.44 6151.73 4630.6 4961.51 
6160.79 4483.15 5122.12 5846.44 4828.51 4999.02 4402.52 4388.58 4994.9 
5567.17 5995.98 5983.35 5753.44 5684.8 5033.86 4930.28 4786.21 4588.86 
4536.19 4521.51 4461.91 4369.4 4247.42 4290.28 4104.1 4104.1 4125.74 
4284.64 4284.64 4675.69 4900.02 4900.02 5148.38 5108.44 5378.54 5378.54 
5665.56 5562.98 5523.77 5538.63 5685.75 4706.07 4689.94 4844.78 4692.74 
4956.57 4921.47 5042.81 5288.4 5296.01 5296.01 5185.89 5185.89 4910.1 
4815.16 4815.16 4760.83 4512.26 4512.26 4409.72 4305.83 4272.01 4272.01 
4218.05 4080.98 4021.81 4033.43 4004.17 4022.09 4102.46 4220.88 4502.56 
4603.98 4603.98 4826.9 4933.41 4763.73 4706.31 5238.7 5453.54 5310.22 
5592.99 6110.84 6015.84 6135.19 6237.77 6133.72 6161.33 5917.64 5981.25 
6356.68 6267.07 5661.23 5730.27 5394.67 5287.89 5270.44 5192.84 4966.73 
5018.15 4931.05 4831.88 4856.99 4734.54 4737.15 4818.58 4630.32 4499.91 
4546.21 4628.37 4676.7 4717.69 4887.58 4688.93 4949 4981.35 4962.09 
5031.69 5031.69 5138.59 5038.49 5038.49 5037.68 4864.12 4864.12 4793.78 
4729.77 4729.77 4644.93 4631.27 4412.73 4503.09 4503.09 4583.81 4937.44 
4908.11 5042.59 5472.46 5306.49 5660.14 6077.16 6186.27 6192.69 6159.51 
6044.1 6430.15 6501.75 6692.69 6596.02 6353.49 5996.9 5996.9 6018.43 
5903.7 5876.78 5862.43 5586.46 5473.77 5635.9 5298.31 5438.68 5281.98 
4863.09 5102.52 5095.42 4729.52 4910.68 4626.53 4482.14 4653.43 4358.53 
4358.53 4297.14 4127.47 4290.84 4258.83 4408.83 4408.83 4546.89 4717.27 
4673.27 4915.86 5225.51 5213.49 5356.78 5311.64 5407.43 4985.38 5158.85 
5128.21 5127.68 5102.44 5147.64 5229.63 5066.98 5066.98 5580.67 6214.27 
6394.72 6614.79 6488.22 6800.77 7308.31 7383.04 7022.04 6857.07 6545.43 
6000.6 5873.32 5423.43 5918.59 6042.72 4326.75 5016.32 5497.7 5932.49 
5898.58 5775.64 5791.3 5704.64 5493.88 5457.84 5440.7 5840.23 6220.93 
6601.64 6593.49 6483.17 6251 5716.38 6150.51 5695.12 5548.09 5506.53 
5392.88 5484.59 5698.52 5866.56 6026.85 5650.57 5454.25 5205.04 5373.68 
5192.28 5952.21 5569.57 5442.12 5065.07 5027.67 4951.4 4996.23 4897.6 
4801.33 4744.81 4647.67 4690.06 4553.37 4477.33 4514.25 4514.25 4364.23 
4426.17 4231.57 4124.65 4319.14 4373.15 4617.19 5856.52 5436.65 5312.56 
4987.33 4817.3 4696.88 4697.36 4524.8 4568.49 4599.54 4599.54 4634.85 
4547.53 4566.53 4453.52 4613.41 4688.43 4650.65 4650.65 4696.86 4618.31 
4618.31 4861.78 5086.35 6027.48 6075.44 5771.8 5416.67 5130.77 5192.25 
5020.41 4493.33 6400.86 6002.14 5678.02 5557.11 5269.11 5121.3 5143.19 
5226.7 5145.31 5077.26 4987.58 4851.23 4871.74 4708.54 5015.4 4972.27 
4972.27 4788.81 4834.7 4706.95 4828.59 4785.94 4865.95 5117.01 5317.25 
5389.96 5905.02 6916.33 7185.12 6807.09 6519.95 6280.07 6268.53 6022.27 
7046.95 7017.48 6436.37 6641.56 6418.04 6879.15 6416.07 6196.43 6776.98 
7136.62 7037.07 7301.6 6933.53 6682.65 6225.4 5767.77 5744.12 5971.58 
5715.74 5860.42 5860.42 5817.98 5652.52 5489.41 5377.06 5560.41 5354.48 
5191.2 5191.2 7537.84 6712.05 6402.21 5933.21 5359.25 5183.78 5024.81 
5102.94 5450.9 6137.7 5884.77 5545.73 5270.49 5184.54 5376.21 5523.37 
5602.36 5531.53 5289.53 5129.81 4388.62 4276.74 5627.75 5178.36 5133.6 
5086.46 5086.46 4953.27 5257.11 4956.57 4887.68 4793.01 4754.46 4754.46 
4810.77 5192.06 4900.01 4658.58 4442.78 4637.58 4739.4 4855.38 4699.09 
4568.46 4517.93 4639.54 4786.96 4860.46 4790.96 4710.62 4710.56 4710.56 
4761.36 4761.36 5046.06 5116.44 5545.93 4696.42 4548.53 4526.05 4526.05 
4798.11 5795.6 5828.78 5833.78 5705.04 5565.33 5407.25 5090.77 4817.48 
4649.07 4649.07 4702.27 
rGFP 1 462 double
3110.19 3229.63 3057.64 3110.48 3070.3 2985.1 3145.44 2727.78 3356.42 
3655.02 3041.2 2944.21 3296.05 3375.89 3256.47 3286.74 3484.17 3426.96 