# vtk DataFile Version 3.0
vtk output
ASCII
DATASET POLYDATA
POINTS 378 float
1.86371 -0.560044 1.69811 3.01463 -0.433221 1.48935 0.380051 -0.64984 1.16155 
0.24632 0.570677 1.28028 1.00854 -1.08559 0.973589 2.77398 -0.437976 0.834733 
0.826034 -1.06447 0.790636 -0.259805 0.479594 0.65486 2.53485 -0.716126 0.276255 
0.588413 1.46339 0.564364 2.35072 -0.640602 0.101207 3.06108 0.101062 -0.264617 
-0.525447 0.304234 -0.106289 -0.318864 0.949641 -0.168671 0.291526 1.42717 -0.0106345 
1.74523 1.38276 -0.336788 2.73951 0.388595 -0.490631 3.44764 0.256433 -0.616392 
4.07401 0.382991 -0.577489 -0.0176536 -0.745377 -0.767532 3.61359 0.456886 -0.941313 
-0.512459 -0.0443577 -0.765789 -0.213317 0.948893 -0.65192 1.46491 -0.178146 -0.968033 
3.57882 0.619928 -1.05009 0.256904 -0.69091 -1.13209 0.805993 -0.722028 -1.18739 
1.8872 0.404998 -1.35607 0.832034 1.48691 -1.0778 1.37117 0.911346 -1.3369 
1.4703 0.724736 -1.3132 1.54113 -0.226087 -1.38767 0.368316 -0.0836694 -1.46159 
0.393728 0.897939 -1.32402 0.810509 1.62383 -1.25916 1.28433 0.445557 -1.47101 
1.36026 -0.259372 -1.57852 0.413912 1.47242 -1.44688 0.481695 1.03951 -1.51486 
0.765203 0.724727 -1.586 0.977668 0.951658 -1.57333 1.04189 0.917605 -1.48646 
1.10198 0.935542 -1.42184 1.15862 0.969892 -1.39026 1.21663 0.981185 -1.37524 
1.2859 0.966679 -1.35805 0.716135 0.726739 -1.51354 0.665992 0.743068 -1.44646 
0.614891 0.748313 -1.3959 0.561704 0.758589 -1.36696 0.506415 0.795914 -1.34901 
0.4501 0.845972 -1.33665 0.437373 0.969245 -1.4231 0.481782 1.40285 -1.33535 
0.548184 1.33921 -1.23787 0.611173 1.30331 -1.16617 0.669852 1.32513 -1.1159 
0.725119 1.37469 -1.09141 0.778918 1.43018 -1.08097 1.4008 0.663711 -1.38057 
1.35114 0.608967 -1.42886 1.32454 0.555541 -1.45405 1.2966 0.500552 -1.46431 
1.43428 0.820702 -1.32185 1.41723 -0.223681 -1.54115 1.47766 -0.21701 -1.47817 
0.820933 1.55589 -1.17214 0.338568 0.909429 -1.31728 0.283636 0.934854 -1.30105 
0.23021 0.953093 -1.27096 0.178606 0.975124 -1.21796 0.128565 0.98806 -1.15137 
0.0791087 1.00303 -1.07703 0.0305058 0.989524 -1.00683 -0.0177332 0.942317 -0.948978 
-0.0666524 0.896252 -0.898418 -0.116666 0.886746 -0.842546 -0.165804 0.912586 -0.759179 
0.424171 -0.12204 -1.47223 0.477711 -0.147317 -1.4808 0.519838 -0.188192 -1.49053 
0.535415 -0.240092 -1.49937 0.540993 -0.29422 -1.5076 0.554707 -0.34811 -1.51655 
0.585988 -0.402323 -1.51966 0.615309 -0.458759 -1.50788 0.662524 -0.518712 -1.46821 
0.712545 -0.582825 -1.39933 0.751913 -0.651669 -1.30009 1.84284 0.46024 -1.41546 
1.78053 0.515144 -1.45822 1.72281 0.567321 -1.45294 1.66913 0.614936 -1.40988 
1.61528 0.65971 -1.35593 1.55201 0.699132 -1.32191 1.87422 0.333372 -1.3012 
1.86287 0.270799 -1.29029 1.86102 0.216405 -1.30538 1.8582 0.165507 -1.33868 
1.84728 0.111639 -1.35286 1.82322 0.0540009 -1.34382 1.815 -0.00723973 -1.30671 
1.80486 -0.0685635 -1.26942 1.76757 -0.127724 -1.25186 1.71439 -0.17923 -1.27682 
1.65691 -0.215903 -1.32181 1.59852 -0.225795 -1.36288 1.50302 -0.202116 -1.17785 
0.896669 1.43916 -0.992918 0.95756 1.4302 -0.932219 1.01495 1.45208 -0.896844 
1.07205 1.46183 -0.87069 1.13086 1.45791 -0.831618 1.19137 1.44012 -0.779649 
1.25306 1.40439 -0.722831 1.31528 1.37273 -0.657975 1.37765 1.33595 -0.593852 
1.43884 1.31701 -0.534604 1.49726 1.31225 -0.502047 1.55761 1.313 -0.473186 
1.63438 1.33003 -0.423125 0.212038 -0.7454 -1.03677 0.163984 -0.774176 -0.928727 
0.0949364 -0.777026 -0.828809 3.5919 0.546241 -0.996689 -0.281316 0.915061 -0.815742 
-0.345823 0.876029 -0.943067 -0.403107 0.828746 -1.01213 -0.444815 0.773567 -1.02363 
-0.463653 0.712945 -0.992969 -0.474388 0.650525 -0.948268 -0.453162 0.589466 -0.906344 
-0.438884 0.528112 -0.863818 -0.441904 0.461961 -0.790319 -0.469523 0.39206 -0.669987 
-0.503786 0.337168 -0.501824 -0.527429 0.321433 -0.306523 -0.258734 0.95742 -0.411068 
-0.544227 -0.108741 -0.711913 -0.551549 -0.171013 -0.667518 -0.546537 -0.230623 -0.638907 
-0.528415 -0.288605 -0.618796 -0.484582 -0.343353 -0.615637 -0.430347 -0.395519 -0.628097 
-0.378031 -0.444559 -0.662473 -0.337579 -0.490895 -0.717902 -0.312218 -0.537871 -0.772035 
-0.269485 -0.587476 -0.804356 -0.210037 -0.642691 -0.792679 -0.131071 -0.697936 -0.766544 
3.69556 0.42236 -0.951323 3.76054 0.433512 -0.94072 3.81895 0.452289 -0.910893 
3.87694 0.47699 -0.868914 3.93941 0.478736 -0.79932 4.00971 0.452388 -0.700636 
3.55426 0.388271 -0.862949 3.50156 0.333376 -0.753178 3.3725 0.256842 -0.544261 
3.31315 0.251297 -0.48695 3.26093 0.241766 -0.440899 3.21097 0.220635 -0.389195 
3.16183 0.182224 -0.337513 3.1119 0.14815 -0.292668 0.212483 1.42561 -0.0598818 
0.150086 1.41579 -0.0667814 0.0944311 1.38836 -0.0730414 0.0363271 1.378 -0.110461 
-0.023927 1.36931 -0.173743 -0.0802681 1.33366 -0.2262 -0.122933 1.28153 -0.244711 
-0.147745 1.22397 -0.235585 -0.187386 1.16525 -0.222756 -0.236275 1.10485 -0.209298 
-0.28238 1.03605 -0.192294 4.07827 0.286257 -0.467689 4.05623 0.205767 -0.383201 
4.04816 0.140482 -0.331651 4.03896 0.0775945 -0.283415 4.00432 0.0161786 -0.236356 
3.95687 -0.0327956 -0.193864 3.90394 -0.0489931 -0.176237 3.84749 -0.0375567 -0.184411 
3.78753 0.00493737 -0.217877 3.72684 0.0504821 -0.258366 3.66604 0.0836214 -0.305615 
3.60282 0.133256 -0.365311 3.53123 0.195313 -0.470054 2.68731 0.456379 -0.53249 
2.64458 0.518791 -0.553444 2.61468 0.575044 -0.557688 2.56999 0.628201 -0.549725 
2.51825 0.679404 -0.530116 2.47781 0.728949 -0.496769 2.46363 0.777361 -0.450983 
2.44882 0.825015 -0.412765 2.4066 0.865887 -0.403027 2.35035 0.895426 -0.423661 
2.29105 0.94092 -0.449255 2.23338 0.99317 -0.451497 2.17836 1.04305 -0.424257 
2.12605 1.08889 -0.3678 2.07441 1.13367 -0.304029 2.02133 1.18045 -0.253808 
1.96115 1.23398 -0.243818 1.87634 1.29987 -0.277023 2.80953 0.334445 -0.433456 
2.87783 0.276586 -0.369134 2.94118 0.216092 -0.316009 3.002 0.157301 -0.281182 
1.75391 1.45101 -0.0487847 1.75499 1.48037 0.186084 1.7272 1.48479 0.350295 
1.68296 1.49719 0.460273 1.63535 1.49722 0.547337 1.58764 1.49715 0.634406 
1.5402 1.50911 0.73066 1.49193 1.50625 0.809868 1.44221 1.48676 0.864288 
1.3903 1.45463 0.887056 1.33726 1.43832 0.904677 1.28466 1.42905 0.930767 
1.23433 1.40857 0.977589 1.1858 1.37103 1.03684 1.13755 1.34552 1.1053 
1.08937 1.31809 1.17348 1.04125 1.26674 1.23073 0.992131 1.20589 1.27168 
0.940984 1.14805 1.29072 0.888187 1.10218 1.29658 0.834209 1.07424 1.2976 
0.780329 1.04301 1.29814 0.726 1.02676 1.30086 0.671725 1.0087 1.30331 
0.618874 0.96464 1.30944 0.567047 0.907953 1.32119 0.5159 0.850115 1.34022 
0.463107 0.804132 1.34607 0.408621 0.775231 1.33948 0.355044 0.733493 1.31596 
0.312383 0.681256 1.29744 0.285641 0.626823 1.28464 0.374458 1.44971 0.0938474 
0.448731 1.45079 0.233633 0.518881 1.44678 0.391871 -0.351237 0.853469 0.0134667 
-0.352382 0.769926 0.172602 -0.337885 0.691267 0.315333 -0.309801 0.599173 0.475543 
-0.495593 0.332165 0.0902799 -0.451992 0.363088 0.269103 -0.412799 0.397834 0.4207 
-0.349974 0.437063 0.546322 -0.497746 0.231684 0.0160465 -0.454278 0.158735 0.144381 
-0.415389 0.0845213 0.280475 -0.370567 0.00948933 0.42342 -0.342079 -0.0640968 0.553051 
-0.313233 -0.135527 0.667923 -0.263104 -0.202846 0.758882 -0.211843 -0.268935 0.842384 
-0.175814 -0.330663 0.905391 -0.126921 -0.378729 0.946604 -0.0705632 -0.408273 0.967227 
-0.0119475 -0.452618 0.985531 0.0483688 -0.507012 1.01727 0.109064 -0.552458 1.05777 
0.168581 -0.570666 1.09725 0.227753 -0.577508 1.12335 0.294954 -0.597331 1.14435 
3.01473 0.0339198 -0.194761 2.96973 -0.0353044 -0.110294 2.92744 -0.108693 0.00338253 
2.88826 -0.186901 0.15115 2.85249 -0.270748 0.342876 2.81629 -0.356416 0.574459 
2.32274 -0.586228 0.0739784 2.34368 -0.556388 0.0612699 2.36893 -0.584264 0.06998 
2.30661 -0.69618 0.20256 2.26045 -0.726727 0.292647 2.21294 -0.755194 0.368133 
2.16476 -0.804527 0.425674 2.11523 -0.851777 0.468604 2.06299 -0.872847 0.49298 
2.01001 -0.891077 0.510322 1.9581 -0.923414 0.53306 1.90776 -0.943778 0.579897 
1.85781 -0.955304 0.635486 1.80713 -0.964095 0.684005 1.75447 -0.971455 0.710373 
1.70076 -0.986725 0.720688 1.64687 -1.01775 0.721258 1.59283 -1.04366 0.72257 
1.53894 -1.07458 0.723156 1.48449 -1.08689 0.726443 1.42945 -1.07934 0.732619 
1.37391 -1.05499 0.741235 1.31881 -1.04553 0.747688 1.264 -1.04595 0.752705 
1.20993 -1.04921 0.764765 1.15722 -1.05466 0.79141 1.10653 -1.06324 0.839961 
1.05719 -1.07389 0.903122 2.41271 -0.68621 0.156591 2.47396 -0.706959 0.215576 
-0.14332 0.478744 0.7961 -0.0608838 0.504544 0.921754 0.0036379 0.545728 1.01932 
0.0638848 0.589561 1.09701 0.123564 0.621098 1.1636 0.184394 0.614168 1.22459 
-0.132624 0.355375 0.882712 -0.0507391 0.261497 1.08152 -0.00362204 0.198152 1.24094 
0.051795 0.178966 1.3702 0.113178 0.193413 1.47177 0.170432 0.212823 1.52934 
0.211461 0.254989 1.54657 0.224363 0.310238 1.53823 0.234613 0.368248 1.52301 
0.255978 0.43005 1.48475 0.258096 0.49745 1.404 0.77575 -1.02187 0.868993 
0.724844 -0.980032 0.939782 0.67288 -0.945992 0.994525 0.61866 -0.922785 1.01789 
0.561285 -0.880418 1.01421 0.501876 -0.825321 0.992501 0.445691 -0.770217 0.993044 
0.402297 -0.714855 1.05003 0.857679 -1.1358 0.935329 0.908225 -1.17437 1.02282 
0.960815 -1.14639 1.02945 0.883071 -1.03089 0.82771 0.943904 -1.03793 0.888687 
2.86203 -0.439867 1.06174 2.94097 -0.445731 1.279 2.70701 -0.437894 1.00125 
2.65497 -0.45021 1.13955 2.60785 -0.465131 1.24198 2.56003 -0.478149 1.32219 
2.51137 -0.489846 1.39266 2.46203 -0.500503 1.45582 2.41135 -0.509076 1.50437 
2.35863 -0.514527 1.53102 2.30456 -0.517897 1.54306 2.24982 -0.520226 1.5478 
2.19507 -0.522445 1.55255 2.14094 -0.523906 1.56488 2.08855 -0.518607 1.60054 
2.03774 -0.501624 1.66026 1.98736 -0.502716 1.71737 1.93189 -0.523459 1.72706 
0.454765 -0.608718 1.25565 0.521669 -0.600405 1.34081 0.584231 -0.606569 1.41428 
0.645609 -0.616072 1.47987 0.706793 -0.634804 1.53916 0.767696 -0.665662 1.58923 
0.826497 -0.669479 1.62832 0.883148 -0.644537 1.65668 0.939896 -0.62289 1.68456 
0.997165 -0.59707 1.72051 1.05426 -0.587006 1.74671 1.10895 -0.582768 1.74225 
1.16098 -0.576058 1.70833 1.21297 -0.567656 1.67466 1.26736 -0.553537 1.67163 
1.32469 -0.529734 1.70728 1.3832 -0.52377 1.74779 1.44027 -0.534445 1.76352 
1.49446 -0.556713 1.74031 1.54685 -0.562012 1.70464 1.59963 -0.558469 1.67771 
1.65313 -0.554242 1.65833 1.70984 -0.553078 1.65325 1.77797 -0.557826 1.66128 

LINES 36 452
8 39 46 47 48 49 50 51 33 
3 38 52 33 
8 37 53 54 55 56 57 58 28 
6 30 59 60 61 62 35 
4 36 64 65 31 
3 34 66 28 
13 33 67 68 69 70 71 72 73 74 75 76 77 22 
13 32 78 79 80 81 82 83 84 85 86 87 88 26 
3 31 107 23 
15 28 108 109 110 111 112 113 114 115 116 117 118 119 120 15 
3 20 124 24 
14 22 125 126 127 128 129 130 131 132 133 134 135 136 12 
3 22 137 13 
4 20 156 157 17 
8 17 158 159 160 161 162 163 11 
34 15 210 211 212 213 214 215 216 217 218 219 220 221 222 223 224 225 226 227 228 229 230 231 232 233 234 235 236 237 238 239 240 241 3 
6 13 245 246 247 248 7 
6 12 249 250 251 252 7 
19 12 253 254 255 256 257 258 259 260 261 262 263 264 265 266 267 268 269 2 
8 11 270 271 272 273 274 275 5 
5 10 276 277 278 10 
27 10 279 280 281 282 283 284 285 286 287 288 289 290 291 292 293 294 295 296 297 298 299 300 301 302 303 4 
4 10 304 305 8 
8 7 306 307 308 309 310 311 3 
13 7 312 313 314 315 316 317 318 319 320 321 322 3 
10 6 323 324 325 326 327 328 329 330 2 
5 6 331 332 333 4 
4 6 334 335 4 
4 5 336 337 1 
9 40 41 42 43 44 45 29 63 30 
21 30 94 93 92 91 90 89 27 95 96 97 98 99 100 101 102 103 104 105 106 31 
18 25 121 122 123 19 149 148 147 146 145 144 143 142 141 140 139 138 21 
22 20 150 151 152 153 154 155 18 175 176 177 178 179 180 181 182 183 184 185 186 187 17 
17 13 174 173 172 171 170 169 168 167 166 165 164 14 242 243 244 9 
25 15 205 204 203 202 201 200 199 198 197 196 195 194 193 192 191 190 189 188 16 206 207 208 209 11 
43 5 338 339 340 341 342 343 344 345 346 347 348 349 350 351 352 353 0 377 376 375 374 373 372 371 370 369 368 367 366 365 364 363 362 361 360 359 358 357 356 355 354 2 

POINT_DATA 378
SCALARS DY_raw double
LOOKUP_TABLE default
132.668 264.69 90.6202 73.6019 100.609 87.12 86.724 97.1347 72.7012 
198.615 63.1221 78.3696 70.7658 102.314 95.0058 91.9905 95.5477 85.4043 
89.2274 77.1765 122.829 75.7657 84.3592 210.325 162.3 67.7145 128.675 
81.1183 114.741 93.0235 98.4482 126.21 202.388 83.6544 206.826 154.42 
176.189 257.948 103.625 177.457 148.151 138.53 159.52 136.437 118.704 
109.357 176.064 137.147 127.368 111.599 93.5469 89.0268 90.053 266.263 
160.31 139.674 148.314 121.54 114.741 109.915 125.154 144.857 140.992 
89.2722 152.232 152.886 170.435 89.0919 89.0919 119.136 119.136 123.181 
106.296 106.385 108.396 80.7184 79.9143 76.036 140.974 111.114 101.126 
110.54 100.974 100.974 96.8904 102.001 107.565 117.511 113.601 88.6074 
96.3448 108.388 114.694 115.44 113.61 92.1371 111.317 119.82 132.838 
132.838 144.674 199.178 218.295 202.13 161.235 129.854 125.985 148.561 
122.087 136.419 134.154 133.087 142.301 132.749 116.859 116.482 130.335 
129.488 122.396 110.318 102.759 65.8831 66.8233 68.7225 134.032 84.1422 
93.6296 102.802 123.613 142.706 110.622 112.344 75.837 80.1761 79.596 
70.8433 72.0949 96.3452 81.562 79.9352 83.763 75.6492 68.9272 68.9272 
94.0796 84.0961 101.076 115.628 118.7 99.479 94.812 94.3936 99.364 
76.066 78.9507 97.0038 124.6 109.619 85.48 86.6819 87.3643 85.4994 
88.9154 72.4902 82.9091 89.129 103.433 105.419 128.625 143.042 142.25 
141.545 128.13 110.512 105.662 95.0513 98.6035 95.1173 81.2781 76.1375 
75.6694 75.6694 87.1646 94.2399 95.105 102.371 95.8866 76.6786 92.2401 
100.17 106.741 114.135 114.135 94.9822 96.958 105.739 107.575 100.015 
92.5064 89.6251 95.9373 112.024 111.441 96.4969 94.5574 88.9833 105.936 
111.967 93.1792 86.5222 99.7515 133.772 144.793 125.4 146.034 139.544 
140.881 134.719 142.057 142.057 155.442 151.204 151.204 151.605 141.196 
153.328 169.26 184.456 158.916 167.685 148.76 154.246 143.604 143.604 
144.382 196.941 162.109 137.616 108.229 88.647 75.3152 82.7588 98.8215 
115.89 145.114 114.812 111.916 81.6319 92.2076 75.1017 94.9679 88.0926 
94.485 62.0978 74.0101 85.7615 87.1415 95.3278 104.647 95.2152 110.728 
94.0824 88.7914 97.4106 97.2649 115.572 109.758 109.089 101.988 98.88 
61.3664 81.4789 67.1311 94.746 119.022 119.869 78.301 96.2999 73.3133 
71.1598 78.4396 81.9408 101.202 112.836 112.836 84.1578 85.4358 85.4358 
89.852 78.9001 82.8544 85.8297 85.8297 72.9211 80.4888 80.4888 90.4013 
97.6792 97.6792 105.859 103.505 103.505 101.706 103.06 66.5328 68.0084 
88.1753 104.288 96.146 86.1255 104.358 76.0044 86.2369 90.1925 79.9428 
85.5144 78.9568 106.511 110.887 124.743 101.573 98.3257 87.2026 81.9283 
79.9981 96.1053 99.9061 106.463 98.0544 83.1645 79.839 78.8777 84.5254 
97.8103 93.2318 86.7046 92.0205 149.785 84.6748 85.7453 99.6891 110.516 
120.452 127.315 134.419 144.205 144.205 145.956 163.004 163.004 163.556 
182.482 171.835 155.802 92.1792 102.443 104.326 109.773 107.951 88.2817 
94.2192 82.834 94.2596 94.2596 95.8965 93.6971 97.8455 99.1289 99.1289 
104.64 116.136 118.654 135.013 139.064 139.064 91.6264 94.9257 117.198 

FIELD FieldData 7
DY_minmax 1 378 double
0.347991 0.992325 0.142774 0.0597154 0.191522 0.125691 0.123758 0.174568 0.05532 
0.669847 0.00856872 0.0829844 0.045874 0.199847 0.164178 0.149462 0.166822 0.117317 
0.135976 0.0771614 0.299969 0.0702763 0.112217 0.726997 0.492611 0.0309819 0.328502 
0.0963995 0.260496 0.154503 0.180978 0.316469 0.688259 0.108777 0.709918 0.454148 
0.560393 0.959422 0.206244 0.566582 0.423552 0.376599 0.479043 0.366382 0.279838 
0.234218 0.559784 0.369848 0.32212 0.245163 0.157058 0.134997 0.140006 1 
0.482896 0.38218 0.424351 0.29368 0.260496 0.236945 0.311315 0.407476 0.388612 
0.136195 0.443471 0.446664 0.532313 0.135315 0.135315 0.281945 0.281945 0.301688 
0.219281 0.219712 0.22953 0.094448 0.0905233 0.0715951 0.388524 0.242794 0.19405 
0.239992 0.193304 0.193304 0.173376 0.198318 0.225473 0.274013 0.254932 0.13295 
0.170713 0.229491 0.260266 0.263906 0.254975 0.150177 0.243787 0.285286 0.348817 
0.348817 0.406586 0.672591 0.765892 0.686998 0.487411 0.334255 0.315372 0.425555 
0.296348 0.366296 0.355242 0.350032 0.395005 0.348384 0.270832 0.268995 0.336604 
0.332469 0.297857 0.238907 0.202016 0.0220439 0.0266323 0.0359016 0.354646 0.111158 
0.157461 0.202227 0.303797 0.396981 0.240394 0.248799 0.0706238 0.0918014 0.0889698 
0.046252 0.0523607 0.170715 0.0985649 0.0906255 0.109307 0.0697074 0.0369005 0.0369005 
0.159658 0.110933 0.193803 0.264823 0.279817 0.186009 0.163232 0.16119 0.185448 
0.0717415 0.0858208 0.173929 0.308615 0.235499 0.117687 0.123553 0.126883 0.117781 
0.134453 0.0542898 0.105139 0.135496 0.205307 0.215001 0.328255 0.39862 0.394754 
0.391314 0.325841 0.239856 0.216184 0.1644 0.181737 0.164722 0.0971796 0.0720907 
0.0698062 0.0698062 0.125909 0.16044 0.164662 0.200124 0.168477 0.0747316 0.15068 
0.189381 0.221452 0.25754 0.25754 0.164063 0.173705 0.216561 0.225522 0.188626 
0.15198 0.137917 0.168724 0.247233 0.244392 0.171455 0.16199 0.134785 0.217525 
0.246956 0.155263 0.122773 0.187339 0.353376 0.407165 0.312516 0.41322 0.381547 
0.388074 0.357999 0.39381 0.39381 0.459136 0.438456 0.438456 0.440412 0.389611 
0.448822 0.526576 0.600744 0.476091 0.518889 0.426524 0.453303 0.401364 0.401364 
0.405161 0.661672 0.491677 0.372137 0.228716 0.133144 0.0680772 0.104406 0.182801 
0.266101 0.408731 0.260844 0.246707 0.098906 0.150521 0.0670353 0.163993 0.130438 
0.161636 0.00356951 0.0617079 0.119061 0.125796 0.165749 0.211234 0.1652 0.240911 
0.159671 0.133848 0.175914 0.175203 0.264553 0.236178 0.232913 0.198256 0.183086 
0 0.0981595 0.0281346 0.16291 0.281389 0.285523 0.0826495 0.170494 0.0583072 
0.047797 0.0833261 0.100414 0.194419 0.251198 0.251198 0.111234 0.117471 0.117471 
0.139024 0.0855738 0.104873 0.119393 0.119393 0.0563929 0.0933273 0.0933273 0.141705 
0.177225 0.177225 0.217148 0.205657 0.205657 0.196877 0.203487 0.0252146 0.0324163 
0.130841 0.209479 0.169742 0.120837 0.20982 0.071441 0.121381 0.140686 0.0906627 
0.117855 0.0858502 0.220328 0.241687 0.309309 0.196228 0.18038 0.126094 0.100353 
0.0909322 0.169544 0.188094 0.220093 0.179057 0.106386 0.0901557 0.0854641 0.113028 
0.177865 0.15552 0.123664 0.149608 0.431529 0.113757 0.118982 0.187035 0.239874 
0.28837 0.321861 0.356534 0.404295 0.404295 0.41284 0.496045 0.496045 0.498738 
0.591109 0.539143 0.460896 0.150383 0.200476 0.209666 0.236247 0.227356 0.131361 
0.160339 0.104773 0.160536 0.160536 0.168525 0.157791 0.178037 0.184301 0.184301 
0.2112 0.267306 0.279594 0.359432 0.379207 0.379207 0.147685 0.163787 0.272489 

WidthEq 1 378 double
3.86475 1 7.50009 9.72435 5.78659 7.8113 5.52846 11.3345 5.19537 
1.59897 6.45242 9.2074 14.0634 9.45967 8.702 6.88941 6.41261 7.53663 
6.67195 11.3212 4.73374 6.81772 8.997 1.7413 2.66888 6.96454 2.51276 
7.17804 5.86137 8.35133 6.82014 4.45838 2.37198 7.23094 1.69374 4.50008 
3.08226 1.59311 4.73563 3.71983 4.42374 5.15953 4.52644 5.55034 6.32818 
7.25351 3.73086 4.4265 4.16613 4.66481 6.32645 6.59251 5.70853 1.74647 
3.99295 5.423 5.22243 6.52565 5.86137 6.15655 5.13816 4.48285 4.62794 
8.05357 3.9273 3.90938 2.5517 6.9847 6.9847 5.55534 5.55534 5.34132 
5.70904 5.66614 5.54069 7.7727 7.77683 9.16777 3.89697 5.15471 5.64649 
5.40439 5.78211 5.78211 6.15293 6.01318 5.29187 4.99411 3.75102 6.32611 
5.91272 5.19106 5.19348 5.27963 5.58032 6.7469 5.77349 5.37872 4.68135 
4.68135 4.09789 3.17962 2.91184 2.98749 3.53614 4.36567 4.55332 3.21908 
4.68101 4.51007 4.32294 4.78974 4.69152 5.15402 6.34937 6.49429 6.5739 
6.56563 6.75552 7.04466 7.13789 9.45553 10.9311 11.4727 3.8308 8.29619 
6.78343 5.33443 4.22989 3.57819 4.88193 4.92949 7.28866 7.28022 9.36731 
10.9902 12.7904 9.36248 7.62537 7.71187 7.43324 7.85851 7.94984 7.94984 
5.78659 6.2739 5.23518 5.03253 6.04989 8.05788 5.95821 6.04161 5.84276 
6.99314 6.81704 6.16068 5.24517 5.88136 8.26966 8.2009 7.91193 8.14731 
7.91606 9.81567 9.83463 9.18982 7.94157 6.96419 5.48021 4.40479 4.48612 
4.86022 5.90721 7.24266 8.7325 6.52668 5.97372 6.14483 6.69848 7.73548 
7.78769 7.78769 6.34799 5.6284 5.6589 5.59445 6.68435 8.05857 6.42519 
6.05092 5.29721 4.39531 4.39531 4.58675 4.74649 4.66016 4.69273 5.03253 
5.49951 5.29997 5.42042 5.20382 5.53897 6.29647 6.58045 6.95041 6.17757 
6.25632 7.79165 8.79867 6.78636 5.89773 5.44661 6.01835 4.94414 5.81416 
5.89894 6.37074 6.13122 6.13122 4.83127 4.97446 4.97446 4.89416 5.6384 
5.306 5.07286 4.59485 4.9033 4.59899 4.7763 4.98118 5.19727 5.19727 
4.77371 3.83166 4.3736 5.38354 6.25735 7.77477 9.02474 9.44588 8.0696 
5.75833 3.12431 8.17282 7.64415 10.1122 9.93974 14.1896 11.9696 12.521 
12.6086 15.3679 13.2713 11.6493 10.055 8.78264 8.40441 8.70596 7.85248 
8.67994 8.94479 8.45524 8.15197 6.999 7.43806 7.76684 7.95346 7.90504 
9.16691 7.64811 8.9653 6.96885 7.05483 6.64868 5.01565 3.67124 4.95585 
7.55834 7.6905 8.47368 6.74363 5.77556 5.77556 6.34903 5.92082 5.92082 
5.86999 6.56856 6.67556 6.67263 6.67263 7.31572 7.39395 7.39395 7.06207 
6.52565 6.52565 6.15534 6.16861 6.16861 6.09572 6.05006 6.75276 5.14437 
11.7787 10.4563 10.8999 10.3187 9.01802 10.0592 13.1602 12.5343 12.9237 
12.4811 12.2739 9.09091 8.23261 7.41807 8.14145 8.38631 9.21395 6.54133 
7.09067 6.20049 5.55362 4.88538 4.84833 5.48383 6.61732 5.72938 4.7956 
5.35976 5.76574 5.88412 6.94834 3.70605 7.81543 7.53663 6.31353 5.47642 
4.8616 4.68273 4.56952 4.19077 4.19077 4.05102 3.27078 3.27078 3.32058 
3.10863 3.24131 3.56561 7.19251 6.76775 6.55684 6.26459 6.19773 7.04087 
6.58337 8.11406 7.37241 7.37241 7.41893 7.26213 6.6187 6.28182 6.28182 
5.99147 4.88899 4.9898 4.07429 3.24648 3.24648 4.30433 4.40892 4.03034 

rRFP 1 378 double
2464.51 2298.26 2675.48 2804.56 2576.04 2693.54 2561.06 2898 2541.73 
2333.02 2614.68 2774.56 3056.37 2789.2 2745.23 2640.04 2612.37 2677.6 
2627.42 2897.23 2514.94 2635.88 2762.35 2341.28 2395.11 2644.4 2386.05 
2656.79 2580.38 2724.88 2636.02 2498.96 2377.88 2659.86 2338.52 2501.38 
2419.1 2332.68 2515.05 2456.1 2496.95 2539.65 2502.91 2562.33 2607.47 
2661.17 2456.74 2497.11 2482 2510.94 2607.37 2622.81 2571.51 2341.58 
2471.95 2554.94 2543.3 2618.93 2580.38 2597.51 2538.41 2500.38 2508.8 
2707.6 2468.14 2467.1 2388.31 2645.57 2645.57 2562.62 2562.62 2550.2 
2571.54 2569.05 2561.77 2691.3 2691.54 2772.26 2466.38 2539.37 2567.91 
2553.86 2575.78 2575.78 2597.3 2589.19 2547.33 2530.05 2457.91 2607.35 
2583.36 2541.48 2541.62 2546.62 2564.07 2631.77 2575.28 2552.37 2511.9 
2511.9 2478.04 2424.75 2409.21 2413.6 2445.44 2493.58 2504.47 2427.04 
2511.88 2501.96 2491.1 2518.19 2512.49 2539.33 2608.7 2617.11 2621.73 
2621.25 2632.27 2649.05 2654.46 2788.96 2874.59 2906.02 2462.54 2721.68 
2633.89 2549.8 2485.7 2447.88 2523.54 2526.3 2663.21 2662.72 2783.84 
2878.02 2982.49 2783.56 2682.75 2687.77 2671.6 2696.28 2701.58 2701.58 
2576.04 2604.32 2544.04 2532.28 2591.32 2707.85 2586 2590.84 2579.3 
2646.06 2635.84 2597.75 2544.62 2581.54 2720.14 2716.15 2699.38 2713.04 
2699.62 2809.86 2810.96 2773.54 2701.1 2644.38 2558.26 2495.85 2500.57 
2522.28 2583.04 2660.54 2747 2618.99 2586.9 2596.83 2628.96 2689.14 
2692.17 2692.17 2608.62 2566.86 2568.63 2564.89 2628.14 2707.89 2613.1 
2591.38 2547.64 2495.3 2495.3 2506.41 2515.68 2510.67 2512.56 2532.28 
2559.38 2547.8 2554.79 2542.22 2561.67 2605.63 2622.11 2643.58 2598.73 
2603.3 2692.4 2750.84 2634.06 2582.49 2556.31 2589.49 2527.15 2577.64 
2582.56 2609.94 2596.04 2596.04 2520.6 2528.91 2528.91 2524.25 2567.44 
2548.15 2534.62 2506.88 2524.78 2507.12 2517.41 2529.3 2541.84 2541.84 
2517.26 2462.59 2494.04 2552.65 2603.36 2691.42 2763.96 2788.4 2708.53 
2574.4 2421.54 2714.52 2683.84 2827.07 2817.06 3063.69 2934.86 2966.86 
2971.94 3132.07 3010.4 2916.27 2823.75 2749.91 2727.96 2745.46 2695.93 
2743.95 2759.32 2730.91 2713.31 2646.4 2671.88 2690.96 2701.79 2698.98 
2772.21 2684.07 2760.51 2644.65 2649.64 2626.07 2531.3 2453.28 2527.83 
2678.86 2686.53 2731.98 2631.58 2575.4 2575.4 2608.68 2583.83 2583.83 
2580.88 2621.42 2627.63 2627.46 2627.46 2664.78 2669.32 2669.32 2650.06 
2618.93 2618.93 2597.44 2598.21 2598.21 2593.98 2591.33 2632.11 2538.77 
2923.78 2847.04 2872.78 2839.05 2763.57 2823.99 3003.95 2967.63 2990.23 
2964.54 2952.52 2767.8 2717.99 2670.72 2712.7 2726.91 2774.94 2619.84 
2651.72 2600.06 2562.52 2523.74 2521.59 2558.47 2624.25 2572.72 2518.53 
2551.27 2574.83 2581.7 2643.46 2455.3 2693.78 2677.6 2606.62 2558.04 
2522.36 2511.98 2505.41 2483.43 2483.43 2475.32 2430.04 2430.04 2432.93 
2420.63 2428.33 2447.15 2657.63 2632.98 2620.74 2603.78 2599.9 2648.83 
2622.28 2711.11 2668.07 2668.07 2670.77 2661.67 2624.33 2604.78 2604.78 
2587.93 2523.95 2529.8 2476.67 2428.63 2428.63 2490.02 2496.09 2474.12 

rGFP 1 378 double
2873.98 2625.94 3040.91 3076.98 2943.43 3041.77 2840.7 3462.22 2738.96 
2678.83 2768.54 3082.83 3356.46 3329.11 3187.99 2995.01 2973.96 3004.91 
2956.57 3234.98 2942.69 2877.8 3120.23 2727.49 2794.41 2832.85 2684.58 
2943.52 3033.79 3138.12 3032.68 2923.94 2841.31 2966.15 2711.56 3056.15 
2904.31 2772.19 2851.98 3021.36 3016.63 3076 3083.31 3118.52 3112.43 
3154.47 3018.12 2968.33 2891.88 2881.84 2953.07 2948.16 2875.32 2826.27 
3001.36 3118.7 3135.81 3154.38 3033.79 3037.95 3004.31 3010.62 3013.75 
3080.21 2959.11 2958.94 2796.15 2983.53 2983.53 3023.09 3023.09 3019.2 
2968.1 2964.04 2961.84 2988.65 2982.73 3058.33 2910.62 2934.01 2932.26 
2958.65 2945.09 2945.09 2957.41 2974.6 2930.47 2948.11 2787.37 2921.79 
2930.91 2923.9 2956.91 2970.73 2995.23 2982.89 3003.94 3005.73 2983.11 
2983.11 2954.11 2994.56 2996.89 2965.11 2931.4 2928.15 2934.9 2839.48 
2932.74 2976.51 2941.19 2998.7 3028.86 3045.44 3103.23 3117.72 3218.06 
3211.42 3188.1 3138.4 3094.73 2984.21 3091.7 3149.68 2874.7 3059.31 
2996.38 2909.64 2884.12 2871.88 2901.3 2915.05 2914 2944.95 3106.85 
3139.83 3283.37 3263.28 2983.19 2977.7 2983.88 2955.74 2909.21 2909.21 
2905.65 2888.86 2890.4 2943.15 3079.37 3162.84 2926.16 2931.54 2941.81 
2893.19 2899.46 2958.86 3014.8 3005.96 3068.14 3072.12 3052.47 3057.84 
3065.11 3072.79 3176.63 3180.33 3182.67 3095.41 3066.14 2991.32 2999.4 
3049.19 3118.14 3161.65 3283.94 2981.62 2950.28 2945.73 2905.69 2950.21 
2950.54 2950.54 2914.57 2891.67 2899.44 2933.96 3002.19 2979.17 2953.91 
2967.37 2926.68 2862.91 2862.91 2796.91 2821.46 2854.01 2866.07 2864.58 
2869.99 2836.26 2881.27 2944.2 2978.52 2968.84 2983.48 2979.72 3015.68 
3061.75 3087.27 3122.53 3038.2 3150.2 3149.88 3115.95 3083.26 3172.58 
3192.3 3219.51 3232.23 3232.23 3112.23 3113.41 3113.41 3103.23 3157.37 
3174.81 3219.88 3208.8 3140.46 3132.43 3071.77 3129.58 3107.6 3107.6 
3050.49 3115.86 3070.25 3102.11 3038.48 3050.46 3040.95 3142.98 3158.7 
3028.58 2814.63 3299.59 3216.75 3186.73 3277.77 3426.91 3497.98 3464.26 
3552.57 3315.56 3343.46 3360.31 3237.46 3198.48 3240.75 3190.19 3230.74 
3177.88 3155.47 3184.88 3154.15 3170.14 3177.64 3208.53 3172.41 3142.9 
2923.79 2984.41 2963.1 3021.52 3200.93 3158.22 2753.98 2714.79 2724.58 
2899.1 2964.49 3055.59 3043.72 3012.94 3012.94 2895.57 2867.1 2867.1 
2888.68 2879.51 2914.35 2933.96 2933.96 2894.72 2956.38 2956.38 2999.67 
2998.67 2998.67 3012.85 2999.73 2999.73 2981.22 2984.77 2810.53 2711.11 
3399.84 3451.72 3409.23 3249.95 3302.35 3125.79 3496.14 3491.75 3394.41 
3428.56 3330.36 3329.53 3274.14 3286.6 3188.2 3185.84 3164.73 2897.17 
2928.49 2957.15 2916.09 2881.36 2836.65 2817.31 2889.57 2813.17 2766.6 
2885.49 2898.8 2871.43 3000.64 2916.36 3023.02 3007.48 2990.64 2966.48 
2946.84 2957.43 2975.48 2965.58 2965.58 2952.52 2894.4 2894.4 2904.35 
2928.52 2918.22 2916.78 3024.25 3054.56 3045.3 3048.93 3030.3 2982.83 
2981.53 3033.37 3056.17 3056.17 3072.7 3041.69 3008.86 2983.96 2983.96 
2988.2 2929.04 2953.31 2911.33 2812.72 2812.72 2755.64 2779.77 2833.6 

bkstRFP 1 378 double
224.283 58.033 435.253 564.333 335.813 453.313 320.833 657.773 301.503 
92.793 374.453 534.333 816.143 548.973 505.003 399.813 372.143 437.373 
387.193 657.003 274.713 395.653 522.123 101.053 154.883 404.173 145.823 
416.563 340.153 484.653 395.793 258.733 137.653 419.633 98.293 261.153 
178.873 92.453 274.823 215.873 256.723 299.423 262.683 322.103 367.243 
420.943 216.513 256.883 241.773 270.713 367.143 382.583 331.283 101.353 
231.723 314.713 303.073 378.703 340.153 357.283 298.183 260.153 268.573 
467.373 227.913 226.873 148.083 405.343 405.343 322.393 322.393 309.973 
331.313 328.823 321.543 451.073 451.313 532.033 226.153 299.143 327.683 
313.633 335.553 335.553 357.073 348.963 307.103 289.823 217.683 367.123 
343.133 301.253 301.393 306.393 323.843 391.543 335.053 312.143 271.673 
271.673 237.813 184.523 168.983 173.373 205.213 253.353 264.243 186.813 
271.653 261.733 250.873 277.963 272.263 299.103 368.473 376.883 381.503 
381.023 392.043 408.823 414.233 548.733 634.363 665.793 222.313 481.453 
393.663 309.573 245.473 207.653 283.313 286.073 422.983 422.493 543.613 
637.793 742.263 543.333 442.523 447.543 431.373 456.053 461.353 461.353 
335.813 364.093 303.813 292.053 351.093 467.623 345.773 350.613 339.073 
405.833 395.613 357.523 304.393 341.313 479.913 475.923 459.153 472.813 
459.393 569.633 570.733 533.313 460.873 404.153 318.033 255.623 260.343 
282.053 342.813 420.313 506.773 378.763 346.673 356.603 388.733 448.913 
451.943 451.943 368.393 326.633 328.403 324.663 387.913 467.663 372.873 
351.153 307.413 255.073 255.073 266.183 275.453 270.443 272.333 292.053 
319.153 307.573 314.563 301.993 321.443 365.403 381.883 403.353 358.503 
363.073 452.173 510.613 393.833 342.263 316.083 349.263 286.923 337.413 
342.333 369.713 355.813 355.813 280.373 288.683 288.683 284.023 327.213 
307.923 294.393 266.653 284.553 266.893 277.183 289.073 301.613 301.613 
277.033 222.363 253.813 312.423 363.133 451.193 523.733 548.173 468.303 
334.173 181.313 474.293 443.613 586.843 576.833 823.463 694.633 726.633 
731.713 891.843 770.173 676.043 583.523 509.683 487.733 505.233 455.703 
503.723 519.093 490.683 473.083 406.173 431.653 450.733 461.563 458.753 
531.983 443.843 520.283 404.423 409.413 385.843 291.073 213.053 287.603 
438.633 446.303 491.753 391.353 335.173 335.173 368.453 343.603 343.603 