# vtk DataFile Version 3.0
vtk output
ASCII
DATASET POLYDATA
POINTS 490 float
1.96944 -0.241106 2.31382 2.51448 -0.576439 2.1184 2.57255 -1.33705 1.66607 
0.986969 -0.143951 2.13131 2.81878 -0.711831 1.34188 2.75141 -1.26173 1.01401 
2.98144 -0.942081 0.818138 2.87684 -0.337845 1.09943 2.99261 -0.421789 1.05036 
3.22376 -0.683254 0.275805 3.41979 -0.764515 0.384113 0.674388 0.968673 0.929153 
2.8701 0.617449 0.504257 3.29586 -0.0355536 0.118819 1.36175 1.51504 0.794181 
3.14887 0.12938 -0.0168917 3.74212 -0.121154 -0.161454 0.408315 1.23189 0.385511 
-0.162717 -0.419738 -0.602086 4.88343 -0.606971 -0.829776 6.28947 1.00901 0.298213 
0.286667 1.33355 0.212328 -0.285599 -0.212405 -0.712371 3.02608 0.54469 -0.236131 
5.08515 1.14728 0.13847 7.24193 0.287981 -0.567622 1.9602 1.46573 0.0711676 
6.07151 1.14905 -0.0856254 6.89912 0.216597 -1.09983 6.9256 -0.160332 -1.09125 
6.17567 1.17853 -0.526318 6.20708 -0.334674 -1.6661 6.70754 -0.22827 -1.36614 
6.68477 0.732722 -1.28886 6.64976 0.0216726 -1.45055 6.77994 0.106903 -1.39881 
5.99645 0.0148713 -1.6924 6.14476 -0.0477623 -1.72854 6.70531 0.831975 -1.18112 
6.69519 0.88716 -1.08694 6.66668 0.915824 -1.00543 6.62936 0.938974 -0.947761 
6.59866 0.98911 -0.909529 6.57083 1.05541 -0.887514 6.53415 1.10243 -0.868428 
6.47902 1.11329 -0.862391 6.42605 1.12425 -0.847652 6.38104 1.15291 -0.830936 
6.34323 1.18614 -0.79206 6.29741 1.19309 -0.732235 6.24066 1.18468 -0.645008 
6.52137 0.720262 -1.3956 6.4263 0.715978 -1.47539 6.37432 0.706337 -1.53757 
6.3223 0.701722 -1.59998 6.27528 0.695669 -1.66429 6.21468 0.691541 -1.71894 
6.15548 0.675393 -1.75487 6.11719 0.638988 -1.77684 6.08038 0.590525 -1.78011 
6.03166 0.535668 -1.76142 5.99823 0.470539 -1.7401 5.98282 0.401615 -1.72953 
5.9829 0.337573 -1.74179 5.97126 0.282294 -1.75754 5.96125 0.218703 -1.76099 
5.97368 0.126588 -1.73814 6.16304 -0.194963 -1.70395 6.23474 -0.0454421 -1.61439 
6.31391 -0.0473333 -1.53733 6.38823 -0.0393915 -1.49755 6.46329 -0.0215679 -1.47773 
6.54715 -3.43862e-007 -1.46425 6.21844 -0.130517 -1.69965 6.24021 -0.226573 -1.67908 
6.06018 -0.0120422 -1.70793 5.92899 -0.0625914 -1.58387 5.87171 -0.122174 -1.4646 
5.81442 -0.178047 -1.35175 5.74627 -0.245632 -1.2632 5.67388 -0.30956 -1.19837 
5.60508 -0.363477 -1.13617 5.54285 -0.40952 -1.06061 5.4746 -0.48098 -0.965738 
5.40621 -0.563805 -0.851777 5.3436 -0.640153 -0.725292 5.27454 -0.713023 -0.631271 
5.20225 -0.769371 -0.579169 5.13469 -0.795201 -0.560583 5.07907 -0.782651 -0.559291 
5.02726 -0.739934 -0.59173 4.96626 -0.674792 -0.682732 6.76909 0.160359 -1.35845 
6.78327 0.193658 -1.30404 6.82362 0.208162 -1.21751 6.71129 0.0731868 -1.41941 
6.8283 0.0026706 -1.27083 6.87685 -0.0864111 -1.16831 6.68046 -0.105853 -1.41416 
6.8406 0.313404 -1.08684 6.80975 0.418897 -1.11479 6.77871 0.552801 -1.19157 
6.85541 0.657073 -1.12029 6.95789 0.58476 -0.971809 7.02376 0.511328 -0.846915 
7.09061 0.455238 -0.727843 7.15667 0.40649 -0.627043 7.21049 0.348436 -0.570666 
6.09106 -0.373576 -1.69015 6.00728 -0.396439 -1.69578 5.94324 -0.409364 -1.67811 
5.87536 -0.442987 -1.64693 5.80755 -0.48035 -1.60934 5.74567 -0.503572 -1.57192 
5.67806 -0.525774 -1.5598 5.61059 -0.540324 -1.56036 5.54986 -0.539319 -1.56023 
5.48766 -0.540882 -1.56164 5.43295 -0.529278 -1.55516 5.38262 -0.513678 -1.53763 
5.33299 -0.504251 -1.50654 5.28326 -0.506104 -1.45631 5.23343 -0.511837 -1.39976 
5.18276 -0.519054 -1.3441 5.127 -0.531507 -1.30022 5.06103 -0.565635 -1.26071 
5.00016 -0.595643 -1.2072 4.96117 -0.597019 -1.11062 4.92713 -0.595528 -0.980682 
6.69526 -0.325188 -1.31185 6.69515 -0.412001 -1.28595 6.68147 -0.474039 -1.2885 
6.65727 -0.520101 -1.30749 6.62161 -0.55567 -1.32894 6.56674 -0.571729 -1.33892 
6.51307 -0.558597 -1.34014 6.46282 -0.524297 -1.35459 6.40973 -0.467791 -1.40757 
6.33342 -0.397286 -1.51274 6.7802 -0.26733 -1.25089 6.85121 -0.290461 -1.16066 
6.91013 -0.281807 -1.11196 6.93437 -0.235665 -1.09292 6.12941 1.17006 -0.395952 
6.09836 1.15949 -0.245148 6.98282 -0.131921 -1.0739 7.00678 -0.0856483 -1.05479 
6.99419 -0.0125188 -1.04584 6.95878 0.0893001 -1.06308 7.02362 0.170058 -0.936925 
7.11301 0.133367 -0.81152 7.17614 0.12314 -0.730918 7.21105 0.143982 -0.679441 
7.2273 0.182957 -0.638878 7.23189 0.23255 -0.596391 6.03852 1.15073 0.0271921 
5.99467 1.14811 0.102873 5.94508 1.15391 0.140431 5.89037 1.16181 0.153334 
5.82818 1.15654 0.158338 5.7681 1.14759 0.178406 5.70476 1.1218 0.214284 
5.64359 1.09611 0.258877 5.57508 1.06122 0.289296 5.50308 1.03131 0.296794 
5.43482 1.01536 0.295395 5.37399 1.0162 0.295427 5.31095 1.01314 0.29312 
5.25106 1.01934 0.287728 5.18911 1.03301 0.260905 5.13484 1.07872 0.210112 
6.14417 1.10237 0.042318 6.21682 1.05569 0.17027 1.89348 1.4414 0.0906499 
1.83768 1.42886 0.134475 1.787 1.41793 0.196545 1.73792 1.40611 0.266724 
1.69327 1.40208 0.341568 1.65525 1.40973 0.423407 1.6106 1.4057 0.498255 
1.56162 1.39405 0.568532 1.51268 1.38619 0.632441 1.46822 1.39361 0.688234 
1.43139 1.42556 0.732831 1.39321 1.46253 0.763167 4.81654 -0.612703 -0.724517 
4.76462 -0.622523 -0.627313 4.72041 -0.625562 -0.546124 4.66397 -0.641564 -0.498617 
4.61 -0.639752 -0.472095 4.55967 -0.624153 -0.454574 4.50934 -0.604847 -0.44347 
4.45468 -0.593159 -0.436933 4.39338 -0.593156 -0.437405 4.33872 -0.581468 -0.430869 
4.28843 -0.562078 -0.419714 4.2389 -0.545074 -0.401351 4.18932 -0.535562 -0.370211 
4.13959 -0.537415 -0.319979 4.08981 -0.543064 -0.263371 4.04012 -0.544833 -0.213088 
3.99138 -0.533833 -0.181056 3.94717 -0.507471 -0.157081 3.91049 -0.464152 -0.131578 
3.87245 -0.419526 -0.113929 3.84194 -0.354242 -0.101162 3.81516 -0.271295 -0.10371 
3.78409 -0.188476 -0.123615 3.05168 0.433728 -0.189913 3.08155 0.326597 -0.13277 
3.1181 0.231231 -0.0685731 -0.23735 -0.253886 -0.693585 -0.19443 -0.319545 -0.654761 
0.342382 1.27188 0.296736 -0.188046 -0.564479 -0.455684 -0.211591 -0.709868 -0.309655 
-0.223527 -0.854504 -0.171711 -0.205845 -0.992732 -0.0469593 -0.166192 -1.10087 0.0613892 
-0.123763 -1.1968 0.151157 -0.0861228 -1.29397 0.222922 -0.0374772 -1.37918 0.319119 
0.0228394 -1.45497 0.446885 0.0815498 -1.54469 0.592204 0.142618 -1.62656 0.733593 
0.196492 -1.70258 0.835313 0.246234 -1.76365 0.894171 0.295375 -1.81096 0.926727 
0.344468 -1.85836 0.959232 0.393464 -1.90964 0.998055 0.441661 -1.96602 1.04245 
0.486278 -2.0287 1.08307 0.528683 -2.09157 1.11494 0.584507 -2.12342 1.14813 
0.639025 -2.14647 1.16069 0.694438 -2.16054 1.16137 0.755736 -2.16425 1.16825 
0.810297 -2.18722 1.18086 0.861178 -2.22777 1.20883 0.916393 -2.26441 1.24781 
0.982669 -2.27787 1.29202 1.04989 -2.27856 1.31799 1.11062 -2.28328 1.32427 
1.17367 -2.28022 1.32658 1.23365 -2.28255 1.32565 1.29664 -2.27958 1.32791 
1.35662 -2.28191 1.32699 1.41966 -2.27885 1.32929 1.48044 -2.27978 1.32921 
1.54786 -2.26902 1.33614 1.61528 -2.25826 1.34306 1.67606 -2.25919 1.34298 
1.7391 -2.25613 1.34528 1.79908 -2.25846 1.34436 1.86208 -2.25549 1.34662 
1.92211 -2.25403 1.33932 1.9853 -2.2396 1.32254 2.04637 -2.2178 1.28427 
2.11413 -2.18051 1.24663 2.18179 -2.1469 1.21544 2.24184 -2.13424 1.19759 
2.29939 -2.11355 1.20172 2.346 -2.0825 1.22057 2.39801 -2.04818 1.23277 
2.44384 -2.00734 1.2402 2.496 -1.96537 1.23973 2.54337 -1.92517 1.24678 
2.60262 -1.89 1.25094 2.6513 -1.84655 1.25131 2.66382 -1.7764 1.24144 
2.67952 -1.69998 1.21809 2.70411 -1.61969 1.17987 2.73755 -1.53932 1.13313 
2.77401 -1.45644 1.07932 2.77249 -1.3613 1.0411 -0.113535 -0.392931 -0.697822 
-0.0689286 -0.388986 -0.772708 -0.0320079 -0.417071 -0.823626 0.00698308 -0.452622 -0.853111 
0.0428624 -0.493645 -0.885879 0.0810563 -0.526899 -0.922615 0.112705 -0.567964 -0.972676 
0.145008 -0.615278 -1.00922 0.187476 -0.652118 -1.0222 0.230644 -0.695131 -1.02161 
0.268028 -0.744614 -1.03354 0.311342 -0.779967 -1.04563 0.354662 -0.811606 -1.06413 
0.391338 -0.854932 -1.08964 0.430327 -0.894188 -1.1127 0.467052 -0.93743 -1.13816 
0.511169 -0.967666 -1.15582 0.558909 -0.995233 -1.16324 0.603777 -1.03525 -1.16086 
0.646231 -1.09063 -1.14177 0.701118 -1.12784 -1.10315 0.749409 -1.17295 -1.0779 
0.787638 -1.22465 -1.08253 0.831846 -1.25843 -1.09367 0.880481 -1.28071 -1.10656 
0.93067 -1.30397 -1.1114 0.985184 -1.32703 -1.09884 1.04619 -1.34976 -1.06018 
1.10051 -1.38798 -1.02216 1.1505 -1.4301 -0.995129 1.19983 -1.46226 -0.988032 
1.24922 -1.48692 -0.993712 1.29871 -1.50772 -1.00571 1.34899 -1.52711 -1.01686 
1.4036 -1.54259 -1.01703 1.46485 -1.55009 -1.00379 1.52016 -1.57544 -0.983968 
1.57552 -1.60071 -0.964102 1.63752 -1.61801 -0.930814 1.6981 -1.63408 -0.905433 
1.76612 -1.64078 -0.865789 1.83857 -1.63969 -0.821484 1.91172 -1.64477 -0.763604 
1.98486 -1.64595 -0.712007 2.05652 -1.63506 -0.679113 2.11949 -1.59765 -0.682217 
2.16893 -1.5469 -0.694734 2.23185 -1.50566 -0.70418 2.30187 -1.48646 -0.683589 
2.3644 -1.46791 -0.654825 2.41167 -1.44292 -0.622337 2.46209 -1.40782 -0.609678 
2.49884 -1.37076 -0.587335 2.53703 -1.34194 -0.552634 2.59603 -1.33332 -0.503954 
2.65494 -1.32467 -0.455242 2.69145 -1.29894 -0.413784 2.71917 -1.26188 -0.382885 
2.75582 -1.22478 -0.360519 2.81497 -1.19718 -0.343634 2.87412 -1.16959 -0.326749 
2.91068 -1.13245 -0.304359 2.93661 -1.09082 -0.27938 2.96091 -1.04851 -0.254003 
2.9867 -1.01063 -0.222634 3.02147 -0.984165 -0.18075 3.0713 -0.971683 -0.129828 
3.1149 -0.952757 -0.083742 3.1543 -0.920626 -0.055699 3.16485 -0.868695 -0.033316 
3.17817 -0.825553 0.00108096 3.18971 -0.794288 0.0571393 3.18905 -0.764265 0.129612 
3.20204 -0.731196 0.201117 0.435871 1.27249 0.17713 0.467754 1.31699 -0.0202649 
0.506975 1.3633 -0.190672 0.544491 1.3844 -0.324382 0.589195 1.39592 -0.412002 
0.63813 1.40008 -0.469493 0.687912 1.40943 -0.532511 0.737888 1.42653 -0.60816 
0.788759 1.4526 -0.695686 0.843911 1.4788 -0.765876 0.905558 1.50532 -0.809956 
0.960365 1.505 -0.835586 1.01075 1.49319 -0.859472 1.06038 1.48006 -0.884147 
1.11081 1.47574 -0.920812 1.16482 1.47772 -0.9537 1.22114 1.48746 -0.990568 
1.26413 1.47006 -1.03508 1.30935 1.45656 -1.07725 1.35723 1.44036 -1.10376 
1.40145 1.414 -1.12774 1.43902 1.37225 -1.1523 1.48318 1.34209 -1.16991 
1.53093 1.31824 -1.18374 1.57509 1.28809 -1.20135 1.61266 1.24634 -1.22591 
1.65688 1.21627 -1.24347 1.70547 1.1939 -1.25641 1.75486 1.17294 -1.26851 
1.80424 1.15198 -1.28061 1.85283 1.12961 -1.29355 1.89705 1.09954 -1.3111 
1.93457 1.05771 -1.33571 1.97794 1.02615 -1.35417 2.0213 0.994589 -1.37262 
2.05878 0.94897 -1.39087 2.10279 0.903747 -1.38297 2.15094 0.847281 -1.33862 
2.19969 0.777063 -1.26798 2.24849 0.706927 -1.19728 2.29753 0.652037 -1.15199 
2.34757 0.613701 -1.13132 2.40204 0.586856 -1.1124 2.463 0.560333 -1.06738 
2.51721 0.510837 -1.01021 2.56775 0.447472 -0.944099 2.62197 0.39427 -0.880513 
2.68367 0.357946 -0.815458 2.74401 0.322924 -0.758249 2.81183 0.301075 -0.693154 
2.88399 0.287048 -0.623357 2.95525 0.27133 -0.545961 3.01738 0.25195 -0.453569 
3.06397 0.223898 -0.331975 3.11336 0.179426 -0.185651 0.475092 1.18968 0.481587 
0.535835 1.12205 0.596974 0.603021 1.04724 0.751234 3.21402 0.102808 0.0453829 
3.26301 0.0478333 0.0906141 2.90063 0.511894 0.562343 2.93376 0.421781 0.621029 
2.94214 0.32753 0.677062 2.91709 0.230234 0.748259 2.9077 0.120772 0.820958 
2.892 0.0138366 0.895102 2.87095 -0.0876521 0.963846 2.86075 -0.201276 1.03405 
3.30743 -0.686666 0.314641 3.36881 -0.717784 0.348321 3.15251 -0.766659 0.504335 
3.07907 -0.851752 0.685873 2.9497 -0.896685 0.919621 2.92194 -0.850837 0.99843 
2.89611 -0.800671 1.0597 2.87053 -0.75503 1.12691 2.84475 -0.72585 1.22166 
2.93829 -0.388716 1.06962 2.83091 -0.449212 1.15347 2.81018 -0.570445 1.23632 
2.93147 -1.06571 0.896451 2.88593 -1.16122 0.959931 2.82331 -1.22167 0.998177 
2.71912 -1.27363 1.15323 2.68024 -1.29342 1.27907 2.64372 -1.30536 1.40101 
2.60484 -1.32515 1.52685 2.74698 -0.749324 1.35349 2.68564 -0.802666 1.3816 
2.6485 -0.877658 1.42289 2.62193 -0.968535 1.48065 2.59719 -1.06019 1.53797 
2.57428 -1.15262 1.59483 2.5621 -1.24196 1.63639 1.02924 -0.180919 2.11826 
1.05877 -0.244144 2.10671 1.07394 -0.327845 2.11734 1.07449 -0.41865 2.1495 
1.08852 -0.522864 2.19101 1.11158 -0.627091 2.22398 1.13633 -0.728213 2.25018 
1.16127 -0.825507 2.27005 1.18706 -0.917607 2.28438 1.21732 -0.994426 2.29061 
1.25432 -1.05199 2.29111 1.28474 -1.12114 2.28466 1.31147 -1.20417 2.28716 
1.34178 -1.28462 2.29986 1.37958 -1.34819 2.31403 1.41611 -1.40287 2.30762 
1.46018 -1.4369 2.29633 1.50792 -1.46075 2.2825 1.55213 -1.49083 2.26494 
1.59051 -1.53116 2.24122 1.6391 -1.55353 2.22828 1.69433 -1.56422 2.22234 
1.73708 -1.59686 2.20324 1.78214 -1.62544 2.18657 1.83082 -1.64764 2.17374 
1.88111 -1.66332 2.15617 1.93596 -1.66356 2.13059 1.99841 -1.63934 2.09377 
2.05873 -1.61145 2.04187 2.12217 -1.57437 1.98684 2.18259 -1.5426 1.92863 
2.24598 -1.50932 1.87997 2.30625 -1.48891 1.84086 2.36949 -1.4707 1.8177 
2.43056 -1.4526 1.78584 2.49927 -1.40625 1.73638 2.46594 -0.553988 2.13139 
2.42173 -0.523914 2.14896 2.38415 -0.482168 2.17352 2.33994 -0.452101 2.19107 
2.2914 -0.42965 2.20406 2.24285 -0.4072 2.21705 2.19864 -0.377133 2.23461 
2.16107 -0.335379 2.25918 2.11686 -0.305312 2.27673 2.06827 -0.282947 2.28967 
2.01888 -0.261984 2.30177 
LINES 40 574
18 33 51 52 53 54 55 56 57 58 59 60 61 62 63 64 65 66 36 
3 31 67 37 
7 37 68 69 70 71 72 34 
4 37 73 74 31 
3 37 75 36 
18 36 76 77 78 79 80 81 82 83 84 85 86 87 88 89 90 91 19 
5 35 92 93 94 28 
3 35 95 34 
4 35 96 97 29 
3 34 98 32 
5 28 99 100 101 33 
23 31 108 109 110 111 112 113 114 115 116 117 118 119 120 121 122 123 124 125 126 127 128 19 
12 32 129 130 131 132 133 134 135 136 137 138 31 
6 32 139 140 141 142 29 
6 29 145 146 147 148 28 
18 27 155 156 157 158 159 160 161 162 163 164 165 166 167 168 169 170 24 
4 27 171 172 20 
14 26 173 174 175 176 177 178 179 180 181 182 183 184 14 
25 19 185 186 187 188 189 190 191 192 193 194 195 196 197 198 199 200 201 202 203 204 205 206 207 16 
5 23 208 209 210 15 
4 22 211 212 18 
3 21 213 17 
63 18 214 215 216 217 218 219 220 221 222 223 224 225 226 227 228 229 230 231 232 233 234 235 236 237 238 239 240 241 242 243 244 245 246 247 248 249 250 251 252 253 254 255 256 257 258 259 260 261 262 263 264 265 266 267 268 269 270 271 272 273 274 5 
76 18 275 276 277 278 279 280 281 282 283 284 285 286 287 288 289 290 291 292 293 294 295 296 297 298 299 300 301 302 303 304 305 306 307 308 309 310 311 312 313 314 315 316 317 318 319 320 321 322 323 324 325 326 327 328 329 330 331 332 333 334 335 336 337 338 339 340 341 342 343 344 345 346 347 348 9 
57 17 349 350 351 352 353 354 355 356 357 358 359 360 361 362 363 364 365 366 367 368 369 370 371 372 373 374 375 376 377 378 379 380 381 382 383 384 385 386 387 388 389 390 391 392 393 394 395 396 397 398 399 400 401 402 403 15 
5 17 404 405 406 11 
4 15 407 408 13 
10 12 409 410 411 412 413 414 415 416 7 
4 9 417 418 10 
4 9 419 420 6 
7 6 421 422 423 424 425 4 
3 8 426 7 
4 7 427 428 4 
5 6 429 430 431 5 
6 5 432 433 434 435 2 
9 4 436 437 438 439 440 441 442 2 
38 3 443 444 445 446 447 448 449 450 451 452 453 454 455 456 457 458 459 460 461 462 463 464 465 466 467 468 469 470 471 472 473 474 475 476 477 478 2 
13 1 479 480 481 482 483 484 485 486 487 488 489 0 
18 33 38 39 40 41 42 43 44 45 46 47 48 49 50 30 143 144 27 
15 33 102 103 104 105 106 107 25 154 153 152 151 150 149 28 

POINT_DATA 490
SCALARS DY_raw double
LOOKUP_TABLE default
398.43 318.385 301.913 391.328 381.063 293.92 263.192 282.38 257.173 
246.509 270.468 334.972 375.725 227.046 432.205 241.467 308.305 256.429 
369.173 383.924 442.061 296.566 407.341 291.706 300.521 320.812 308.337 
347.285 350.934 344.429 372.941 335.197 302.806 357.68 361.816 350.033 
365.214 341.58 382.145 402.65 415.164 410.263 414.628 404.807 376.25 
372.271 383.629 375.787 364.938 367.105 396.895 448.262 514.868 589.161 
506.848 493.332 487.498 425.256 425.256 425.789 459.926 496.654 494.556 
470.373 440.687 399.679 363.828 328.386 379.42 427.304 416.158 422.403 
400.513 335.717 328.834 363.897 367.784 451.352 495.522 426.367 437.416 
434.3 435.842 481.011 446.225 453.963 440.267 449.669 406.976 429.167 
393.364 397.29 361.699 354.628 356.09 344.221 348.181 316.142 341.9 
362.826 380.325 353.432 393.639 388.345 372.741 320.44 311.794 311.056 
338.916 342.646 383.006 400.04 421.904 346.033 301.67 308.11 298.049 
301.815 303.37 303.37 283.211 292.76 312.101 334.349 365.57 378.985 
370.723 377.03 382.466 296.725 316.682 255.441 278.641 259.277 276.861 
275.375 307.67 319.945 316.971 347.792 339.761 308.233 305.464 365.166 
347.866 320.734 302.845 324.611 314.181 329.32 340.192 331.839 299.84 
291.006 290.255 394.526 390.135 432.538 455.49 455.49 408.106 418.111 
412.37 419.161 453.38 455.32 409.758 416.554 359.43 359.43 396.59 
502.786 470.44 277.053 287.578 287.026 296.533 290.108 288.601 282.076 
296.537 309.106 322.136 322.136 344.948 362.811 353.447 372.695 378.283 
373.013 335.705 335.705 333.697 323.796 323.796 354.04 354.04 397.99 
356.777 390.82 414.926 383.711 383.711 336.721 328.264 330.564 322.934 
321.098 333.338 243.595 215.83 359.293 395.613 313.728 395.201 418.822 
365.37 287.43 265.218 261.487 242.068 232.523 254.625 266.616 312.867 
350.836 317.83 346.401 360.312 347.62 419.607 424.95 384.07 421.156 
359.095 332.324 332.324 314.15 314.748 343.831 361.946 390.078 420.002 
366.198 415.751 384.99 437.303 437.303 419.927 378.027 419.57 386.533 
386.533 375.678 343.84 367.624 335.802 353.197 333.241 345.506 344.542 
342.587 337.328 391.872 365.398 437.989 458.659 458.659 443.667 451.379 
426.612 415.915 411.269 359.787 319.723 269.631 261.226 256.287 281.035 
290.957 279.636 283.814 283.725 283.725 305.552 321.42 334.369 343.141 
343.141 314.312 293.667 293.667 274.87 262.265 296.571 317.998 345.913 
345.913 352.289 352.289 329.471 285.204 333.599 399.25 449.325 449.325 
389.925 405.587 405.587 319.832 352.122 333.215 288.846 288.846 312.31 
293.538 330.413 314.347 358.158 323.486 351.458 341.303 318.199 346.133 
363.293 322.651 347.146 322.604 349.711 396.515 360.517 373.728 361.408 
361.408 389.156 355.482 355.482 350.331 332.642 368.376 351.632 387.053 
347.667 296.905 296.905 271.769 244.406 234.403 238.287 244.838 260.252 
255.045 261.823 273.241 275.059 303.161 314.708 307.255 329.444 337.835 
337.835 354.581 385.157 385.157 381.145 381.145 371.835 401.885 371.808 
369.349 386.708 386.708 354.23 350.136 350.136 415.08 432.666 432.666 
429.096 429.096 428.001 430.398 413.997 371.603 352.577 382.923 335.977 
339.804 362.544 358.769 358.769 341.323 269.404 288.804 322.746 276.636 
322.028 277.76 261.6 281.507 251.937 228.974 222.787 218.313 234.573 
243.972 265.807 185.871 214.26 412.181 350.771 322.85 303.257 329.582 
290.268 305.462 304.983 265.638 265.798 288.621 281.586 274.562 282.617 
311.032 290.861 354.695 265.649 301.989 341.538 302.576 306.968 313.612 
338.261 327.192 320.663 297.669 380.559 310.453 302.573 337.956 329.402 
347.264 337.955 333.843 257.922 238.677 240.351 268.043 258.584 304.266 
276.371 282.634 265.466 223.21 243.62 259.087 271.153 283.737 300.585 
315.38 301.216 334.282 334.282 334.853 360.266 360.266 357.876 352.052 
352.052 362.633 367.439 397.673 377.883 386.09 348.41 352.271 352.271 
336.094 333.193 310.06 315.084 299.765 299.765 309.547 288.929 288.929 
285.939 291.167 291.167 398.43 
FIELD FieldData 7
DY_minmax 1 490 double
0.527063 0.328582 0.287737 0.509452 0.483998 0.267918 0.191724 0.239305 0.176799 
0.150357 0.209767 0.369712 0.470762 0.102097 0.610811 0.137856 0.303587 0.174956 
0.454516 0.491092 0.63525 0.27448 0.549157 0.262429 0.284285 0.334599 0.303667 
0.400243 0.409291 0.39316 0.46386 0.37027 0.289953 0.426019 0.436274 0.407056 
0.444699 0.386096 0.486682 0.537525 0.568555 0.556403 0.567227 0.542875 0.472064 
0.462197 0.490361 0.470918 0.444015 0.449388 0.523255 0.650627 0.815782 1 
0.795896 0.762383 0.747916 0.59358 0.59358 0.594902 0.679547 0.77062 0.765418 
0.705453 0.631843 0.53016 0.441262 0.353381 0.479925 0.598659 0.57102 0.586507 
0.532228 0.371558 0.354491 0.441434 0.451072 0.658289 0.767813 0.596335 0.623732 
0.616006 0.619829 0.731831 0.645576 0.664763 0.630801 0.654115 0.548253 0.603278 
0.514501 0.524236 0.435984 0.41845 0.422076 0.392645 0.402465 0.32302 0.386889 
0.438777 0.482168 0.415485 0.515183 0.502056 0.463364 0.333676 0.312239 0.31041 
0.379492 0.38874 0.488816 0.531054 0.585268 0.397139 0.287135 0.303103 0.278156 
0.287495 0.291352 0.291352 0.241365 0.265042 0.313 0.368166 0.445582 0.478845 
0.458359 0.473999 0.487477 0.274873 0.324359 0.172504 0.230033 0.182017 0.225619 
0.221933 0.302013 0.332451 0.325075 0.401499 0.381585 0.303409 0.296544 0.44458 
0.401683 0.334406 0.29005 0.344021 0.318158 0.355696 0.382656 0.361943 0.282598 
0.260693 0.25883 0.517382 0.506494 0.611636 0.668549 0.668549 0.551056 0.575862 
0.561628 0.578466 0.663318 0.668127 0.555152 0.572004 0.430358 0.430358 0.5225 
0.785825 0.705618 0.226096 0.252193 0.250824 0.274398 0.258467 0.25473 0.238549 
0.274408 0.305574 0.337882 0.337882 0.394447 0.43874 0.415521 0.46325 0.477105 
0.464037 0.37153 0.37153 0.366549 0.342 0.342 0.416991 0.416991 0.525971 
0.423779 0.508193 0.567967 0.490566 0.490566 0.374047 0.353078 0.35878 0.339861 
0.33531 0.365659 0.143132 0.074286 0.430018 0.520076 0.317034 0.519055 0.577627 
0.445085 0.251825 0.196747 0.187497 0.139346 0.115677 0.170483 0.200214 0.314899 
0.409047 0.327207 0.398051 0.432544 0.401074 0.579572 0.592821 0.491454 0.583413 
0.429527 0.363144 0.363144 0.318081 0.319565 0.391677 0.436595 0.506352 0.580552 
0.447139 0.570011 0.493736 0.623453 0.623453 0.580366 0.47647 0.57948 0.497563 
0.497563 0.470647 0.391701 0.450675 0.37177 0.414903 0.365418 0.395832 0.393441 
0.388594 0.375553 0.5108 0.445156 0.625153 0.676407 0.676407 0.639233 0.658354 
0.596942 0.570419 0.558897 0.431242 0.331899 0.207692 0.186849 0.174604 0.235969 
0.26057 0.2325 0.24286 0.24264 0.24264 0.296761 0.336107 0.368215 0.389967 
0.389967 0.318483 0.267292 0.267292 0.220681 0.189425 0.274493 0.327622 0.396841 
0.396841 0.412651 0.412651 0.356072 0.246306 0.366307 0.529094 0.653261 0.653261 
0.505973 0.544809 0.544809 0.332169 0.412236 0.365355 0.255336 0.255336 0.313517 
0.266972 0.358407 0.318569 0.427204 0.34123 0.41059 0.385409 0.328121 0.397385 
0.439935 0.339161 0.399897 0.339044 0.406259 0.522313 0.433053 0.46581 0.435263 
0.435263 0.504066 0.420567 0.420567 0.407795 0.363934 0.452539 0.411022 0.498852 
0.40119 0.275319 0.275319 0.212993 0.145144 0.120338 0.129971 0.146214 0.184434 
0.171523 0.188331 0.216643 0.221149 0.290832 0.319464 0.300984 0.356003 0.376811 
0.376811 0.418334 0.49415 0.49415 0.484201 0.484201 0.461118 0.535629 0.461051 
0.454954 0.497997 0.497997 0.417463 0.407313 0.407313 0.568348 0.611954 0.611954 
0.603102 0.603102 0.600387 0.60633 0.565662 0.460541 0.413364 0.48861 0.372203 
0.381693 0.43808 0.428717 0.428717 0.385459 0.207129 0.255232 0.339396 0.225061 
0.337615 0.227849 0.187778 0.237138 0.163817 0.106878 0.0915373 0.0804431 0.12076 
0.144068 0.198209 0 0.070392 0.561159 0.408886 0.339654 0.29107 0.356346 
0.258863 0.296539 0.295349 0.197791 0.198186 0.254778 0.237334 0.219917 0.239892 
0.310348 0.260334 0.418617 0.197818 0.287927 0.385993 0.289381 0.300271 0.316746 
0.377866 0.350419 0.33423 0.277214 0.48275 0.308914 0.289375 0.377109 0.355899 
0.400191 0.377108 0.366911 0.178658 0.130938 0.135088 0.203753 0.180298 0.293572 
0.224403 0.239933 0.197365 0.0925839 0.143194 0.181546 0.211465 0.242668 0.284444 
0.321131 0.286009 0.367999 0.367999 0.369417 0.432431 0.432431 0.426504 0.412062 
0.412062 0.438299 0.450216 0.525185 0.476115 0.496463 0.403033 0.412607 0.412607 
0.372493 0.365299 0.307939 0.320396 0.282412 0.282412 0.306667 0.255542 0.255542 
0.248128 0.261092 0.261092 0.527063 
WidthEq 1 490 double
1.40283 2.54695 2.51249 1.63543 1.73221 2.30363 3.1243 2.64105 2.12025 
3.42414 1.84732 1.94676 2.5631 3.91075 1.5274 3.83887 2.30541 3.96016 
1.9411 2.29067 1 3.18155 1.31227 2.211 1.32344 3.03066 1.73372 
2.03698 3.12569 3.14179 2.69541 2.59662 2.73446 2.92887 2.8889 3.15359 
2.76534 2.74323 2.91675 2.68581 2.48883 2.4028 2.34589 2.39097 2.43753 
2.47946 2.42607 2.50895 2.71992 2.74464 2.59238 2.00195 1.7307 1.37032 
1.41705 1.37676 1.47357 1.59542 1.59542 1.63339 1.71748 1.5744 1.7245 
1.87116 2.03072 2.37013 2.72986 2.74031 2.51895 2.28133 2.43168 2.46315 
2.66795 2.79078 2.72323 2.79247 2.81078 2.03019 1.66982 1.80748 1.59665 
1.43429 1.54058 1.42126 1.76819 2.02131 2.24126 2.31546 2.65996 2.53589 
2.60731 2.4716 2.98848 3.05783 3.07681 3.14284 3.29981 3.32019 2.91018 
3.09121 3.01716 3.0216 2.9743 2.80011 2.54271 2.93266 3.00073 3.06829 
2.10126 1.76748 1.52463 1.5323 1.53803 1.72605 1.9405 1.91173 1.96864 
1.97214 1.87233 1.87233 1.85996 1.79642 1.76036 1.77629 1.72969 1.70078 
1.57789 1.87049 1.9801 2.60663 2.59074 2.73093 2.68284 2.67733 2.62385 
2.66855 2.49209 2.5134 2.75916 2.84193 2.7017 3.01808 3.12171 2.43596 
2.26895 3.03127 3.10509 3.12691 3.18043 2.99008 2.79101 2.7225 2.96238 
3.08279 3.07813 1.85714 1.76042 1.50609 1.36062 1.36062 1.40809 1.38763 
1.50608 1.56539 1.49813 1.65971 1.77944 1.77751 1.88577 1.88577 1.38259 
1.51981 1.38332 2.43556 2.84629 2.82964 2.9329 2.97307 3.01278 2.9535 
2.81331 2.68044 2.45952 2.45952 2.12354 2.41446 2.43053 2.39045 2.27571 
2.04318 2.05838 2.05838 1.92337 1.69508 1.69508 1.48783 1.48783 1.39745 
1.48723 1.43634 1.51772 1.84449 1.84449 2.12942 2.22187 2.18309 2.32172 
2.27189 2.20758 3.30799 4.02016 1.79803 1.70232 3.26025 1.8773 2.07898 
2.70614 3.50222 3.83433 4.03015 3.95422 3.76876 3.61979 3.13489 2.77121 
2.53333 2.4874 2.37473 2.25091 2.18164 2.01558 1.95212 1.86828 1.74546 
1.80551 1.86716 1.86716 1.83454 1.74832 1.6863 1.60591 1.52219 1.42 
1.56159 1.45893 1.55121 1.49183 1.49183 1.59445 1.68404 1.60736 1.69471 
1.69471 1.57957 1.66703 1.47668 1.62855 1.69121 1.73082 1.79945 1.88892 
1.89803 1.91075 1.76509 1.85617 1.65804 1.60328 1.60328 1.54436 1.51421 
1.59152 1.63416 1.63815 1.82091 2.29662 2.40495 2.49942 2.54715 2.48514 
2.35008 2.53802 2.27431 2.31982 2.31982 2.09592 2.05401 1.96445 1.89462 
1.89462 1.97498 2.15142 2.15142 2.24485 2.35728 2.22992 2.17373 2.05919 
2.05919 1.99345 1.99345 2.06155 2.14019 1.97465 1.77879 1.6582 1.6582 
1.80302 1.76655 1.76655 1.94059 1.86799 1.86513 2.03628 2.03628 2.01816 
2.12504 1.9222 2.10284 1.8727 2.04191 1.88085 1.91467 1.98272 1.91626 
1.91854 1.9641 1.8808 1.86114 1.80572 1.59568 1.69424 1.63761 1.68024 
1.68024 1.68085 1.78212 1.78212 1.86992 1.93262 1.87773 2.11832 2.06706 
2.18295 2.65223 2.65223 2.94905 3.30716 3.43956 3.48 4.01731 3.51817 
3.41046 3.25105 3.02063 2.94225 2.54248 2.33239 2.43713 2.21562 2.12492 
2.12492 1.89114 1.65733 1.65733 1.63277 1.63277 1.59703 1.50347 1.63574 
1.60036 1.53638 1.53638 1.57395 1.56779 1.56779 1.45314 1.44049 1.44049 
1.47515 1.47515 1.4875 1.50257 1.57291 1.68522 1.75554 1.68515 1.85123 
1.97382 1.90283 2.22977 2.22977 2.41965 2.93366 2.81091 2.7508 3.23089 
2.8456 3.06318 3.03907 2.90118 3.1839 3.40222 3.79627 4.15541 4.08795 
3.81302 2.857 4.54535 4.02811 2.51708 3.02816 3.20886 3.19119 2.9748 
2.89653 2.97386 2.85899 3.20711 2.89288 3.16818 3.16604 2.94561 2.62543 
2.22373 2.23261 1.82244 2.45414 2.38601 2.08955 2.80627 2.64136 2.56423 
2.28324 2.23762 2.23802 2.36649 1.72538 2.11942 2.26329 2.06448 2.29981 
2.21664 2.27489 2.18268 2.84698 3.22805 3.34936 3.18849 3.29553 2.886 
3.03846 3.05834 3.07369 3.03876 2.93626 2.69192 2.64025 2.47377 2.40841 
2.34057 2.38009 2.39867 2.39867 2.44833 2.43262 2.43262 2.38035 2.36608 
2.36608 2.17882 2.07545 1.98902 2.00398 1.89068 2.00494 2.14295 2.14295 
2.34456 2.43208 2.51607 2.78177 3.18556 3.18556 3.02636 3.01393 3.01393 
2.71272 2.43476 2.43476 1.40283 
rRFP 1 490 double
3241.21 4065.8 4040.96 3408.85 3478.6 3890.43 4481.91 4133.62 3758.27 
4698.01 3561.56 3633.23 4077.44 5048.72 3330.99 4996.91 3891.72 5084.33 
3629.15 3881.09 2950.88 4523.17 3175.94 3823.67 3183.99 4414.42 3479.69 
3698.25 4482.91 4494.51 4172.8 4101.6 4200.94 4341.06 4312.25 4503.02 
4223.2 4207.26 4332.32 4165.88 4023.91 3961.91 3920.89 3953.38 3986.94 
4017.16 3978.68 4038.41 4190.46 4208.28 4098.54 3673.01 3477.51 3217.78 
3251.46 3222.42 3292.19 3380.01 3380.01 3407.38 3467.98 3364.86 3473.04 
3578.74 3693.74 3938.36 4197.63 4205.16 4045.62 3874.36 3982.72 4005.4 
4153.01 4241.53 4192.85 4242.75 4255.95 3693.36 3433.63 3532.85 3380.9 
3263.88 3340.49 3254.49 3504.53 3686.96 3845.48 3898.96 4147.25 4057.83 
4109.3 4011.49 4384.02 4434 4447.68 4495.27 4608.4 4623.09 4327.59 
4458.06 4404.69 4407.89 4373.8 4248.26 4062.74 4343.79 4392.85 4441.54 
3744.58 3504.02 3328.99 3334.52 3338.65 3474.16 3628.72 3607.98 3649 
3651.52 3579.59 3579.59 3570.67 3524.88 3498.89 3510.37 3476.78 3455.95 
3367.38 3578.26 3657.26 4108.81 4097.36 4198.4 4163.74 4159.77 4121.22 
4153.44 4026.26 4041.62 4218.74 4278.4 4177.33 4405.35 4480.04 3985.81 
3865.44 4414.86 4468.06 4483.79 4522.36 4385.17 4241.7 4192.32 4365.21 
4451.99 4448.63 3568.64 3498.93 3315.63 3210.79 3210.79 3245 3230.25 
3315.62 3358.37 3309.89 3426.35 3512.64 3511.25 3589.27 3589.27 3226.62 
3325.52 3227.15 3985.52 4281.54 4269.54 4343.96 4372.91 4401.53 4358.81 
4257.77 4162.01 4002.79 4002.79 3760.64 3970.31 3981.89 3953.01 3870.31 
3702.72 3713.68 3713.68 3616.37 3451.84 3451.84 3302.47 3302.47 3237.33 
3302.04 3265.36 3324.01 3559.52 3559.52 3764.88 3831.51 3803.56 3903.47 
3867.56 3821.21 4614.3 5127.57 3526.04 3457.06 4579.89 3583.17 3728.52 
4180.53 4754.28 4993.64 5134.77 5080.05 4946.38 4839.02 4489.54 4227.43 
4055.98 4022.88 3941.68 3852.44 3802.51 3682.83 3637.09 3576.67 3488.15 
3531.43 3575.86 3575.86 3552.35 3490.21 3445.51 3387.57 3327.23 3253.58 
3355.63 3281.64 3348.15 3305.35 3305.35 3379.31 3443.88 3388.62 3451.57 
3451.57 3368.59 3431.62 3294.43 3403.89 3449.05 3477.6 3527.06 3591.54 
3598.11 3607.28 3502.3 3567.94 3425.14 3385.68 3385.68 3343.21 3321.48 
3377.2 3407.93 3410.81 3542.53 3885.38 3963.46 4031.54 4065.94 4021.25 
3923.91 4059.36 3869.3 3902.1 3902.1 3740.73 3710.53 3645.98 3595.65 
3595.65 3653.57 3780.73 3780.73 3848.07 3929.1 3837.31 3796.81 3714.26 