# vtk DataFile Version 3.0
vtk output
ASCII
DATASET POLYDATA
POINTS 608 float
5.9981 0.276493 2.38426 5.65856 -0.0377583 2.54746 6.02402 -0.510611 2.16106 
6.41792 -0.242036 2.58944 6.81115 -0.0977477 2.59179 6.44453 0.141736 2.05882 
6.5215 -0.140301 2.18368 6.64433 -0.268904 2.3986 6.92477 -0.173665 2.40087 
5.84452 -1.08122 2.03257 6.07245 0.635938 1.77355 6.17311 -0.109794 1.96861 
6.37159 -0.50455 2.00603 6.52951 0.365918 1.94402 6.75879 -0.469786 2.01667 
0.801225 0.154714 1.56244 6.02859 -1.15826 1.80513 1.20203 -0.705001 1.44214 
2.20802 -0.427853 1.4553 2.60425 -0.228804 1.45352 6.18454 -1.184 1.6508 
6.23726 -1.36658 1.46605 2.718 0.558876 0.994961 -0.0983582 0.251031 0.721129 
0.621213 0.61128 0.651081 2.16698 0.407716 0.786985 3.16242 -0.174971 0.866409 
0.652104 0.746067 0.507891 2.40241 0.545132 0.583725 2.77758 0.360851 0.610922 
2.9491 0.336839 0.41797 4.22784 -1.1436 0.275636 1.11996 0.966137 0.105512 
1.50415 0.94614 0.120289 2.37028 0.681388 0.170625 -0.107741 0.520688 -0.102959 
1.30951 -1.87472 -0.0692674 -0.00676512 -1.06753 -0.57857 -0.061919 -0.0147676 -1.06348 
0.429561 0.582052 -1.0928 0.533312 0.466817 -1.0803 3.34728 -1.93309 -1.06508 
3.26916 -1.59215 -1.62943 3.69281 -1.55518 -1.41699 1.40614 -1.04529 -1.93667 
2.22769 -1.16631 -1.96592 2.14306 -1.22951 -1.96145 2.07529 -1.28235 -1.94482 
2.01592 -1.31905 -1.91924 1.95986 -1.32948 -1.91045 1.90501 -1.33114 -1.91964 
1.85023 -1.34188 -1.943 1.79423 -1.36452 -1.95061 1.7392 -1.35916 -1.94548 
1.68559 -1.31758 -1.92825 1.63243 -1.27283 -1.91868 1.57878 -1.24162 -1.91551 
1.52565 -1.1945 -1.92099 1.46956 -1.12936 -1.92797 2.29159 -1.21923 -1.9274 
2.3492 -1.24094 -1.90143 2.40363 -1.25764 -1.88835 2.45698 -1.28741 -1.88173 
2.51121 -1.30214 -1.87872 2.56598 -1.30703 -1.87645 2.62075 -1.31202 -1.87418 
2.67488 -1.32868 -1.87103 2.72737 -1.36989 -1.85859 2.77925 -1.41179 -1.83126 
2.8312 -1.43688 -1.78292 2.88271 -1.46482 -1.72694 2.93531 -1.47815 -1.6795 
2.98867 -1.49309 -1.6542 3.04194 -1.52253 -1.64265 3.09853 -1.53901 -1.63943 
3.1693 -1.55569 -1.6357 2.19114 -1.08111 -1.94156 2.15552 -1.01343 -1.92573 
2.13106 -0.955247 -1.92117 2.09119 -0.900483 -1.93174 2.04134 -0.856659 -1.95915 
1.98951 -0.831461 -2.00749 1.93774 -0.803163 -2.05607 1.88443 -0.792428 -2.08848 
1.82909 -0.797706 -2.08997 1.77327 -0.811855 -2.0908 1.71856 -0.80783 -2.09299 
1.66391 -0.835978 -2.09269 1.61711 -0.882262 -2.06098 1.58479 -0.930028 -2.01379 
1.5372 -0.967894 -1.96789 1.4771 -0.995482 -1.94552 1.3245 -1.02461 -1.89648 
1.25948 -1.01189 -1.86253 1.20266 -0.993547 -1.82874 1.14817 -0.961407 -1.80337 
1.09291 -0.944504 -1.77685 1.03753 -0.940394 -1.76421 0.981847 -0.946802 -1.75819 
0.926133 -0.95903 -1.75916 0.872082 -0.940989 -1.76242 0.817595 -0.925682 -1.75805 
0.7627 -0.90742 -1.73905 0.708031 -0.874641 -1.7063 0.652527 -0.857057 -1.67241 
0.596992 -0.850453 -1.65253 0.541716 -0.844312 -1.64004 0.487086 -0.826412 -1.62844 
0.433685 -0.780978 -1.6115 0.380935 -0.723675 -1.59545 0.328146 -0.663885 -1.57217 
0.276672 -0.602936 -1.53406 0.235166 -0.542505 -1.49557 0.209297 -0.484006 -1.47125 
0.169426 -0.427013 -1.47704 0.121258 -0.369029 -1.47576 0.082307 -0.309848 -1.45195 
0.0667623 -0.248465 -1.3829 0.0498974 -0.184048 -1.29183 0.00368201 -0.10856 -1.18033 
3.3579 -1.52637 -1.60174 3.42314 -1.51149 -1.55605 3.47723 -1.52195 -1.50133 
3.53142 -1.50803 -1.45594 3.58543 -1.5111 -1.43154 3.63868 -1.53863 -1.42014 
3.21472 -1.68145 -1.49801 3.2042 -1.74374 -1.37707 3.23668 -1.79652 -1.27027 
3.28719 -1.85616 -1.16727 3.42198 -1.93804 -0.903528 3.48126 -1.93567 -0.767862 
3.53434 -1.93212 -0.674621 3.58729 -1.92822 -0.61115 3.6414 -1.91384 -0.565801 
3.69664 -1.87388 -0.51496 3.75189 -1.8338 -0.464117 3.80612 -1.81739 -0.418922 
3.86112 -1.80259 -0.395875 3.91764 -1.76334 -0.382098 3.97273 -1.71165 -0.361906 
4.01695 -1.65523 -0.31272 4.04528 -1.5962 -0.241972 4.08823 -1.53681 -0.155896 
4.14154 -1.47908 -0.0841881 4.19509 -1.42202 -0.0235799 4.23593 -1.36081 0.039992 
4.24354 -1.27512 0.14141 3.27371 -1.99046 -1.00122 3.20932 -2.0296 -0.933492 
3.15019 -2.04839 -0.87212 3.09205 -2.07105 -0.825288 3.03564 -2.08037 -0.804207 
2.97974 -2.09084 -0.797884 2.92326 -2.11698 -0.797804 2.86707 -2.13786 -0.79812 
2.81034 -2.16343 -0.790656 2.75393 -2.17275 -0.769576 2.69676 -2.18027 -0.726363 
2.63861 -2.20047 -0.674753 2.58154 -2.20605 -0.631686 2.52579 -2.2034 -0.611511 
2.47064 -2.20008 -0.606231 2.41576 -2.19722 -0.608342 2.36063 -2.19368 -0.603078 
2.30508 -2.18719 -0.583193 2.24933 -2.16903 -0.54192 2.19414 -2.13521 -0.494395 
2.13839 -2.11705 -0.453123 2.08259 -2.10999 -0.425855 2.02669 -2.10473 -0.39845 
1.97029 -2.09845 -0.35628 1.91362 -2.09158 -0.306717 1.85696 -2.08472 -0.257163 
1.80055 -2.07844 -0.214993 1.74388 -2.07158 -0.16544 1.68722 -2.06472 -0.115876 
1.63081 -2.05832 -0.0737142 1.57527 -2.05182 -0.05383 1.52079 -2.03642 -0.049463 
1.4675 -2.00458 -0.0537651 1.41403 -1.97594 -0.0578249 1.3615 -1.9303 -0.0631702 
0.481437 0.524434 -1.08655 0.476441 0.412734 -1.10781 0.420176 0.359319 -1.1502 
0.364718 0.315388 -1.20075 0.309936 0.288937 -1.24519 0.254218 0.259047 -1.26709 
0.200091 0.235354 -1.27456 0.15476 0.194808 -1.27298 0.123688 0.143963 -1.26267 
0.0759622 0.0931843 -1.23064 0.0128539 0.0419757 -1.16195 0.588309 0.465991 -1.07834 
0.643853 0.475112 -1.07714 0.700325 0.50114 -1.07721 0.756515 0.52202 -1.07689 
0.812994 0.548156 -1.07697 0.868648 0.559309 -1.07592 0.924397 0.572174 -1.075 
0.981422 0.608248 -1.07583 1.03844 0.644212 -1.07666 1.09409 0.655264 -1.0756 
1.14919 0.656361 -1.07378 1.20474 0.665491 -1.07258 1.2611 0.689587 -1.07251 
1.31689 0.698027 -1.07868 1.37239 0.695949 -1.09147 1.42831 0.691023 -1.1189 
1.48431 0.687801 -1.14645 1.54112 0.693853 -1.18214 1.59839 0.71373 -1.21144 
1.6543 0.708585 -1.23886 1.70831 0.679564 -1.24961 1.76281 0.664366 -1.25399 
1.81759 0.659688 -1.25175 1.87257 0.658544 -1.24976 1.928 0.665634 -1.24841 
1.98372 0.677861 -1.24743 2.03752 0.660493 -1.2368 2.0911 0.649405 -1.2118 
2.14436 0.648167 -1.16527 2.19771 0.648633 -1.11886 2.25158 0.648064 -1.08722 
2.30671 0.644526 -1.09249 2.36225 0.638032 -1.11237 2.41775 0.620338 -1.14626 
2.47206 0.58621 -1.17148 2.52681 0.554825 -1.20434 2.58072 0.508357 -1.23604 
2.63499 0.463138 -1.27528 2.69038 0.443513 -1.30902 2.74581 0.434987 -1.32876 
2.80054 0.4189 -1.34049 2.85434 0.385915 -1.35095 2.90858 0.355675 -1.36904 
2.96173 0.310813 -1.3786 3.01462 0.266422 -1.38078 3.06799 0.235966 -1.37658 
3.12062 0.192148 -1.37137 3.17325 0.14833 -1.36616 3.22662 0.117873 -1.36197 
3.27926 0.0740549 -1.35676 3.33189 0.0302367 -1.35155 3.38525 -0.000318811 -1.34735 
3.43778 -0.0460689 -1.34199 3.48976 -0.101765 -1.33589 3.54164 -0.159273 -1.32964 
3.59352 -0.216891 -1.32339 3.6454 -0.27451 -1.31714 3.69728 -0.332018 -1.3109 
3.74926 -0.387714 -1.3048 3.80154 -0.432782 -1.29207 3.85424 -0.459801 -1.26586 
3.9059 -0.490251 -1.21712 3.95759 -0.514871 -1.16139 4.0087 -0.555159 -1.11191 
4.06032 -0.596689 -1.07718 4.11241 -0.624385 -1.03606 4.16265 -0.664988 -0.964287 
4.21133 -0.713249 -0.862226 4.25991 -0.763322 -0.760028 4.30924 -0.815221 -0.679972 
4.35923 -0.86883 -0.622061 4.40729 -0.922339 -0.564224 4.44335 -0.975222 -0.506839 
4.45056 -1.0266 -0.450572 4.43527 -1.07591 -0.384093 4.39601 -1.11793 -0.255807 
4.33929 -1.14363 -0.0290373 -0.147637 0.0128187 -0.905023 -0.214794 0.0170348 -0.773844 
-0.26287 -0.0129312 -0.669105 -0.283071 -0.0574673 -0.569704 -0.291922 -0.103435 -0.454938 
-0.299471 -0.148462 -0.325337 -0.308871 -0.192833 -0.188404 -0.326424 -0.236782 -0.0517946 
-0.348762 -0.281039 0.0772476 -0.33843 -0.328114 0.19276 -0.320334 -0.377829 0.279007 
-0.282606 -0.43024 0.34384 -0.234181 -0.484327 0.394298 -0.184194 -0.537936 0.452209 
-0.134097 -0.59155 0.510134 -0.0837464 -0.645737 0.560666 -0.0326266 -0.701529 0.589049 
0.0191009 -0.756654 0.602538 0.0716282 -0.802403 0.607892 0.124991 -0.832959 0.612097 
0.177626 -0.876777 0.617305 0.230265 -0.920496 0.622505 0.283734 -0.94912 0.626563 
0.336915 -0.983002 0.63102 0.390383 -1.01163 0.635079 0.443023 -1.05534 0.640279 
0.495663 -1.09906 0.645479 0.549132 -1.12769 0.649538 0.602312 -1.16157 0.653994 
0.655775 -1.1903 0.658062 0.708309 -1.23594 0.663407 0.760296 -1.29153 0.669504 
0.812284 -1.34712 0.675601 0.864818 -1.39276 0.680947 0.918286 -1.42139 0.685006 
0.971573 -1.45334 0.689317 1.02595 -1.47067 0.685095 1.08058 -1.48857 0.6735 
1.13488 -1.52281 0.648286 1.18951 -1.55429 0.615434 1.2423 -1.60498 0.554269 
1.2839 -1.66795 0.45651 1.30017 -1.73534 0.306183 1.30555 -1.80451 0.125874 
0.0428297 -1.11989 -0.505895 0.0927774 -1.17101 -0.440742 0.143782 -1.21332 -0.391108 
0.196122 -1.24169 -0.357371 0.247887 -1.28573 -0.329877 0.299107 -1.33971 -0.301631 
0.350741 -1.39654 -0.288013 0.402975 -1.4528 -0.289291 0.456012 -1.4997 -0.298694 
0.509121 -1.52968 -0.287106 0.56049 -1.57053 -0.245009 0.611457 -1.60831 -0.18828 
0.664053 -1.62165 -0.140837 0.717953 -1.62685 -0.116278 0.771819 -1.64305 -0.105732 
0.824571 -1.68472 -0.100686 0.877323 -1.7264 -0.0956404 0.931444 -1.74317 -0.0924778 
0.986106 -1.75009 -0.0900597 1.04023 -1.76685 -0.0868971 1.09297 -1.80864 -0.0818431 
1.14562 -1.85214 -0.0766596 1.19921 -1.87863 -0.0727617 1.25325 -1.89678 -0.0694945 
-0.0498524 0.572483 -0.10498 0.00793598 0.622467 -0.106863 0.0651726 0.662394 -0.107986 
0.12148 0.685414 -0.107831 0.178318 0.712901 -0.115441 0.235028 0.732856 -0.129898 
0.292369 0.759089 -0.152256 0.348564 0.780079 -0.151948 0.40402 0.808394 -0.122496 
0.457017 0.823125 -0.047477 0.508591 0.827594 0.0505981 0.558399 0.82067 0.179221 
0.605956 0.78839 0.332042 2.31764 0.725107 0.165425 2.26416 0.753632 0.161374 
2.21113 0.78501 0.14968 2.15777 0.80005 0.124377 2.10517 0.813275 0.0769423 
2.05329 0.839652 0.0285027 1.99997 0.850168 -0.00388458 1.94454 0.843187 -0.00525201 
1.88829 0.821123 -0.00547913 1.83366 0.823407 -0.0149735 1.78066 0.850141 -0.0337332 
1.72617 0.865448 -0.0293587 1.67022 0.875007 0.00513729 1.61422 0.893846 0.0537954 
1.5593 0.927196 0.0939195 2.37652 0.636202 0.30815 2.39616 0.590318 0.4462 
2.42934 0.686927 0.0755839 2.4889 0.717173 0.000955225 2.54759 0.747212 -0.0513878 
2.60436 0.742284 -0.101087 2.65965 0.710501 -0.148767 2.71516 0.692907 -0.182655 
2.76982 0.686098 -0.180246 2.82241 0.672663 -0.132794 2.87251 0.634665 -0.0537791 
2.9212 0.586512 0.0482636 2.96956 0.53645 0.150454 3.01406 0.486479 0.252493 
3.03552 0.436032 0.331487 3.00372 0.386679 0.386252 1.0642 0.953162 0.104598 
1.00718 0.917088 0.105429 0.950152 0.881015 0.106261 0.894142 0.868613 0.11273 
0.837364 0.857817 0.141348 0.777687 0.825431 0.216139 0.715584 0.78528 0.343494 
4.26009 -1.01872 0.530974 4.30524 -0.934831 0.723032 4.35805 -0.884136 0.824995 
4.4124 -0.856773 0.880505 4.46787 -0.828259 0.909942 4.52225 -0.814346 0.947909 
4.57663 -0.800445 0.985867 4.63133 -0.770304 1.03745 4.68548 -0.744948 1.09682 
4.73956 -0.715705 1.16333 4.79216 -0.713314 1.23186 4.84338 -0.736155 1.3023 
4.89522 -0.747554 1.37187 4.94706 -0.759163 1.44147 4.99832 -0.786437 1.50482 
5.05037 -0.809709 1.55301 5.10279 -0.841765 1.5796 5.15575 -0.869245 1.59843 
5.20789 -0.911711 1.61838 5.25988 -0.951683 1.64556 5.3136 -0.965373 1.66335 
5.36841 -0.959171 1.67962 5.42361 -0.945799 1.69535 5.47727 -0.960565 1.71321 
5.53263 -0.96003 1.70765 5.59068 -0.926134 1.67728 5.64972 -0.87923 1.63851 
5.70812 -0.828579 1.62172 5.76551 -0.775531 1.63446 5.82187 -0.720304 1.67672 
5.87742 -0.665004 1.74274 5.93255 -0.616273 1.84048 5.98821 -0.57435 1.98486 
4.11094 -1.05584 0.476679 4.03235 -0.994043 0.629016 3.97202 -0.967084 0.721495 
3.91584 -0.945891 0.773668 3.86077 -0.909938 0.821022 3.80553 -0.877299 0.868637 
3.75121 -0.827656 0.914957 3.69817 -0.769111 0.945757 3.64913 -0.709516 0.969187 
3.62054 -0.652102 0.978627 3.62208 -0.598074 0.989356 3.59259 -0.551847 1.00707 
3.54183 -0.518533 1.0399 3.48823 -0.470044 1.07147 3.43563 -0.415125 1.08028 
3.38335 -0.370057 1.06755 3.33098 -0.341648 1.03381 3.27908 -0.298045 0.991471 
3.22453 -0.241523 0.933177 2.89192 0.344843 0.482291 2.83475 0.352847 0.546601 
2.99538 0.291804 0.586598 3.04294 0.243908 0.718329 3.09216 0.192015 0.79838 
3.14099 0.136791 0.834077 3.17868 0.0804699 0.847175 3.18956 0.0249154 0.851855 
3.18784 -0.0312704 0.856149 3.17981 -0.0949969 0.860811 2.34122 0.500772 0.681701 
2.28115 0.456045 0.749998 2.223 0.420228 0.780507 2.4549 0.545392 0.652421 
2.50811 0.532954 0.684954 2.56127 0.503816 0.696468 2.61434 0.493982 0.736231 
2.66632 0.511001 0.840774 0.641024 0.685984 0.576596 3.07533 -0.217124 0.963322 
3.006 -0.236049 1.06647 2.94482 -0.255457 1.16252 2.88681 -0.261389 1.22788 
2.8299 -0.269363 1.26371 2.77262 -0.289349 1.29302 2.71621 -0.283061 1.33519 
2.66067 -0.250498 1.39023 0.65419 0.549124 0.756157 0.651102 0.496459 0.84934 
0.663252 0.446002 0.930483 0.667987 0.396012 1.00391 0.664871 0.345727 1.06717 
0.662234 0.294966 1.12305 0.671483 0.245405 1.17924 0.707284 0.206671 1.26525 
0.754291 0.185944 1.39486 0.53922 0.601275 0.658948 0.474204 0.588034 0.657736 
0.416501 0.560919 0.652892 0.360303 0.5377 0.647799 0.303172 0.499694 0.648777 
0.245782 0.462161 0.657146 0.188866 0.438463 0.671895 0.130861 0.400142 0.695168 
0.0725704 0.351412 0.7118 0.0145389 0.30222 0.72105 -0.0425976 0.264116 0.722035 
6.23685 -1.30885 1.49873 6.22374 -1.24822 1.56048 6.11448 -1.15689 1.71505 
6.24242 -1.13232 1.64879 6.30011 -1.08425 1.64705 6.35694 -1.05678 1.63944 
6.41253 -1.06241 1.61949 6.46999 -1.04956 1.57588 6.52798 -1.03246 1.5245 
6.58673 -0.996075 1.47911 6.64528 -0.947917 1.45509 6.70305 -0.898153 1.45322 
6.75943 -0.858333 1.47438 6.81366 -0.841927 1.51957 6.86753 -0.826761 1.5723 
6.92238 -0.797097 1.61649 6.97574 -0.771788 1.6461 7.02007 -0.728954 1.67405 
7.04921 -0.674128 1.7154 7.09138 -0.617603 1.76452 7.13178 -0.561436 1.80616 
7.14581 -0.505682 1.82462 7.13655 -0.451761 1.82756 7.09821 -0.409345 1.81552 
7.04688 -0.39452 1.7903 6.99338 -0.39442 1.75128 6.93861 -0.405147 1.72792 
6.88111 -0.428986 1.75753 6.82126 -0.443791 1.86068 2.15237 -0.438896 1.45424 
2.09589 -0.465032 1.45432 2.0397 -0.485912 1.454 1.98323 -0.51194 1.45407 
1.92768 -0.521061 1.45287 1.87269 -0.520235 1.45091 1.81769 -0.51941 1.44895 
1.76215 -0.528531 1.44775 1.70567 -0.554559 1.44782 1.64973 -0.576121 1.44013 
1.59391 -0.605895 1.41821 1.53913 -0.632346 1.37378 1.48342 -0.675596 1.3306 
1.42677 -0.725726 1.3028 1.36949 -0.761128 1.31101 1.31348 -0.758015 1.33857 
1.25819 -0.726124 1.38623 6.48011 0.280129 1.98985 5.95988 -1.11849 1.90189 
5.90117 -1.09159 1.98143 6.15509 0.642086 1.7437 6.2201 0.639603 1.72383 
6.27595 0.622681 1.71715 6.32849 0.579379 1.72727 6.37972 0.525508 1.75551 
6.43008 0.471431 1.80603 6.47992 0.418388 1.87133 6.00972 0.642489 1.64202 
5.95377 0.642651 1.54345 5.9 0.640094 1.48727 5.84553 0.628646 1.45407 
5.78941 0.603869 1.44662 5.73351 0.593498 1.45294 5.6771 0.584171 1.47402 
5.62032 0.559066 1.48887 5.56748 0.537083 1.50363 5.53506 0.498099 1.53527 
5.54295 0.449726 1.60619 5.54651 0.401996 1.70666 5.54166 0.355152 1.81419 
5.53403 0.306777 1.89946 5.51719 0.257205 1.96218 5.48793 0.206603 2.00227 
5.48543 0.155168 2.05078 5.51942 0.102951 2.11547 5.56559 0.0534508 2.22497 
5.61253 0.00670519 2.37145 6.71516 -0.400305 2.17333 6.68593 -0.333809 2.30098 
6.69771 -0.512114 2.11449 6.63855 -0.545435 2.17451 6.58276 -0.553984 2.18067 
6.52968 -0.54415 2.14092 6.47805 -0.518444 2.08511 6.42534 -0.50715 2.03782 
6.58881 -0.080799 2.029 6.60919 -0.0247398 1.94358 6.57001 0.0448763 1.96285 
6.52617 0.27829 1.99901 6.27533 -0.0136988 2.013 6.23925 0.144341 2.08687 
6.11313 0.194552 2.19571 6.04649 0.570749 1.96851 6.02114 0.519608 2.12957 
5.98796 0.469688 2.24133 5.97955 0.396465 2.32044 6.62754 0.182634 2.08798 
6.7239 0.185294 2.1394 6.76669 0.15089 2.22532 6.77673 0.10461 2.32217 
6.78252 0.056763 2.42272 6.79424 0.00682254 2.50134 6.78805 -0.0438626 2.55709 
6.58851 -0.210965 2.28811 6.46683 -0.0232237 2.13184 5.98128 -0.451175 2.3319 
5.92125 -0.390619 2.43963 5.86691 -0.331401 2.46737 5.81561 -0.275103 2.44488 
5.76617 -0.218729 2.42394 5.72542 -0.160014 2.44029 5.69889 -0.0998044 2.48675 
6.86745 -0.147542 2.49352 6.69892 -0.209564 2.49252 6.75452 -0.152513 2.55692 
6.47493 -0.196672 2.3946 5.71417 0.0192938 2.61186 5.77056 0.0748979 2.65595 
5.83038 0.128701 2.64642 5.90283 0.190018 2.54937 
LINES 49 711
15 45 46 47 48 49 50 51 52 53 54 55 56 57 58 44 
19 45 59 60 61 62 63 64 65 66 67 68 69 70 71 72 73 74 75 42 
18 45 76 77 78 79 80 81 82 83 84 85 86 87 88 89 90 91 44 
30 44 92 93 94 95 96 97 98 99 100 101 102 103 104 105 106 107 108 109 110 111 112 113 114 115 116 117 118 119 38 
8 42 120 121 122 123 124 125 43 
6 42 126 127 128 129 41 
20 41 130 131 132 133 134 135 136 137 138 139 140 141 142 143 144 145 146 147 31 
37 41 148 149 150 151 152 153 154 155 156 157 158 159 160 161 162 163 164 165 166 167 168 169 170 171 172 173 174 175 176 177 178 179 180 181 182 36 
3 40 183 39 
12 40 184 185 186 187 188 189 190 191 192 193 38 
79 40 194 195 196 197 198 199 200 201 202 203 204 205 206 207 208 209 210 211 212 213 214 215 216 217 218 219 220 221 222 223 224 225 226 227 228 229 230 231 232 233 234 235 236 237 238 239 240 241 242 243 244 245 246 247 248 249 250 251 252 253 254 255 256 257 258 259 260 261 262 263 264 265 266 267 268 269 270 31 
46 38 271 272 273 274 275 276 277 278 279 280 281 282 283 284 285 286 287 288 289 290 291 292 293 294 295 296 297 298 299 300 301 302 303 304 305 306 307 308 309 310 311 312 313 314 36 
26 37 315 316 317 318 319 320 321 322 323 324 325 326 327 328 329 330 331 332 333 334 335 336 337 338 36 
15 35 339 340 341 342 343 344 345 346 347 348 349 350 351 27 
17 34 352 353 354 355 356 357 358 359 360 361 362 363 364 365 366 33 
4 34 367 368 28 
16 34 369 370 371 372 373 374 375 376 377 378 379 380 381 382 30 
9 32 383 384 385 386 387 388 389 27 
21 31 423 424 425 426 427 428 429 430 431 432 433 434 435 436 437 438 439 440 441 26 
4 30 442 443 29 
10 30 444 445 446 447 448 449 450 451 26 
5 28 452 453 454 25 
7 28 455 456 457 458 459 22 
3 24 460 27 
10 26 461 462 463 464 465 466 467 468 19 
11 24 469 470 471 472 473 474 475 476 477 15 
13 24 478 479 480 481 482 483 484 485 486 487 488 23 
4 21 489 490 20 
28 20 492 493 494 495 496 497 498 499 500 501 502 503 504 505 506 507 508 509 510 511 512 513 514 515 516 517 14 
19 18 518 519 520 521 522 523 524 525 526 527 528 529 530 531 532 533 534 17 
3 5 535 13 
9 10 538 539 540 541 542 543 544 13 
22 10 545 546 547 548 549 550 551 552 553 554 555 556 557 558 559 560 561 562 563 564 1 
4 14 565 566 7 
8 14 567 568 569 570 571 572 12 
5 6 573 574 575 5 
3 13 576 5 
3 5 577 11 
4 5 578 579 0 
6 10 580 581 582 583 0 
9 5 584 585 586 587 588 589 590 4 
3 6 591 7 
3 6 592 5 
3 8 600 4 
4 7 601 602 4 
3 6 603 3 
6 1 604 605 606 607 0 
43 31 390 391 392 393 394 395 396 397 398 399 400 401 402 403 404 405 406 407 408 409 410 411 412 413 414 415 416 417 418 419 420 421 422 2 593 594 595 596 597 598 599 1 
6 20 491 16 536 537 9 

POINT_DATA 608
SCALARS DY_raw double
LOOKUP_TABLE default
1236.72 1131.01 1119 1251.26 1189.82 1020.14 843.418 959.818 1286.16 
1463.3 1232.83 766.086 916.625 1270.07 1050.28 1214.87 1010.82 1481.88 
1107.42 2547.9 629.642 635.834 1519.68 1085.14 970.075 763.169 827.708 
1417.21 729.437 1112.23 809.754 957.217 1562.03 1843.75 858.812 1234.14 
689.023 729.282 720.484 1186.98 1032.61 755.793 709.202 820.045 782.51 
861.131 889.875 907.788 1010.86 1081.29 948.85 1018.61 1002.8 1092.59 
1121.12 1066.19 977.708 899.116 815.467 857.252 846.274 754.747 757.393 
741.971 715.387 740.392 740.392 737.671 900.016 972.332 1102.59 956.513 
1075.42 980.829 928.501 765.724 965.202 940.813 905.823 912.708 926.657 
878.345 778.264 820.307 886.022 886.022 932.412 902.726 930.723 1149.22 
1089.82 902.096 835.868 929.039 875.866 906.86 962.92 907.366 907.366 
942.654 934.229 1022.74 999.888 948.955 899.162 899.162 933.113 824.263 
883.696 927.733 881.816 830.953 871.059 811.249 807.46 757.808 661.103 
622.624 622.108 647.335 794.197 814.849 835.134 861.628 861.628 866.029 
728.712 825.529 752.638 750.437 866.835 874.12 954.678 827.821 810.313 
810.313 759.892 849.48 905.089 935.054 930.3 1005.89 995.822 1004.5 
1082.76 947.398 869.386 941.866 809.248 798.528 829.315 1041.43 1041.43 
1081.03 1232.11 1043.91 1057.72 938.384 1027.21 1065.12 1104.85 1104.85 
985.371 985.371 925.568 874.704 874.704 895.012 999.595 1075.23 1012.91 
1013.35 1048 890.87 947.999 944.313 848.233 867.797 840.507 767.147 
767.147 718.478 689.023 1032.61 899.498 828.631 802.027 727.212 766.27 
817.003 859.219 841.346 788.936 715.979 938.326 903.077 903.077 988.848 
988.518 1082.23 1082.23 1126.14 1095.65 1095.65 1055.64 997.758 997.758 
861.698 861.698 894.656 817.787 787.101 786.625 720.545 720.545 701.46 
696.176 696.176 654.365 655.236 655.236 650.204 702.211 746.224 815.762 
737.48 801.022 793.973 793.973 767.042 743.056 719.373 730.715 716.565 
700.346 740.495 745.971 731.907 834.154 865.438 925.799 946.989 964.93 
991.676 1027.94 989.345 1024.17 1080.71 1144.42 1233.07 1165.98 1021.56 
957.747 887.794 790.073 800.22 811.938 674.503 763.256 817.193 734.099 
811.609 788.012 748.862 759.623 690.922 686.311 702.053 881.141 1054.19 
969.698 726.97 729.822 720.799 727.852 674.374 635.409 745.302 708.075 
772.247 940.07 792.861 815.877 777.609 856.167 832.046 944.122 896.203 
925.32 924.346 870.937 902.497 902.497 946.102 975.092 974.656 964.477 
1014.12 1027.41 1038.56 1019.29 1018.78 1018.78 994.093 933.402 890.339 
855.951 733.526 733.526 675.265 619.313 610.324 638.147 785.553 743.055 
675.43 665.773 647.611 678.413 741.595 857.504 857.188 882.985 773.39 
706.314 763.946 769.538 789.853 814.37 814.37 817.954 755.887 755.887 
692.215 691.231 717.098 732.144 718.586 715.191 1097.09 1176.17 1057.43 
1160.15 1160.15 1025.04 969.906 1107.04 929.65 964.103 1135.82 1056.26 
954.685 962.721 1076.35 1076.35 1288.67 1191.76 1072.49 961.721 961.721 
920.821 798.918 798.918 843.393 1073.44 1180.78 1394.38 990.74 751.386 
900.921 935.875 1105.72 1020.21 1070.15 1070.15 1015.3 1104.01 1060.69 
1018.86 899.025 860.702 887.373 840.272 1239.01 1102.34 1022.82 930.436 
833.374 776.528 939.108 1056.02 1266.29 1597.99 1676.07 1676.07 1284.23 
1088.72 1178.1 1092.92 1223.76 1181.66 1178.27 1153.56 1047.04 950.559 
928.484 982.254 928.794 1069.06 899.089 913.22 853.012 884.617 884.617 
836.983 901.39 1031.64 1095.53 1102.38 1140.86 1294.13 1367.98 1270.21 
1045.97 1132.43 1286.58 1230.22 1128.38 1103.51 1013.84 939.125 976.546 
933.341 1042.19 998.756 1057.98 986.103 991.163 797.126 748.686 699.544 
723.775 976.175 1023.49 945.049 902.685 1013.13 977.582 992.755 984.484 
956.691 899.412 759.286 788.36 832.185 769.652 813.433 813.433 970.703 
1093.85 1059.9 834.791 843.219 997.011 1085.16 1164.83 1216.46 1332.75 
1939.75 927.601 841.557 819.716 781.483 890.357 855.544 909.628 988.086 
1017.2 1062.95 972.253 1068.47 993.87 974.525 974.525 897.999 946.324 
946.324 960.298 1137.69 564.128 597.726 779.785 629.642 654.201 733.057 
733.057 720.646 797.941 885.825 885.825 973.916 1029.97 1087.01 1075.09 
1010.93 903.156 876.241 814.677 889.03 887.642 909.793 905.68 1055.16 
1122.57 1214.79 1176.17 1210.26 1096.56 1090.9 1090.9 953.018 955.448 
955.448 1049.43 943.265 1003.49 1197.5 1031.43 1088.41 1054.86 904.057 
955.758 973.303 973.303 1205.76 1117.69 1134.97 1227.9 1028.31 971.814 
919.813 886.128 959.349 1161.96 1160.71 1234.11 1220.84 1196.26 1133.02 
1132.13 999.163 1098.07 1087.96 955.236 955.898 1017.01 1220.89 1135.26 
1068.86 1162.29 1068.96 1127.53 1035.65 884.824 948.162 948.008 959.462 
910.288 935.121 935.121 973.189 974.473 958.218 870.631 941.317 971.437 
1115.63 814.1 1025.9 1164.69 1314.72 1460.4 1241.63 1267.75 1077.27 
1037.35 1003.43 1091.51 1061.31 1176.1 1228.09 877.566 915.808 1110.62 
1065.12 1080.97 1052.58 946.843 814.02 932.932 1077.95 961.778 1085.99 
990.488 1234.31 1131.71 1114.85 1144.84 
FIELD FieldData 7
DY_minmax 1 608 double
0.339045 0.285758 0.279705 0.346376 0.315406 0.22987 0.140787 0.199463 0.363967 
0.453266 0.337085 0.101805 0.17769 0.355859 0.245062 0.328034 0.225173 0.46263 
0.27387 1 0.033025 0.0361463 0.481682 0.262639 0.204634 0.100335 0.132868 
0.430032 0.0833307 0.27629 0.123817 0.198152 0.503034 0.645046 0.148547 0.337746 
0.0629584 0.0832525 0.0788172 0.313974 0.236156 0.0966166 0.0731301 0.129005 0.110084 
0.149716 0.164206 0.173235 0.225192 0.260698 0.193934 0.2291 0.221129 0.266394 
0.280775 0.253083 0.208482 0.168864 0.126697 0.147761 0.142227 0.0960892 0.097423 
0.0896488 0.0762483 0.0888528 0.0888528 0.0874813 0.169318 0.205772 0.271433 0.197797 
0.257736 0.210055 0.183677 0.101623 0.202177 0.189883 0.172245 0.175715 0.182747 
0.158394 0.107944 0.129137 0.162263 0.162263 0.185648 0.170684 0.184797 0.294937 
0.264997 0.170366 0.136981 0.183948 0.157144 0.172768 0.201027 0.173023 0.173023 
0.190811 0.186564 0.231182 0.219662 0.193987 0.168887 0.168887 0.186002 0.131131 
0.161091 0.18329 0.160143 0.134504 0.154721 0.124571 0.122661 0.0976322 0.0488842 
0.0294871 0.0292272 0.041944 0.115975 0.126386 0.136611 0.149967 0.149967 0.152185 
0.0829653 0.13177 0.095026 0.0939165 0.152592 0.156264 0.196872 0.132925 0.1241 
0.1241 0.0986825 0.143843 0.171875 0.18698 0.184584 0.222686 0.217612 0.221988 
0.261437 0.193203 0.153878 0.190414 0.123562 0.118159 0.133678 0.240602 0.240602 
0.260567 0.336723 0.241851 0.248815 0.188659 0.233434 0.252547 0.272572 0.272572 
0.212344 0.212344 0.182198 0.156558 0.156558 0.166795 0.219514 0.257644 0.226226 
0.22645 0.243915 0.164707 0.193505 0.191648 0.143214 0.153076 0.13932 0.10234 
0.10234 0.0778065 0.0629584 0.236156 0.169057 0.133334 0.119923 0.0822089 0.101897 
0.127472 0.148752 0.139743 0.113324 0.0765465 0.188629 0.170861 0.170861 0.214097 
0.213931 0.261171 0.261171 0.283302 0.267935 0.267935 0.247765 0.218589 0.218589 
0.150002 0.150002 0.166616 0.127867 0.112398 0.112159 0.0788482 0.0788482 0.0692274 
0.0665639 0.0665639 0.0454878 0.0459265 0.0459265 0.04339 0.0696065 0.0917927 0.126846 
0.0873851 0.119416 0.115863 0.115863 0.102287 0.0901956 0.0782573 0.083975 0.0768419 
0.0686661 0.0889046 0.091665 0.0845756 0.136118 0.151887 0.182315 0.192996 0.202041 
0.215523 0.233805 0.214348 0.231902 0.260403 0.292519 0.337209 0.303385 0.230588 
0.198419 0.163157 0.113896 0.119011 0.124918 0.0556387 0.100378 0.127568 0.0856804 
0.124753 0.112857 0.0931226 0.0985468 0.0639157 0.0615912 0.0695266 0.159803 0.247034 
0.204444 0.0820868 0.0835245 0.0789761 0.0825315 0.0555739 0.0359318 0.0913278 0.0725624 
0.104911 0.189509 0.115302 0.126904 0.107614 0.147214 0.135055 0.191551 0.167396 
0.182073 0.181582 0.15466 0.170568 0.170568 0.192549 0.207163 0.206943 0.201812 
0.226835 0.233536 0.239157 0.229442 0.229188 0.229188 0.216741 0.186147 0.16444 
0.147105 0.085392 0.085392 0.0560231 0.0278181 0.023287 0.0373122 0.111618 0.0901951 
0.0561061 0.0512382 0.0420829 0.0576097 0.0894592 0.147888 0.147728 0.160732 0.105487 
0.0716747 0.100726 0.103545 0.113786 0.126145 0.126145 0.127951 0.0966637 0.0966637 
0.0645674 0.0640715 0.0771108 0.084695 0.0778606 0.0761495 0.268661 0.308522 0.248668 
0.30045 0.30045 0.23234 0.204549 0.273674 0.184256 0.201623 0.288185 0.248076 
0.196876 0.200927 0.258208 0.258208 0.365235 0.316381 0.25626 0.200423 0.200423 
0.179806 0.118355 0.118355 0.140775 0.256741 0.31085 0.418522 0.215051 0.0943951 
0.169774 0.187394 0.273013 0.229908 0.255083 0.255083 0.22743 0.272147 0.250314 
0.229224 0.168818 0.1495 0.162944 0.139201 0.3402 0.271308 0.23122 0.184652 
0.135724 0.107069 0.189024 0.247958 0.353952 0.52116 0.560517 0.560517 0.362998 
0.264443 0.309496 0.26656 0.332511 0.311291 0.309583 0.297128 0.243432 0.194796 
0.183668 0.210773 0.183824 0.254533 0.168851 0.175974 0.145623 0.161555 0.161555 
0.137544 0.170011 0.23567 0.267873 0.271328 0.290726 0.367988 0.405212 0.355929 
0.242892 0.286474 0.364181 0.335772 0.284436 0.271899 0.226696 0.189032 0.207896 
0.186117 0.240988 0.219092 0.248948 0.212713 0.215264 0.117452 0.0930341 0.0682619 
0.0804764 0.207709 0.231561 0.192019 0.170663 0.226338 0.208418 0.216067 0.211897 
0.197887 0.169013 0.0983773 0.113033 0.135125 0.103602 0.125672 0.125672 0.20495 
0.267027 0.249915 0.136439 0.140687 0.218212 0.262648 0.302809 0.328834 0.387455 
0.693436 0.183223 0.139849 0.128839 0.109567 0.164449 0.1469 0.174163 0.213713 
0.228389 0.251449 0.205732 0.254232 0.216629 0.206877 0.206877 0.168301 0.192661 
0.192661 0.199705 0.289129 0 0.0169362 0.108711 0.033025 0.0454049 0.0851554 
0.0851554 0.0788989 0.117863 0.162164 0.162164 0.20657 0.234827 0.263578 0.257572 
0.225226 0.170901 0.157333 0.126299 0.16378 0.16308 0.174246 0.172173 0.247523 
0.281503 0.327992 0.308526 0.325708 0.268392 0.265542 0.265542 0.196035 0.19726 
0.19726 0.244638 0.191119 0.221476 0.319276 0.235562 0.264283 0.247373 0.171355 
0.197417 0.206261 0.206261 0.323442 0.279046 0.287757 0.334599 0.233989 0.205511 
0.179297 0.162317 0.199227 0.301359 0.300732 0.337732 0.331041 0.318649 0.286774 
0.286325 0.219297 0.269155 0.264058 0.197154 0.197487 0.228293 0.331065 0.287904 
0.254428 0.301529 0.254482 0.284008 0.237689 0.16166 0.193588 0.19351 0.199284 
0.174496 0.187014 0.187014 0.206204 0.206851 0.198657 0.154505 0.190137 0.20532 
0.278006 0.126008 0.232775 0.302737 0.378367 0.451799 0.341522 0.35469 0.258668 
0.238546 0.221448 0.265848 0.250622 0.308488 0.334695 0.158001 0.177279 0.275483 
0.252545 0.260535 0.246224 0.192923 0.125968 0.185911 0.259011 0.200451 0.263067 
0.214924 0.337831 0.286112 0.277611 0.29273 
WidthEq 1 608 double
2.74606 2.12107 2.49639 2.86763 3.07246 4.62199 4.36131 4.11399 2.49712 
1.1336 2.79521 4.28054 3.53714 3.24438 4.07007 1.9893 2.53531 1.86796 
2.47803 1 4.26172 2.18922 2.03689 3.52782 4.6773 3.85124 2.82206 
3.36811 5.78831 2.74987 3.65123 4.08214 1.99325 1.78796 4.64352 3.02129 
4.05534 3.50602 6.18117 3.10284 4.14079 5.10003 4.45801 2.7478 4.17751 
3.84592 3.9439 3.85372 3.61351 3.49877 3.81838 3.63044 3.41837 3.31891 