# vtk DataFile Version 3.0
vtk output
ASCII
DATASET POLYDATA
POINTS 529 float
-0.301833 -0.514833 0.825911 -0.2335 -0.645878 0.828344 -0.490865 -0.00169376 0.617453 
-0.394948 -0.259389 0.621698 -0.220648 -1.19538 0.434645 -0.530791 -0.199198 0.219052 
3.51339 0.602561 0.266702 7.28385 -0.339334 -0.233586 2.85013 0.818448 -0.145088 
3.4351 0.508135 -0.133397 2.72103 0.895671 -0.410769 5.10031 -0.910508 -0.360803 
7.67878 0.148553 -0.269909 6.69284 -1.45421 -0.465716 7.53066 -1.02486 -0.458808 
7.52696 0.0887256 -0.471396 3.70261 -1.45602 -0.707634 1.00012 0.5054 -1.10097 
2.92885 -1.78767 -0.981457 6.97827 -0.104819 -1.01032 7.38164 -1.08694 -0.860262 
2.38134 -1.83725 -1.12192 7.18877 -0.771934 -1.13322 5.36631 -1.02243 -1.2893 
7.22662 -0.975211 -1.26376 7.62414 -0.729375 -1.26095 7.65812 -0.873212 -1.25886 
7.04592 -0.915403 -1.56701 1.61524 -0.0785243 -1.75255 1.67996 0.062938 -1.75324 
2.58457 -0.265272 -1.73687 2.83096 -0.293082 -1.86646 6.67475 0.0450307 -1.68304 
5.76069 -1.12019 -1.88277 6.10229 -0.934304 -1.88007 7.24935 -0.389804 -1.87013 
7.30627 -0.38557 -1.86197 7.36994 -0.40539 -1.83863 7.42614 -0.440235 -1.79299 
7.45583 -0.486889 -1.74019 7.46513 -0.541254 -1.68759 7.46028 -0.600932 -1.63513 
7.48111 -0.651242 -1.55277 7.54111 -0.690428 -1.42554 6.0499 -0.951398 -1.8732 
5.99311 -0.95727 -1.8443 5.92714 -0.939258 -1.78616 5.8612 -0.921219 -1.72061 
5.80694 -0.928337 -1.69165 5.77124 -0.954835 -1.72149 5.76219 -1.00297 -1.78775 
5.75411 -1.06347 -1.84645 2.79404 -0.388709 -1.86837 2.75061 -0.443253 -1.84614 
2.69081 -0.437327 -1.80506 2.63416 -0.402023 -1.76427 2.60276 -0.345045 -1.74312 
2.74228 -0.255556 -1.80391 2.66279 -0.240529 -1.76075 7.14547 -0.945012 -1.41711 
6.73011 0.0506375 -1.55638 6.79426 0.0325505 -1.43428 6.86178 0.00172777 -1.31197 
6.92506 -0.0408145 -1.16984 2.883 -0.202388 -1.80254 2.92665 -0.136694 -1.75822 
2.97408 -0.103077 -1.73817 3.0249 -0.0818646 -1.73276 3.0764 -0.0625696 -1.73226 
3.1279 -0.0432742 -1.73175 3.17877 -0.0222731 -1.73128 3.22619 0.0079952 -1.73095 
3.26882 0.0509226 -1.72343 3.31937 0.0721827 -1.70073 3.37493 0.0793933 -1.65559 
3.421 0.111734 -1.59604 3.47214 0.130046 -1.52144 3.53053 0.128498 -1.4317 
3.57966 0.150908 -1.32013 3.61388 0.207455 -1.19435 3.63194 0.272884 -1.05407 
3.62359 0.330904 -0.899254 3.60192 0.384444 -0.722352 3.56705 0.433318 -0.53077 
3.50661 0.472787 -0.332029 2.49713 -0.225289 -1.73854 2.42051 -0.190316 -1.74001 
2.34959 -0.159387 -1.74135 2.28297 -0.138196 -1.74253 2.22169 -0.131216 -1.74346 
2.15513 -0.110039 -1.74463 2.08497 -0.0794172 -1.73855 2.01398 -0.0469231 -1.71769 
1.94277 -0.0142625 -1.68201 1.87231 0.0166089 -1.65371 1.80574 0.0377861 -1.65488 
1.74501 0.0442459 -1.69285 1.6476 -0.00779321 -1.7529 1.60747 0.0967024 -1.62869 
1.53519 0.1303 -1.51895 1.46332 0.163563 -1.43884 1.39187 0.196616 -1.38094 
1.32233 0.230136 -1.33785 1.26205 0.267226 -1.28725 1.21598 0.309606 -1.2365 
1.15587 0.346755 -1.19085 1.08859 0.382363 -1.16009 1.03164 0.430186 -1.13179 
7.10989 -0.82073 -1.3548 6.94878 -0.937926 -1.61257 6.91896 -0.977248 -1.63107 
6.96497 -0.981406 -1.61185 7.67519 -0.636594 -1.1872 7.71144 -0.558151 -1.10607 
7.72849 -0.490807 -1.01029 7.70805 -0.438225 -0.914849 7.65168 -0.401123 -0.819751 
7.58632 -0.379943 -0.730651 7.52334 -0.381823 -0.614994 7.43459 -0.377678 -0.448577 
7.64021 -0.80989 -1.25982 7.25894 -1.01966 -1.12945 7.3148 -1.05534 -0.994906 
7.24163 -0.908029 -1.18034 7.22726 -0.844107 -1.1368 5.29968 -1.00382 -1.18672 
5.24135 -1.00699 -1.09119 5.18467 -1.00931 -0.9833 5.13083 -0.98438 -0.83122 
5.10381 -0.944256 -0.617206 7.07472 -0.128546 -1.12971 7.14645 -0.135367 -1.19531 
7.20955 -0.143457 -1.1894 7.264 -0.133186 -1.13936 7.31108 -0.103779 -1.07235 
7.35147 -0.0565783 -0.998234 7.39281 -0.0123215 -0.909249 7.42913 0.044638 -0.790842 
7.46975 0.0892621 -0.642601 7.22768 -0.684964 -1.00524 7.26477 -0.617674 -0.863362 
7.30146 -0.565916 -0.692583 7.31381 -0.47953 -0.478758 2.8643 -1.73022 -1.15094 
2.80074 -1.70038 -1.28551 2.74165 -1.69487 -1.38025 2.68087 -1.68741 -1.4454 
2.62572 -1.69573 -1.49052 2.57307 -1.71157 -1.5059 2.51774 -1.72115 -1.48434 
2.46059 -1.72723 -1.41099 2.41744 -1.77228 -1.28514 2.3162 -1.81991 -1.12303 
2.25982 -1.82611 -1.12375 2.20753 -1.84329 -1.12429 2.15524 -1.86047 -1.12483 
2.09887 -1.86667 -1.12555 2.03369 -1.84923 -1.12666 1.96787 -1.83006 -1.1278 
1.90734 -1.8251 -1.1287 1.84561 -1.81691 -1.12966 1.7892 -1.82302 -1.13038 
1.73282 -1.82922 -1.1311 1.67167 -1.82277 -1.12462 1.61494 -1.82862 -1.10313 
1.55723 -1.83241 -1.05945 1.49066 -1.81257 -1.00873 1.42069 -1.78345 -0.965594 
1.35389 -1.76223 -0.944546 1.29318 -1.75698 -0.938044 1.23077 -1.74697 -0.939031 
1.1702 -1.74191 -0.939937 1.10435 -1.72265 -0.941077 1.03846 -1.70329 -0.942218 
0.977219 -1.69629 -0.935744 0.912151 -1.67419 -0.914681 0.852647 -1.63899 -0.871464 
0.806612 -1.59672 -0.820717 0.746435 -1.55971 -0.77753 0.677312 -1.5264 -0.75665 
0.608396 -1.49326 -0.750577 0.548946 -1.45671 -0.751822 0.505501 -1.41421 -0.752909 
0.458945 -1.37286 -0.754027 0.42667 -1.3262 -0.755005 0.394395 -1.27953 -0.755982 
0.347933 -1.23815 -0.757099 0.306306 -1.19497 -0.758169 0.258129 -1.15423 -0.759303 
0.216502 -1.11105 -0.760372 0.170039 -1.06967 -0.761489 0.137662 -1.02304 -0.762468 
0.103682 -0.977012 -0.763462 0.0477541 -0.939155 -0.764672 -0.00978441 -0.901899 -0.765898 
-0.0532297 -0.859272 -0.759575 -0.100097 -0.817676 -0.738477 -0.132994 -0.770633 -0.702421 
-0.16739 -0.72427 -0.673791 -0.223317 -0.686292 -0.667601 -0.278934 -0.648442 -0.676207 
-0.311313 -0.601694 -0.669786 -0.334734 -0.551245 -0.641047 -0.367632 -0.504081 -0.597582 
-0.424183 -0.465602 -0.54695 -0.48276 -0.42739 -0.466707 -0.525954 -0.382718 -0.341865 
-0.561712 -0.334544 -0.172511 -0.556419 -0.270718 0.0194655 2.45061 -1.86843 -1.01688 
2.52005 -1.89968 -0.926656 2.58898 -1.92917 -0.851266 2.65333 -1.94596 -0.790905 
2.70507 -1.92827 -0.753343 2.74796 -1.88559 -0.755693 2.79707 -1.85473 -0.80227 
2.85613 -1.8271 -0.883246 1.06014 0.572883 -0.970008 1.11705 0.601396 -0.865815 
1.1579 0.651519 -0.801596 1.19199 0.717079 -0.774692 1.22919 0.774606 -0.767407 
1.27586 0.80688 -0.767117 1.32669 0.827984 -0.766642 1.37819 0.847279 -0.766137 
1.42977 0.866368 -0.765629 1.48202 0.883649 -0.765092 1.5384 0.889853 -0.764371 
1.60354 0.872509 -0.763263 1.66868 0.855165 -0.762155 1.72509 0.861266 -0.761433 
1.77801 0.876738 -0.760866 1.83365 0.884741 -0.752765 1.89446 0.87863 -0.737031 
1.95052 0.885085 -0.714095 2.00669 0.891456 -0.698557 2.0676 0.885271 -0.690223 
2.12334 0.893182 -0.68953 2.17633 0.908673 -0.696373 2.23231 0.916322 -0.710497 
2.29418 0.908164 -0.724351 2.35393 0.9051 -0.716068 2.41511 0.897421 -0.678088 
2.47079 0.904116 -0.625515 2.52656 0.910832 -0.576661 2.58831 0.904234 -0.538675 
2.65114 0.906134 -0.489659 7.34895 -1.15599 -0.889578 7.31235 -1.21414 -0.933883 
7.26634 -1.24702 -0.978615 7.21653 -1.27028 -1.00127 7.16959 -1.30241 -0.979348 
7.1317 -1.35946 -0.934779 7.09726 -1.42576 -0.890068 7.05901 -1.48125 -0.867756 
7.00798 -1.50219 -0.853413 6.94725 -1.49749 -0.824682 6.88994 -1.50294 -0.758753 
6.83151 -1.50615 -0.663221 6.76417 -1.48562 -0.560679 7.42296 -1.04302 -0.756461 
7.47732 -1.03492 -0.622429 6.98881 -0.169765 -0.773496 7.02095 -0.221983 -0.567034 
7.11289 -0.271198 -0.392554 2.9952 -1.7746 -0.844842 3.05112 -1.75686 -0.733131 
3.10246 -1.73721 -0.65608 3.1535 -1.71759 -0.616069 3.20504 -1.6984 -0.615563 
3.25699 -1.67954 -0.644682 3.30895 -1.66068 -0.673801 3.36049 -1.64149 -0.673295 
3.41151 -1.62188 -0.635764 3.46232 -1.60211 -0.583406 3.5132 -1.58231 -0.538469 
3.56386 -1.56114 -0.523175 3.61156 -1.53103 -0.545079 3.65455 -1.48712 -0.611642 
0.912401 0.544281 -1.03103 0.838998 0.568822 -0.96565 0.776653 0.575013 -0.902383 
0.714113 0.583762 -0.846559 0.657754 0.576342 -0.802818 0.605126 0.559292 -0.773729 
0.553131 0.540537 -0.744612 0.500968 0.521845 -0.700685 0.448702 0.503236 -0.64934 
0.396538 0.484544 -0.605413 0.344648 0.465705 -0.583705 0.292332 0.448405 -0.576832 
0.236633 0.440382 -0.577522 0.175648 0.446566 -0.578447 0.119847 0.438627 -0.571728 
0.0674254 0.42141 -0.557457 0.0154312 0.402654 -0.528339 -0.0365236 0.383796 -0.49922 
-0.0887255 0.365207 -0.455285 -0.141808 0.348593 -0.396573 -0.199493 0.343369 -0.301017 
-0.265516 0.360155 -0.191003 -0.328055 0.36758 -0.0808351 -0.376092 0.336823 0.000341191 
-0.424201 0.307045 0.0518604 -0.470542 0.273297 0.0738146 -0.507941 0.215842 0.0961608 
-0.53972 0.148356 0.148334 -0.558679 0.0845615 0.259914 -0.541882 0.0348187 0.423706 
7.4928 0.0195146 -0.345145 7.45821 -0.0481576 -0.23374 7.42058 -0.106976 -0.158173 
7.37742 -0.154178 -0.130632 7.33468 -0.228687 -0.162728 7.56838 0.13256 -0.374993 
7.62367 0.139918 -0.30763 6.63253 -1.44984 -0.466611 6.58561 -1.48142 -0.466913 
6.53684 -1.50807 -0.467296 6.48174 -1.51769 -0.46796 6.42012 -1.5098 -0.468912 
6.36026 -1.50665 -0.469787 6.29856 -1.49856 -0.470742 6.24212 -1.50457 -0.471466 
6.18503 -1.50886 -0.472218 6.11914 -1.4895 -0.473359 6.04913 -1.45906 -0.474683 
5.97834 -1.42674 -0.468627 5.90741 -1.3941 -0.447765 5.83787 -1.36058 -0.40467 
5.77759 -1.32349 -0.354064 5.73151 -1.28111 -0.303328 5.67134 -1.24411 -0.260141 
5.6018 -1.21046 -0.209636 5.53226 -1.17682 -0.159121 5.47208 -1.13981 -0.115934 
5.42643 -1.09777 -0.094823 5.36687 -1.06114 -0.0886587 5.29982 -1.02754 -0.0998582 
5.23942 -0.991281 -0.140619 5.18514 -0.949355 -0.230756 6.72404 -1.38389 -0.332719 
6.75879 -1.32291 -0.206968 6.79907 -1.2764 -0.0957994 6.83512 -1.21774 -0.0144614 
6.87138 -1.15924 0.0520692 6.91242 -1.11341 0.111398 6.94857 -1.05483 0.185327 
6.98483 -0.996337 0.251857 7.02598 -0.950585 0.303777 7.06286 -0.892592 0.325865 
7.09994 -0.834765 0.333145 7.14178 -0.789503 0.333222 7.17829 -0.729942 0.333063 
7.21133 -0.661141 0.32534 7.24239 -0.591459 0.289295 7.26446 -0.523607 0.190515 
7.27052 -0.448162 0.00924152 2.78494 0.856667 -0.290895 5.01022 -0.85759 -0.360191 
4.94346 -0.81439 -0.383837 4.89826 -0.773841 -0.426913 4.84343 -0.749026 -0.469938 
4.78495 -0.74344 -0.493044 4.72278 -0.733581 -0.501437 4.66296 -0.730311 -0.509724 
4.60087 -0.72078 -0.525513 4.54196 -0.719587 -0.548576 4.48446 -0.722775 -0.549346 
4.43775 -0.755727 -0.519995 4.38866 -0.783447 -0.446289 4.33651 -0.803344 -0.357891 
4.28376 -0.821639 -0.26952 4.23143 -0.840267 -0.210774 4.18015 -0.860934 -0.181625 
4.13256 -0.891139 -0.16714 4.09025 -0.935531 -0.152411 4.04256 -0.965644 -0.130517 
3.99152 -0.986581 -0.116184 3.94049 -1.00752 -0.101841 3.89269 -1.03755 -0.0725378 
3.84962 -1.08126 -0.00597854 3.80022 -1.10873 0.0899538 3.74384 -1.11748 0.185578 
3.68186 -1.11056 0.258713 3.62543 -1.118 0.309865 3.57249 -1.1348 0.36117 
3.52019 -1.15331 0.412514 3.46802 -1.172 0.456441 3.41617 -1.19094 0.478151 
3.36443 -1.20997 0.492462 3.31254 -1.22881 0.51417 3.2597 -1.24569 0.558067 
3.20327 -1.25313 0.609229 3.14157 -1.24637 0.660146 3.0852 -1.25378 0.703887 
3.03159 -1.26877 0.755163 2.97513 -1.27611 0.806323 2.91348 -1.26933 0.849829 
2.85669 -1.2752 0.878735 2.79987 -1.28097 0.907638 2.73765 -1.27247 0.943716 
2.67724 -1.2688 0.979864 2.6146 -1.25875 1.00111 2.55446 -1.25523 1.01504 
2.49188 -1.24516 1.02887 2.431 -1.23984 1.05018 2.36494 -1.22042 1.06385 
2.29884 -1.20089 1.07752 2.23729 -1.19376 1.0988 2.17024 -1.17227 1.13467 
2.10034 -1.14313 1.1704 2.03361 -1.12188 1.18405 1.97243 -1.115 1.1757 
1.90622 -1.09417 1.15231 1.83709 -1.06571 1.1362 1.77124 -1.04646 1.13506 
1.71394 -1.05058 1.14913 1.65708 -1.05626 1.17803 1.59497 -1.04783 1.2067 
1.53466 -1.04425 1.23545 1.47212 -1.03428 1.24927 1.41208 -1.03084 1.2558 
1.34971 -1.02094 1.25482 1.28911 -1.01577 1.25391 1.22258 -0.9947 1.25274 
1.15257 -0.964265 1.25142 1.08255 -0.93383 1.25009 1.01599 -0.912654 1.24892 
0.954745 -0.905776 1.24799 0.888855 -0.886417 1.24684 0.822966 -0.867058 1.2457 
0.761757 -0.860275 1.24477 0.695868 -0.840916 1.24363 0.629978 -0.821557 1.24249 
0.56877 -0.814773 1.24155 0.50288 -0.795415 1.24041 0.437094 -0.776139 1.23186 
0.376162 -0.769512 1.20871 0.310257 -0.748938 1.16311 0.241606 -0.720793 1.10996 
0.175705 -0.700228 1.06436 0.114769 -0.693592 1.0412 0.0489829 -0.674317 1.03265 
-0.0168439 -0.655131 1.02411 -0.0784728 -0.650336 0.993553 -0.14954 -0.641793 0.92579 
3.36764 0.527416 0.0284272 3.30872 0.524522 0.160996 3.25096 0.519504 0.256548 
3.1889 0.526615 0.32969 3.13233 0.519363 0.388249 3.07872 0.504371 0.439525 
3.02222 0.497138 0.490673 2.95952 0.505965 0.563777 2.89832 0.510196 0.659187 
2.83517 0.519459 0.761914 2.77748 0.514452 0.850067 2.71935 0.510993 0.923383 
2.65267 0.530915 0.981494 2.58271 0.560042 1.02463 2.51591 0.581263 1.04568 
2.45523 0.586415 1.05218 2.3935 0.594604 1.05123 2.33709 0.588493 1.0505 
2.28072 0.582289 1.04978 2.21966 0.58866 1.04886 2.16329 0.582455 1.04814 
2.10688 0.576345 1.04742 2.04518 0.58444 1.04646 1.98533 0.587587 1.04559 
1.92367 0.59558 1.04463 1.86789 0.587764 1.04394 1.81497 0.572292 1.04337 
1.75855 0.56619 1.04265 1.69342 0.583534 1.04154 1.62828 0.600879 1.04043 
1.57186 0.594777 1.03971 1.51894 0.579305 1.03914 1.46331 0.571303 1.03104 
1.40263 0.577227 1.0079 1.34741 0.5689 0.970175 1.29494 0.552991 0.939984 
1.23931 0.544989 0.931893 1.17822 0.551256 0.938368 1.12248 0.543337 0.937676 
1.06981 0.527595 0.922303 1.01427 0.519518 0.906793 0.953499 0.525526 0.891061 
0.898008 0.517336 0.875553 0.846068 0.499806 0.852799 0.794024 0.482359 0.837454 
0.73843 0.474253 0.829355 0.677444 0.480437 0.828431 0.621747 0.472414 0.82774 
0.569494 0.455134 0.827203 0.517346 0.437769 0.819256 0.46196 0.429497 0.796349 
0.401493 0.435264 0.758391 0.346211 0.426908 0.728076 0.293998 0.409525 0.72754 
0.242004 0.390769 0.756657 0.189906 0.372096 0.793183 0.13742 0.35486 0.814865 
0.0824296 0.344935 0.814206 0.0265929 0.337871 0.791279 -0.014986 0.292896 0.754157 
-0.0531853 0.238642 0.724598 -0.0997878 0.206379 0.716907 -0.15015 0.183633 0.731269 
-0.197703 0.153335 0.745766 -0.239902 0.10885 0.753077 -0.287181 0.078404 0.745356 
-0.337736 0.057153 0.722653 -0.388719 0.037441 0.685124 -0.439741 0.0178318 0.647584 
3.4702 0.566218 0.0664737 -0.513706 -0.131469 0.381515 -0.508782 -0.0687563 0.51424 
-0.46287 -0.229294 0.420375 -0.226843 -1.13901 0.433923 -0.220669 -1.0779 0.440733 
-0.228882 -1.02191 0.462211 -0.245071 -0.968525 0.505831 -0.253698 -0.912202 0.556944 
-0.248124 -0.850546 0.608187 -0.254552 -0.792678 0.659303 -0.257259 -0.728854 0.732629 
-0.273986 -0.574456 0.826972 
LINES 39 611
10 35 36 37 38 39 40 41 42 43 25 
10 34 44 45 46 47 48 49 50 51 33 
7 31 52 53 54 55 56 30 
4 31 57 58 30 
3 27 59 24 
6 32 60 61 62 63 19 
23 31 64 65 66 67 68 69 70 71 72 73 74 75 76 77 78 79 80 81 82 83 84 9 
14 30 85 86 87 88 89 90 91 92 93 94 95 96 29 
3 29 97 28 
12 29 98 99 100 101 102 103 104 105 106 107 17 
3 27 108 22 
5 27 109 110 111 27 
10 25 112 113 114 115 116 117 118 119 7 
3 26 120 25 
4 24 121 122 20 
4 24 123 124 22 
7 23 125 126 127 128 129 11 
11 19 130 131 132 133 134 135 136 137 138 15 
6 22 139 140 141 142 7 
11 18 143 144 145 146 147 148 149 150 151 21 
59 21 152 153 154 155 156 157 158 159 160 161 162 163 164 165 166 167 168 169 170 171 172 173 174 175 176 177 178 179 180 181 182 183 184 185 186 187 188 189 190 191 192 193 194 195 196 197 198 199 200 201 202 203 204 205 206 207 208 5 
10 21 209 210 211 212 213 214 215 216 18 
15 20 247 248 249 250 251 252 253 254 255 256 257 258 259 13 
4 20 260 261 14 
5 19 262 263 264 7 
16 18 265 266 267 268 269 270 271 272 273 274 275 276 277 278 16 
32 17 279 280 281 282 283 284 285 286 287 288 289 290 291 292 293 294 295 296 297 298 299 300 301 302 303 304 305 306 307 308 2 
7 15 309 310 311 312 313 7 
4 15 314 315 12 
27 13 316 317 318 319 320 321 322 323 324 325 326 327 328 329 330 331 332 333 334 335 336 337 338 339 340 11 
19 13 341 342 343 344 345 346 347 348 349 350 351 352 353 354 355 356 357 7 
90 11 359 360 361 362 363 364 365 366 367 368 369 370 371 372 373 374 375 376 377 378 379 380 381 382 383 384 385 386 387 388 389 390 391 392 393 394 395 396 397 398 399 400 401 402 403 404 405 406 407 408 409 410 411 412 413 414 415 416 417 418 419 420 421 422 423 424 425 426 427 428 429 430 431 432 433 434 435 436 437 438 439 440 441 442 443 444 445 446 1 
71 9 447 448 449 450 451 452 453 454 455 456 457 458 459 460 461 462 463 464 465 466 467 468 469 470 471 472 473 474 475 476 477 478 479 480 481 482 483 484 485 486 487 488 489 490 491 492 493 494 495 496 497 498 499 500 501 502 503 504 505 506 507 508 509 510 511 512 513 514 515 2 
3 9 516 6 
4 5 517 518 2 
3 5 519 3 
10 4 520 521 522 523 524 525 526 527 1 
3 1 528 0 
34 17 217 218 219 220 221 222 223 224 225 226 227 228 229 230 231 232 233 234 235 236 237 238 239 240 241 242 243 244 245 246 10 358 8 

POINT_DATA 529
SCALARS DY_raw double
LOOKUP_TABLE default
278.707 245.5 324.938 294.89 345.483 267.941 308.11 364.598 256.399 
239.495 271.173 270.764 276.901 227.315 294.473 348.107 222.376 241.568 
233.115 363.239 259.489 352.654 346.125 280.864 296.962 287.909 255.582 
280.761 326.286 245.597 309.262 277.448 284.834 232.218 254.102 255.674 
258.85 228.293 233.198 255.31 261.597 283.459 291.487 296.102 294.693 
281.017 266.845 281.367 300.156 299.121 280.278 232.453 286.918 304.996 
344.584 351.735 332.305 314.614 308.022 328.595 259.418 266.698 312.817 
349.453 298.207 328.857 309.054 276.455 276.455 297.814 265.674 265.674 
235.955 235.546 235.546 210.372 232.716 254.404 263.206 291.554 284.084 
327.279 289.122 260.593 261.543 334.217 379.249 351.638 319.945 314.871 
275.987 275.191 249.195 238.429 220.451 214.347 241.193 291.784 253.754 
274.066 293.82 296.565 335.204 346.723 350.539 340.306 296.326 288.897 
340.952 298.327 322.731 305.72 319.879 335.154 340.282 313.022 286.286 
273.797 302.214 307.565 273.828 320.795 272.469 335.604 345.391 249.787 
265.616 288.136 324.95 256.219 354.163 330.294 329.744 345.868 353.633 
327.803 374.777 348.868 316.116 314.255 295.99 324.024 345.811 244.494 
267.215 275.547 259.171 260.28 299.177 299.177 321.944 296.346 358.818 
346.529 346.529 326.8 305.897 319.439 276.467 282.418 248.757 224.202 
232.85 224.615 223.703 241.69 264.032 255.258 251.098 246.953 256.728 
229.44 218.379 224.435 214.386 222.016 231.339 255.65 267.677 297.008 
294.801 329.646 342.443 342.443 343.535 325.437 325.437 305.505 281.182 
293.305 283.4 294.389 295.094 320.277 320.277 312.571 271.806 281.675 
238.068 210.983 230.362 215.243 253.139 231.082 224.721 251.371 276.098 
246.337 225.062 347.393 315.616 304.034 298.386 308.247 310.721 283.483 
266.664 248.271 261.886 270.248 254.73 272.058 272.058 267.628 347.87 
320.589 357.402 378.449 348.273 361.381 390.416 359.387 378.905 386.514 
372.099 367.558 367.558 365.874 349.413 349.413 323.925 315.957 342.21 
339.629 312.364 316.526 312.31 243.019 288.443 308.602 279.354 299.535 
288.245 324.756 265.248 293.752 293.05 354.247 305.623 218.017 271.239 
280.596 314.513 287.051 322.276 284.458 312.955 335.684 349.878 349.878 
309.767 305.404 305.404 312.874 334.051 316.914 312.682 294.739 259.933 
225.465 223.557 235.828 270.83 285.591 296.548 334.392 327.361 337.034 
325.696 353.349 353.349 349.716 324.513 324.513 322.315 307.691 307.691 
350.045 318.496 338.596 343.421 314.803 309.872 287.939 303.401 268.78 
271.465 291.709 312.638 315.142 371.173 392.403 367.327 356.122 294.251 
304.161 227.315 249.532 285.036 285.036 269.498 241.443 224.549 234.232 
231.263 225.554 228.657 228.657 234.08 258.362 277.489 254.719 287.014 
285.525 246.92 275.015 284.327 282.204 274.78 265.732 270.084 264.113 
304.709 342.221 402.373 265.936 266.776 322.295 305.044 310.34 318.862 
318.862 305.71 313.067 362.377 421.478 413.576 367.145 268.856 313.248 
357.751 356.271 301.571 291.918 291.918 315.875 312.446 342.273 424.593 
443.059 466.515 494.55 503.612 441.988 467.754 467.754 381.951 364.924 
301.328 250.952 273.078 264.939 267.313 298.85 303.805 288.115 312.597 
324.335 316.94 316.94 274.774 288.147 288.147 288.582 312.949 320.105 
320.759 343.374 316.164 257.76 273.306 253.596 248.199 252.566 243.306 
243.306 271.015 314.809 314.809 316.766 312.162 329.544 324.14 320.075 
318.453 284.088 282.859 314.223 331.306 369.783 369.293 341.917 370.258 
349.032 330.017 349.392 331.197 306.165 302.496 308.144 324.488 311.738 
318.782 324.421 368.262 364.267 397.513 388.265 393.16 372.645 338.682 
298.441 277.616 300.304 323.77 313.521 291.36 258.428 300.114 319.636 
269.269 267.547 265.743 254.585 264.554 262.853 278.621 289.523 283.758 
297.84 297.84 316.768 336.504 314.002 310.845 310.845 298.781 267.964 
286.046 278.481 295.684 295.684 288.58 296.577 296.856 274.78 278.778 
260.029 247.993 247.993 241.103 250.131 234.08 252.846 266.332 266.332 
301.084 301.084 266.329 231.775 263.407 253.158 274.667 274.667 282.908 
302.745 290.457 290.457 257.524 255.599 255.599 258.929 331.408 331.408 
327.931 344.533 271.175 268.974 264.68 249.157 268.614 294.071 308.183 
308.183 321.031 324.938 270.138 255.851 267.239 261.611 345.483 325.681 
306.394 270.164 274.11 273.852 231.48 263.742 257.879 
FIELD FieldData 7
DY_minmax 1 529 double
0.233033 0.119792 0.390691 0.288221 0.460752 0.19632 0.333304 0.525938 0.156961 
0.0993143 0.207344 0.205948 0.226876 0.0577779 0.2868 0.4697 0.0409356 0.106384 
0.077559 0.521302 0.167499 0.485208 0.462943 0.24039 0.295288 0.264413 0.154175 
0.240038 0.395287 0.120125 0.337231 0.22874 0.253929 0.0744982 0.149126 0.154488 
0.165318 0.0611144 0.0778393 0.153245 0.174685 0.249241 0.276618 0.292354 0.287551 
0.240912 0.192581 0.242105 0.306178 0.302652 0.238392 0.075299 0.261036 0.322685 
0.457687 0.482072 0.415812 0.355483 0.333005 0.40316 0.167254 0.192082 0.349357 
0.47429 0.299534 0.404054 0.336523 0.225354 0.225354 0.298192 0.188588 0.188588 
0.0872424 0.0858475 0.0858475 0 0.0761952 0.150155 0.180172 0.276846 0.251371 
0.398674 0.268552 0.171262 0.174504 0.422334 0.5759 0.481741 0.373663 0.356361 
0.22376 0.221043 0.132393 0.0956792 0.0343707 0.0135555 0.105106 0.277628 0.147939 
0.217209 0.284571 0.293932 0.425698 0.464982 0.477996 0.443098 0.293118 0.267784 
0.445302 0.299942 0.383165 0.325154 0.373439 0.425529 0.443016 0.350055 0.258879 
0.21629 0.313196 0.331445 0.216398 0.376562 0.211762 0.427063 0.460439 0.134413 
0.188393 0.265188 0.390733 0.156345 0.490353 0.408956 0.407081 0.462066 0.488545 
0.400459 0.560651 0.472296 0.360606 0.354261 0.291971 0.387573 0.461873 0.116363 
0.193846 0.22226 0.166413 0.170194 0.302841 0.302841 0.380481 0.293187 0.506228 
0.46432 0.46432 0.397042 0.325756 0.371938 0.225396 0.245691 0.1309 0.0471636 
0.076653 0.0485713 0.0454606 0.106799 0.182989 0.15307 0.138882 0.124747 0.158082 
0.0650244 0.0273058 0.0479559 0.013687 0.0397077 0.0715005 0.154405 0.195419 0.295445 
0.287918 0.406746 0.450386 0.450386 0.45411 0.392392 0.392392 0.324421 0.241474 
0.282816 0.249038 0.286514 0.288918 0.374794 0.374794 0.348518 0.209502 0.243156 
0.0944473 0.00208494 0.0681688 0.0166121 0.145842 0.0706234 0.048931 0.139814 0.224137 
0.122647 0.0500938 0.467265 0.358901 0.319404 0.300143 0.333772 0.342208 0.249321 
0.191966 0.129242 0.175672 0.204188 0.151269 0.210359 0.210359 0.195254 0.468893 
0.37586 0.501397 0.573171 0.470269 0.514967 0.613983 0.508167 0.574729 0.600675 
0.551517 0.536033 0.536033 0.530291 0.474154 0.474154 0.387235 0.360064 0.449593 
0.440788 0.34781 0.362003 0.347628 0.111333 0.266236 0.334981 0.235241 0.304063 
0.26556 0.390071 0.187138 0.28434 0.281946 0.49064 0.324822 0.0260694 0.207566 
0.239475 0.355139 0.261489 0.381614 0.252646 0.349827 0.427335 0.47574 0.47574 
0.338955 0.324074 0.324074 0.349549 0.421767 0.363328 0.348895 0.287708 0.169011 
0.0514689 0.0449646 0.0868093 0.206173 0.256511 0.293875 0.422929 0.398952 0.431939 
0.393274 0.487578 0.487578 0.475188 0.389241 0.389241 0.381746 0.331873 0.331873 
0.476311 0.368721 0.437268 0.453719 0.356129 0.339314 0.264516 0.317244 0.19918 
0.208339 0.277373 0.348745 0.357285 0.54836 0.62076 0.535245 0.497035 0.286041 
0.319836 0.0577779 0.133544 0.254618 0.254618 0.201629 0.105959 0.048345 0.0813652 
0.0712426 0.0517736 0.0623565 0.0623565 0.0808494 0.163654 0.228882 0.151231 0.261364 
0.256285 0.124633 0.220443 0.252201 0.24496 0.219642 0.188788 0.203629 0.183267 
0.321705 0.449628 0.654759 0.189483 0.192348 0.381676 0.32285 0.34091 0.369969 
0.369969 0.325118 0.350207 0.518364 0.719908 0.692963 0.534623 0.19944 0.350826 
0.50259 0.497542 0.311006 0.278087 0.278087 0.359785 0.348092 0.449804 0.730532 
0.793504 0.873494 0.969098 1 0.789852 0.877718 0.877718 0.585116 0.527051 
0.310176 0.138383 0.213838 0.186081 0.194179 0.301725 0.318622 0.265117 0.348605 
0.388635 0.363417 0.363417 0.219622 0.265226 0.265226 0.26671 0.349807 0.374209 
0.37644 0.45356 0.360769 0.1616 0.214616 0.1474 0.128996 0.143891 0.112309 
0.112309 0.206804 0.35615 0.35615 0.362823 0.347123 0.406399 0.387968 0.374106 
0.368576 0.251385 0.247192 0.354149 0.412407 0.543619 0.54195 0.448591 0.545241 
0.472856 0.408012 0.474084 0.412036 0.326671 0.314161 0.333421 0.389155 0.345678 
0.369697 0.388928 0.538432 0.524809 0.638183 0.606646 0.62334 0.553379 0.437559 
0.300331 0.229314 0.306685 0.386709 0.351756 0.276184 0.163879 0.306035 0.372609 
0.200848 0.194978 0.188825 0.150773 0.184772 0.178969 0.232741 0.269918 0.25026 
0.298281 0.298281 0.36283 0.430132 0.353398 0.342632 0.342632 0.301491 0.196398 
0.258061 0.232263 0.290929 0.290929 0.266702 0.293973 0.294924 0.219644 0.233276 
0.16934 0.128294 0.128294 0.104799 0.135586 0.0808485 0.144844 0.190833 0.190833 
0.309345 0.309345 0.190824 0.0729883 0.180858 0.145907 0.219259 0.219259 0.24736 
0.315009 0.273104 0.273104 0.160798 0.15423 0.15423 0.165588 0.412753 0.412753 
0.400898 0.457514 0.20735 0.199843 0.185201 0.132265 0.198615 0.285428 0.333554 
0.333554 0.377367 0.390691 0.203813 0.155091 0.193926 0.174734 0.460752 0.393225 
0.327451 0.203902 0.217358 0.216479 0.0719807 0.182003 0.162006 
WidthEq 1 529 double
5.16581 6.46447 5.85387 5.34252 4.12497 7.4963 2.94354 3.90848 1.17034 
4.26095 2.23121 5.15103 1.83053 2.92636 2.13665 3.44752 3.22263 3.73942 
4.40029 2.62529 4.51103 3.32528 3.45033 1.89934 3.65183 2.7148 2.44393 
3.68415 2.41842 3.15494 2.40704 2.79723 1.91267 2.25596 1.77525 3.13307 
3.10587 3.11921 2.91939 2.92764 2.96064 2.88851 2.84261 2.67811 1.53646 
1.77361 2.18803 2.10741 2.16276 2.2353 2.24251 2.29834 2.81626 2.73867 
2.61215 2.40416 2.49592 2.63566 2.47769 3.58891 2.3605 2.51875 2.43255 
2.35942 2.64683 2.43083 2.56837 2.81281 2.81281 2.77108 3.23 3.23 
3.67678 3.70906 3.70906 3.90011 3.8106 3.71035 3.79101 3.55891 3.50416 
3.25827 3.53395 3.92783 4.16766 2.07929 1.77565 1.7976 1.98204 2.02738 
2.38621 2.3945 2.75646 3.13928 3.22831 3.32696 3.28291 2.92139 2.98528 
3.04027 2.81181 2.38341 2.43436 2.51202 2.51206 2.56565 2.88903 3.28911 
3.32937 3.27994 3.01776 3.14096 2.4857 2.24275 2.11538 2.36771 2.8843 
3.32708 3.73049 3.87812 2.63013 3.65952 4.12929 3.63621 3.55442 2.38265 
2.73167 3.13295 3.36173 4.52085 3.23172 3.79902 3.82874 3.67702 3.45289 
3.25155 2.8964 3.29484 3.6582 3.66481 3.92607 3.87664 3.74483 4.31161 
4.05772 3.75436 3.73474 3.51209 3.05797 3.05797 3.03803 3.5207 3.24221 
3.1833 3.1833 2.90625 2.73002 2.59513 2.64207 2.4966 2.73867 3.1243 
2.99693 3.14304 2.99144 2.97971 2.98231 3.3413 3.49699 3.39233 3.40499 
3.53419 3.48721 3.50371 3.53804 3.45077 3.35756 3.20112 3.19503 3.0033 
3.16659 3.02116 3.06706 3.06706 2.85847 3.23032 3.23032 3.44536 3.48133 
3.63248 3.49995 3.56339 3.47464 3.15794 3.15794 3.21522 3.56079 3.61482 
4.04715 4.13182 4.17832 4.39965 4.44402 4.72091 5.12287 5.08911 5.20049 
6.31543 7.26728 3.40711 3.59495 3.70141 3.55474 3.78428 3.87764 4.07815 
4.19758 4.26399 4.13674 4.21637 4.03221 3.68299 3.68299 3.50323 2.66221 
2.89444 2.57158 2.45879 2.62404 2.68721 2.55808 2.75409 2.68224 2.77032 
2.83708 2.99573 2.99573 2.99181 3.22631 3.22631 3.25571 3.32949 3.1541 
2.9109 3.2056 2.87277 2.56112 4.61817 4.16462 3.78612 3.88201 3.52735 
2.70203 2.27643 2.37888 2.12828 1.88239 1.76432 1.80702 2.69482 4.1516 
3.01015 3.2616 4.1806 4.24557 4.1007 3.72036 3.45169 3.25535 3.25535 
3.62868 3.73802 3.73802 3.72452 3.45946 3.49594 3.32877 3.51309 3.62992 
4.36208 4.87519 4.64124 3.8631 3.77751 3.59535 3.39161 3.34831 3.27117 
3.28102 3.24474 3.24474 3.32909 3.58154 3.58154 3.58046 3.61274 3.61274 
3.26168 3.55875 3.62191 3.7407 3.6785 4.12216 4.79444 5.0237 5.66566 
6.0128 6.3387 6.0742 3.6483 2.6852 2.54895 3.1082 3.66016 3.14444 
3.00787 2.92636 2.83256 2.57025 2.57025 2.6478 2.76419 2.84617 2.75998 
2.78646 2.78654 2.69506 2.69506 2.65496 2.38946 2.32425 2.33883 2.31893 
2.30146 2.35265 2.32589 2.59425 3.25911 3.54733 4.42316 5.06892 2.60258 
1.93242 1.73124 1.57571 2.47938 2.96505 2.68697 3.12566 3.27774 3.2205 
3.2205 3.29288 3.13852 2.73018 2.48947 2.82082 3.42501 1.57079 4.6833 
4.01683 3.36237 3.20496 3.02429 3.02429 2.37668 2.17866 1.80878 1.24973 
1.19834 1 1.0594 1.06877 1.37541 1.54535 1.54535 1.98613 2.14334 
2.40368 2.64511 2.61363 2.7285 2.86744 2.78489 2.91959 3.14064 2.99461 
3.02445 3.13587 3.13587 3.34419 3.31607 3.31607 3.41416 3.30506 3.30918 
3.31122 3.10415 3.33537 4.08351 3.77743 4.18144 4.23808 4.06845 4.19758 
4.19758 3.86379 3.73189 3.73189 3.60621 3.56992 3.52895 3.57585 3.68715 
3.44215 4.22786 4.34802 4.05411 4.21436 3.89254 3.89066 4.22209 3.84708 
4.08399 4.08295 3.93195 4.00753 4.23002 4.47362 4.31618 3.98775 3.98647 
3.90416 3.74287 3.52278 3.41948 3.21654 3.20829 3.03694 3.0003 3.42778 
3.63541 4.04759 4.44551 4.65754 5.18908 5.81045 4.42524 4.0109 3.78861 
4.03365 4.08588 3.9068 3.99692 3.97421 4.05788 4.05391 4.02267 4.11211 
3.9839 3.9839 3.66765 3.3987 3.59435 3.57076 3.57076 3.77355 4.18477 
4.13995 4.58805 4.69956 4.69956 4.87607 4.70629 4.62506 4.55613 4.5134 
4.71226 4.48059 4.48059 4.66387 4.69647 4.86618 4.95782 4.83301 4.83301 
4.55817 4.55817 4.70404 4.8256 4.54804 4.6064 4.38427 4.38427 4.29948 
4.20223 4.29118 4.29118 4.56002 4.61593 4.61593 4.55833 3.93532 3.93532 
4.00625 3.86571 4.53727 4.61337 4.82312 4.78663 4.78551 5.0485 5.04565 