# vtk DataFile Version 3.0
vtk output
ASCII
DATASET POLYDATA
POINTS 394 float
2.5341 0.133196 2.21099 3.39201 0.0757496 1.56112 -0.147871 0.386313 1.08251 
2.93696 -0.794223 1.85086 3.50998 -0.100119 1.20018 2.83938 0.706242 0.546194 
0.323551 1.00124 0.150066 3.70092 -0.677653 1.39778 0.732041 -1.01412 1.44621 
3.47617 -0.150485 0.901383 -0.314488 -0.284484 0.824063 3.19616 -1.17936 1.32297 
3.63529 -0.723649 1.1771 2.51545 -1.57958 1.41032 3.14478 -0.262793 0.043484 
4.16043 0.453547 -0.42616 2.92416 -0.347189 -0.326175 -0.428298 -0.548228 -0.489915 
2.3065 0.157017 -1.08323 1.68268 -2.10164 0.0741195 2.72112 -1.49631 -0.3939 
0.399319 -0.0728653 -1.54339 2.4487 -1.85808 -0.270148 2.32503 -1.54817 -0.850359 
0.224896 -0.924919 -1.66578 0.26182 -0.813516 -1.62642 0.300377 -0.719924 -1.61069 
0.340867 -0.648606 -1.62448 0.380395 -0.58655 -1.64992 0.409762 -0.522038 -1.66864 
0.423003 -0.447215 -1.66838 0.44823 -0.360874 -1.65739 0.468861 -0.266399 -1.63426 
0.452489 -0.17041 -1.59625 2.42756 -1.53673 -0.818455 2.49364 -1.53961 -0.767138 
2.53152 -1.54196 -0.693384 2.58195 -1.53235 -0.605485 2.64581 -1.51358 -0.503743 
2.39148 -1.8648 -0.296898 2.33466 -1.86712 -0.308371 2.27789 -1.86673 -0.312584 
2.21851 -1.85661 -0.324317 2.16232 -1.85834 -0.326893 2.10821 -1.86781 -0.323497 
2.05451 -1.87877 -0.318947 2.0012 -1.89123 -0.313244 1.95001 -1.9115 -0.301504 
1.90197 -1.94054 -0.273645 1.85242 -1.95811 -0.235961 1.80483 -1.97413 -0.171449 
1.75696 -1.98575 -0.100964 1.7086 -1.99114 -0.0445175 1.67629 -2.01931 0.00234625 
1.67332 -2.05872 0.0411318 2.49479 -1.80124 -0.254061 2.5396 -1.73671 -0.234561 
2.58188 -1.66658 -0.231857 2.62421 -1.60589 -0.25918 2.66985 -1.55327 -0.314261 
2.78305 -1.39202 -0.390797 2.83215 -1.30223 -0.371459 2.87781 -1.23176 -0.343998 
2.9199 -1.15925 -0.336906 2.95983 -1.09869 -0.3612 2.99115 -1.05654 -0.409382 
3.00741 -1.03551 -0.479836 3.02721 -1.0183 -0.556473 3.02953 -0.99558 -0.619872 
3.01953 -0.948174 -0.647007 3.0049 -0.869969 -0.632636 2.98756 -0.763559 -0.580866 
2.96847 -0.638855 -0.50586 2.94746 -0.499233 -0.417459 2.35651 0.140447 -1.03013 
2.39464 0.107851 -0.993637 2.44711 0.0645703 -0.975982 2.49947 0.0212761 -0.958311 
2.53662 -0.020593 -0.933485 2.57852 -0.0569567 -0.903187 2.61527 -0.0943727 -0.872452 
2.66682 -0.128768 -0.842971 2.71887 -0.167595 -0.819408 2.75823 -0.213544 -0.800635 
2.81099 -0.261293 -0.788872 2.86105 -0.300527 -0.76514 2.88565 -0.335887 -0.727502 
2.89736 -0.358825 -0.669164 2.90624 -0.369782 -0.592161 2.91433 -0.361646 -0.47698 
-0.356133 -0.678172 -0.591367 -0.295763 -0.787855 -0.662464 -0.254927 -0.869779 -0.690794 
-0.213288 -0.924334 -0.683963 -0.187366 -0.973032 -0.66406 -0.161241 -1.02622 -0.650041 
-0.122673 -1.09047 -0.65469 -0.108234 -1.16418 -0.663177 -0.116964 -1.23808 -0.66382 
-0.104158 -1.29399 -0.648672 -0.0676298 -1.33598 -0.623793 -0.0427292 -1.37582 -0.592055 
-0.0176236 -1.41561 -0.560334 0.0227909 -1.45681 -0.535784 0.0607696 -1.50758 -0.522769 
0.116543 -1.56832 -0.528876 0.18081 -1.63186 -0.541585 0.236691 -1.69258 -0.5477 
0.276652 -1.74294 -0.534853 0.330492 -1.7814 -0.511441 0.391902 -1.81378 -0.482795 
0.445334 -1.84779 -0.453474 0.483973 -1.88482 -0.4229 0.535211 -1.91474 -0.387519 
0.585632 -1.93577 -0.340328 0.621725 -1.94611 -0.274309 0.670513 -1.94932 -0.203482 
0.719204 -1.95256 -0.132655 0.7535 -1.96327 -0.0664837 0.792544 -1.96848 0.00516033 
0.826131 -1.97026 0.0831406 0.87589 -1.96421 0.165625 0.935081 -1.95161 0.25311 
0.994745 -1.92836 0.351182 1.04932 -1.88438 0.461152 1.08828 -1.82214 0.574865 
1.10407 -1.77701 0.69987 1.11257 -1.74598 0.82569 1.13165 -1.72185 0.938882 
1.1754 -1.68916 1.03802 1.22886 -1.6557 1.1094 1.28856 -1.64686 1.17189 
1.35171 -1.66214 1.21563 1.41393 -1.67981 1.24254 1.47222 -1.68295 1.25822 
1.52831 -1.67202 1.28173 1.57726 -1.62874 1.29894 1.63014 -1.60296 1.32033 
1.69119 -1.61633 1.3439 1.7538 -1.64429 1.35072 1.81043 -1.64709 1.34746 
1.86209 -1.62561 1.34413 1.91142 -1.58669 1.35537 1.96914 -1.57888 1.39063 
2.02935 -1.58325 1.42595 2.08636 -1.58747 1.42378 2.14293 -1.60184 1.39207 
2.2016 -1.62691 1.35927 2.26217 -1.65025 1.35319 2.31735 -1.63667 1.37153 
2.37102 -1.60668 1.39599 2.43351 -1.58419 1.41122 -0.47216 -0.583958 -0.428862 
-0.517139 -0.606314 -0.3501 -0.561459 -0.614927 -0.253772 -0.594954 -0.612271 -0.146627 
-0.601493 -0.608636 -0.0476248 -0.594508 -0.602248 0.0502239 -0.574407 -0.588647 0.152836 
-0.528981 -0.556274 0.270917 -0.472754 -0.512541 0.399757 -0.415863 -0.458024 0.5391 
-0.362146 -0.38543 0.683187 -0.402818 -0.484509 -0.508306 -0.400507 -0.420983 -0.518861 
-0.399875 -0.357801 -0.529272 -0.384859 -0.287146 -0.535029 -0.372278 -0.226059 -0.552327 
-0.342203 -0.170469 -0.582848 -0.300332 -0.135146 -0.643732 -0.257646 -0.108728 -0.716434 
-0.225024 -0.0798219 -0.7824 -0.209227 -0.0316815 -0.817586 -0.180677 0.0417296 -0.824497 
-0.143166 0.125958 -0.820343 -0.103089 0.204682 -0.821168 -0.0595969 0.262343 -0.833749 
-0.0121254 0.299369 -0.849079 0.032591 0.343677 -0.879379 0.0748151 0.40017 -0.909742 
0.115867 0.466888 -0.929317 0.156074 0.545548 -0.930085 0.198358 0.619441 -0.917812 
0.246702 0.667913 -0.895269 0.298756 0.693805 -0.883319 0.352029 0.709304 -0.882026 
0.405734 0.720266 -0.886576 0.459415 0.731312 -0.891191 0.51274 0.743682 -0.896828 
0.56436 0.762376 -0.907349 0.614903 0.785065 -0.920955 0.671769 0.784299 -0.916448 
0.727149 0.79198 -0.909118 0.780008 0.814885 -0.894861 0.830879 0.856918 -0.857999 
0.880525 0.91231 -0.80341 0.929735 0.975186 -0.735932 0.981459 1.0258 -0.66831 
1.03716 1.05874 -0.596395 1.09259 1.08972 -0.532305 1.15197 1.10312 -0.463981 
1.21387 1.10128 -0.402591 1.27491 1.09384 -0.364897 1.33152 1.09694 -0.354034 
1.38816 1.09701 -0.350173 1.44797 1.08536 -0.337257 1.50705 1.07636 -0.326397 
1.56931 1.05556 -0.306415 1.63158 1.03475 -0.286434 1.69107 1.0213 -0.281482 
1.7521 0.996293 -0.286284 1.81116 0.969744 -0.317927 1.87064 0.938736 -0.355486 
1.93288 0.900374 -0.378007 1.99319 0.878027 -0.384865 2.05587 0.852768 -0.370792 
2.11775 0.836337 -0.344842 2.17642 0.83474 -0.321013 2.23707 0.831661 -0.277344 
2.29773 0.828582 -0.233675 2.35558 0.835891 -0.198028 2.41746 0.81946 -0.172078 
2.48056 0.789671 -0.163855 2.542 0.756823 -0.181294 2.60485 0.711795 -0.18947 
2.6588 0.670393 -0.173128 2.69701 0.637904 -0.136712 2.74744 0.616881 -0.0895207 
2.79817 0.591392 -0.0482225 2.83359 0.567308 0.000239329 2.87052 0.561671 0.0720619 
2.88563 0.587856 0.192711 2.87649 0.640837 0.356528 2.94356 -0.285272 -0.142365 
2.98821 -0.238579 -0.016544 3.05355 -0.226599 0.0315754 4.15625 0.407868 -0.392026 
4.12672 0.363127 -0.351058 4.08236 0.334079 -0.304368 4.02966 0.337451 -0.25482 
3.97644 0.345261 -0.199347 3.92897 0.32918 -0.134779 3.88719 0.291005 -0.0810325 
3.86016 0.245197 -0.0390878 3.87152 0.202601 -0.00620324 3.91898 0.167371 0.023624 
3.96644 0.132141 0.0534515 3.97778 0.0896307 0.0862701 3.95077 0.0407782 0.121218 
3.90815 -0.00309399 0.151335 3.86036 -0.0355754 0.17251 3.81524 -0.078382 0.20165 
3.77063 -0.125619 0.224873 3.72543 -0.16663 0.234082 3.69358 -0.221915 0.245678 
3.67739 -0.268559 0.279709 3.64443 -0.294452 0.349577 3.59718 -0.278527 0.479844 
3.54131 -0.225254 0.668077 3.18757 -0.116999 0.103776 3.21247 0.021342 0.177741 
3.21085 0.151976 0.274267 3.20731 0.27838 0.392421 3.20226 0.412199 0.49559 
3.15623 0.521657 0.567848 3.09336 0.589258 0.605449 3.03241 0.617758 0.616919 
2.96931 0.644596 0.601626 2.90453 0.674715 0.574454 3.16743 -0.247232 0.191245 
3.17922 -0.22927 0.317862 3.18726 -0.223776 0.416458 3.19749 -0.230295 0.496393 
3.21975 -0.241888 0.562396 3.26575 -0.232939 0.63005 3.32082 -0.201228 0.69976 
3.38849 -0.171955 0.793849 2.5778 -1.60293 1.26812 2.63579 -1.63133 1.16347 
2.68997 -1.64498 1.09699 2.74872 -1.66631 1.07378 2.80574 -1.6794 1.05042 
2.85938 -1.68287 1.0103 2.90948 -1.67321 0.960039 2.96111 -1.66043 0.935388 
3.0111 -1.62983 0.934371 3.05576 -1.56068 0.962747 3.1011 -1.47105 1.04077 
3.14719 -1.34369 1.17093 3.26814 -1.18775 1.17324 3.32333 -1.18221 1.06141 
3.36892 -1.15161 0.991964 3.41139 -1.09968 0.952665 3.4532 -1.03579 0.935272 
3.49757 -0.969641 0.953515 3.54703 -0.910631 1.01464 3.59101 -0.81951 1.08835 
2.583 -1.48124 1.62265 2.63499 -1.36992 1.78389 2.67927 -1.26459 1.88717 
2.71905 -1.16265 1.93694 2.75762 -1.06618 1.95981 2.79677 -0.978562 1.96771 
2.83762 -0.903598 1.95738 2.88339 -0.845568 1.91681 3.65657 -0.70074 1.29135 
3.65858 -0.615029 1.21762 3.66861 -0.52726 1.23577 3.68392 -0.461079 1.22411 
3.68368 -0.411677 1.19616 3.6718 -0.364651 1.16919 3.64746 -0.3111 1.15502 
3.60511 -0.247623 1.15999 3.5652 -0.174577 1.1765 3.11326 -1.04905 1.49772 
3.03186 -0.922084 1.67509 -0.253498 -0.271609 0.911462 -0.194801 -0.25466 1.00494 
-0.148052 -0.235625 1.10528 -0.125026 -0.230493 1.19591 -0.100368 -0.243172 1.2629 
-0.0492377 -0.273116 1.29829 0.0128804 -0.314419 1.31513 0.0667211 -0.352882 1.33854 
0.105059 -0.385437 1.37502 0.157258 -0.406097 1.42206 0.217851 -0.429579 1.46251 
0.270875 -0.459136 1.49774 0.309515 -0.496166 1.52832 0.361568 -0.534994 1.55188 
0.414437 -0.582721 1.56363 0.455525 -0.646455 1.55877 0.51233 -0.716053 1.54083 
0.57919 -0.788135 1.51616 0.645943 -0.860239 1.4915 0.701261 -0.934671 1.46782 
-0.281344 -0.133046 0.916593 -0.248346 0.000230233 0.985655 -0.22306 0.109252 1.026 
-0.211354 0.201905 1.04989 -0.184436 0.293122 1.0666 3.4986 -0.132001 1.05312 
0.375623 1.03001 0.169144 0.426902 1.06759 0.200097 0.478152 1.10822 0.238055 
0.531918 1.13657 0.276133 0.590042 1.14288 0.312551 0.647087 1.15319 0.345879 
0.704418 1.16832 0.394172 0.758178 1.19964 0.439321 0.812346 1.2265 0.478553 
0.870902 1.22827 0.509128 0.929171 1.22523 0.524738 0.98895 1.21365 0.537594 
1.04518 1.21817 0.547364 1.10098 1.23018 0.570037 1.16079 1.23608 0.625449 
1.22229 1.23871 0.692756 1.28249 1.2432 0.749262 1.33998 1.25184 0.783875 
1.39855 1.25649 0.821579 1.45562 1.26968 0.862035 1.51584 1.27112 0.911544 
1.5769 1.2636 0.949312 1.63558 1.262 0.973142 1.69743 1.24565 0.999026 
1.75929 1.22635 1.01785 1.81754 1.20869 0.998022 1.87453 1.18987 0.9604 
1.93317 1.16489 0.927544 1.99375 1.13859 0.914388 2.04911 1.13167 0.886277 
2.10042 1.13388 0.832423 2.15703 1.11352 0.786645 2.21885 1.07673 0.762905 
2.27954 1.05002 0.750072 2.34342 1.01149 0.746361 2.40775 0.965399 0.729811 
2.46761 0.932974 0.693346 2.5267 0.906332 0.661775 2.58811 0.876955 0.650999 
2.64844 0.851572 0.637138 2.71107 0.811794 0.615711 2.77344 0.767112 0.579376 
3.44857 -0.00320548 1.37372 2.85804 -0.62024 1.9682 2.81532 -0.472204 2.06735 
2.78219 -0.354338 2.13726 2.7395 -0.266688 2.17353 2.71342 -0.195354 2.183 
2.69695 -0.140197 2.16816 2.67281 -0.0911371 2.14811 2.63128 -0.0365599 2.14127 
2.59096 0.0409328 2.16368 
LINES 24 442
11 24 25 26 27 28 29 30 31 32 33 21 
7 23 34 35 36 37 38 20 
16 20 60 61 62 63 64 65 66 67 68 69 70 71 72 73 16 
18 18 74 75 76 77 78 79 80 81 82 83 84 85 86 87 88 89 16 
64 17 90 91 92 93 94 95 96 97 98 99 100 101 102 103 104 105 106 107 108 109 110 111 112 113 114 115 116 117 118 119 120 121 122 123 124 125 126 127 128 129 130 131 132 133 134 135 136 137 138 139 140 141 142 143 144 145 146 147 148 149 150 151 13 
13 17 152 153 154 155 156 157 158 159 160 161 162 10 
72 17 163 164 165 166 167 168 169 170 171 172 173 174 175 176 177 178 179 180 181 182 183 184 185 186 187 188 189 190 191 192 193 194 195 196 197 198 199 200 201 202 203 204 205 206 207 208 209 210 211 212 213 214 215 216 217 218 219 220 221 222 223 224 225 226 227 228 229 230 231 232 5 
5 16 233 234 235 14 
25 15 236 237 238 239 240 241 242 243 244 245 246 247 248 249 250 251 252 253 254 255 256 257 258 9 
12 14 259 260 261 262 263 264 265 266 267 268 5 
10 14 269 270 271 272 273 274 275 276 9 
14 13 277 278 279 280 281 282 283 284 285 286 287 288 11 
10 11 289 290 291 292 293 294 295 296 12 
10 13 297 298 299 300 301 302 303 304 3 
3 12 305 7 
10 12 306 307 308 309 310 311 312 313 4 
4 11 314 315 3 
22 10 316 317 318 319 320 321 322 323 324 325 326 327 328 329 330 331 332 333 334 335 8 
7 10 336 337 338 339 340 2 
3 9 341 4 
44 6 342 343 344 345 346 347 348 349 350 351 352 353 354 355 356 357 358 359 360 361 362 363 364 365 366 367 368 369 370 371 372 373 374 375 376 377 378 379 380 381 382 383 5 
3 4 384 1 
11 3 385 386 387 388 389 390 391 392 393 0 
24 19 54 53 52 51 50 49 48 47 46 45 44 43 42 41 40 39 22 55 56 57 58 59 20 

POINT_DATA 394
SCALARS DY_raw double
LOOKUP_TABLE default
2388.78 1968.52 1918.3 1810.89 1730.55 2646.02 2759.28 2374.58 1604.93 
1977.12 1467.03 1582.91 1952.94 1679.79 1622.15 1845.98 2456.38 1814.54 
1685.42 1901.64 1623.36 2390.82 2124.76 1663.15 1935.8 2124.83 2412.93 
2199.02 2159.35 2081.53 1961.52 2104.04 1684.69 1834.33 1576.21 1761.65 
1930.15 1881.34 1764.28 2124.76 2199.7 1908.13 1908.13 1983.49 1983.49 
2053.9 2101.25 2101.25 2040.01 1769.94 1888.93 1752.61 1694.52 1699.7 
1901.64 1964.93 1828.2 1844.95 1813.14 1781.78 1806.91 1796.41 1849.34 
1924.18 1950.07 1965.83 1877.76 1715.56 1541.16 1589.72 1744.44 2212.02 
2459.13 2282.82 1565.03 2023.96 2127.65 2019.56 2537.98 2537.98 2645.38 
3519.5 3056.99 2544.7 2484.3 2146.71 1970.68 1970.59 2059.4 2172.38 
1719.12 2063.16 1871.31 1982.09 2033.75 2033.75 2202.64 2232.04 2086.31 
2189.47 2189.47 2248 2144.33 1917.81 1902.7 2037.56 1884.02 2234.08 
2628 2513.87 3587.36 3635.48 3239.63 2591.69 2591.69 2241.11 1789.1 
1910.59 1669.99 1674.06 1594.62 1555.6 1641.81 1802.34 1679.82 1477.04 
1667.17 1660.54 1869.86 1904.19 1892.34 2138.95 1763.77 1778.62 2111.97 
1826.32 1908.12 1769.92 1827.73 1827.73 1819.57 1839.28 1988.85 2220.18 
2361.87 2189.39 2299.09 2049.59 1969.66 1889.1 1925.96 1828.51 2052.74 
2022.21 1816.03 1601.33 1489.45 1707.69 1902.64 1925.64 1858.5 1948.75 
1520.36 1814.54 1455.72 1506.6 1590.01 1506.65 1526.31 1509.22 1418.41 
1280.41 1261.19 1404.36 1597.85 1797.85 1732.2 1852.33 1896.24 1888.15 
2011.8 1882.35 1903.46 2168.7 2385.78 2300.82 2084.23 2084.23 1924.97 
1894.91 1894.91 1863.49 1919.96 1919.96 1966.38 2395.91 2237.06 1870.13 
2041.15 2047.2 2047.43 2228.36 2719.89 2731.96 3112.74 2791.21 2803.47 
2803.47 2707.32 3105.38 2704.37 2129.64 2047.92 1788.79 1779.48 1979.69 
1801.23 1927.62 2454.6 2216.62 2411.81 2178.43 2047.98 2164.36 2174.56 
2090.37 2083.31 2189.06 2126.21 2007.83 2007.83 2112.71 2181.34 2150.94 
1828.88 1689.1 2010.27 2392.61 2679.65 2603.94 2682.26 2457.28 2266.18 
2364.13 2364.13 2408.48 2179.01 2179.01 2391.44 2464.98 2493.42 2455.06 
2294.9 2119.77 1959.74 1809.88 1608.94 1611.55 1822.88 1491.39 1645.8 
2001 1966.28 1919.37 2435.77 2582.5 2432.28 2660.02 2497.26 1709.67 
1895.44 1876.72 1911.02 1881.2 2003.24 2235.03 2084.32 1416.83 1348.07 
1251.39 1506.41 1636.07 1636.07 1838.14 1838.14 1729.26 1626.83 1764.78 
1659.82 1443.33 1577.56 1742.45 1802.55 1673.49 1691.9 1715.58 1951.45 
1963.56 1822.33 2002.23 1946.82 1995.32 2088.12 2167.41 2052.37 2133.32 
2039 2119.87 2119.87 2139.94 2024.36 2082.39 1874.21 1739.53 1709.75 
1697.49 1742.08 2052.09 2051.37 2392.64 2720.37 2404.53 2865.28 2702.74 
2417.38 2184.01 2224.87 2120.62 2196.06 1927.41 2086.15 1933.2 1640.21 
1587.14 1673.08 1468.04 1679.56 1718.32 1751.79 1797.32 1747.21 1906.32 
2526.21 2376.63 2555.76 2378.99 2317.85 2526.52 2250.51 2306.53 2771.4 
2656.18 2977.7 2775.44 2556.77 2720.54 2994.78 2833.12 3192.76 3136.56 
2860.8 3150.65 2921.15 2698.42 3068.34 2735.75 3061.34 2481.88 2173.5 
2063.25 2203.89 2092.87 2092.87 1947.9 1912.29 2022.02 2102 2173.94 
2036.95 2365.92 2365.92 2606.72 2642.7 2923.4 1884.76 2032.43 2276.61 
2679.29 2179.27 2002.13 2231.51 1945.24 1945.24 2220.23 
FIELD FieldData 7
DY_minmax 1 394 double
0.477073 0.300799 0.279732 0.23468 0.200981 0.584974 0.632479 0.471119 0.148291 
0.304405 0.0904487 0.139054 0.294261 0.17969 0.155513 0.249398 0.505427 0.23621 
0.18205 0.272745 0.156021 0.477931 0.366331 0.172711 0.287071 0.366361 0.487203 
0.397478 0.380841 0.348198 0.297859 0.35764 0.181746 0.244512 0.136244 0.214028 
0.284703 0.264229 0.215128 0.366331 0.397765 0.275468 0.275468 0.307076 0.307076 
0.336608 0.356471 0.356471 0.330785 0.217502 0.267413 0.210233 0.185869 0.188039 
0.272745 0.299292 0.241939 0.248966 0.235623 0.222469 0.23301 0.228607 0.250809 
0.282197 0.293059 0.29967 0.262729 0.194695 0.121542 0.141911 0.206808 0.402934 
0.506582 0.43263 0.131555 0.324051 0.367546 0.322207 0.539656 0.539656 0.584702 
0.951351 0.757354 0.542475 0.51714 0.375537 0.301704 0.301663 0.338916 0.386304 
0.196189 0.340494 0.260024 0.306491 0.328157 0.328157 0.398996 0.411328 0.350205 
0.393472 0.393472 0.418024 0.374538 0.279528 0.27319 0.329754 0.265353 0.412184 
0.577414 0.529542 0.979814 1 0.833959 0.562185 0.562185 0.415135 0.225541 
0.276498 0.175578 0.177288 0.143966 0.127597 0.163761 0.231093 0.179701 0.0946474 
0.174396 0.171616 0.259414 0.273815 0.268845 0.372285 0.214915 0.221145 0.360968 
0.241151 0.275463 0.217494 0.241742 0.241742 0.238321 0.246586 0.309325 0.406356 
0.465786 0.393442 0.439452 0.3348 0.301275 0.267485 0.282944 0.242072 0.336122 
0.323316 0.236836 0.146781 0.0998517 0.191393 0.273162 0.28281 0.25465 0.292506 
0.112816 0.23621 0.0857053 0.107047 0.142034 0.107066 0.115312 0.108143 0.0700535 
0.0121703 0.00410992 0.0641633 0.145322 0.229209 0.201672 0.252062 0.270479 0.267085 
0.318949 0.264653 0.273507 0.384762 0.475817 0.44018 0.349331 0.349331 0.28253 
0.269922 0.269922 0.256742 0.280428 0.280428 0.299898 0.480065 0.413436 0.259527 
0.331262 0.333799 0.333894 0.409786 0.615955 0.621019 0.780736 0.645871 0.651015 
0.651015 0.610683 0.77765 0.609446 0.36838 0.334103 0.225412 0.221505 0.305481 
0.230627 0.283641 0.504682 0.404863 0.486734 0.388842 0.334125 0.382939 0.387221 
0.351905 0.348946 0.393301 0.366937 0.317285 0.317285 0.361279 0.390063 0.377314 
0.242226 0.183596 0.318309 0.478681 0.599078 0.567321 0.600172 0.505806 0.425651 
0.466733 0.466733 0.485336 0.389087 0.389087 0.478188 0.509036 0.520966 0.504875 
0.437695 0.36424 0.297116 0.234257 0.149971 0.151068 0.239708 0.100667 0.165434 
0.314419 0.299856 0.28018 0.496784 0.558329 0.495321 0.590844 0.522577 0.192223 
0.270143 0.262293 0.276677 0.264171 0.31536 0.412584 0.34937 0.0693907 0.0405489 
0 0.106966 0.161351 0.161351 0.246108 0.246108 0.200439 0.157478 0.215337 
0.171313 0.0805058 0.136808 0.205972 0.231183 0.177045 0.184769 0.194701 0.293639 
0.298715 0.239479 0.314935 0.291694 0.312039 0.350962 0.384219 0.335966 0.369922 
0.33036 0.364282 0.364282 0.3727 0.324217 0.348561 0.261239 0.204748 0.192259 
0.187114 0.205819 0.335849 0.335549 0.478693 0.616159 0.483679 0.676941 0.608763 
0.489072 0.391184 0.408321 0.364595 0.396238 0.283553 0.350135 0.285984 0.163087 
0.140828 0.176874 0.0908738 0.179594 0.195853 0.209891 0.228987 0.207967 0.274706 
0.534718 0.471978 0.547115 0.472968 0.44732 0.534848 0.419076 0.442574 0.637562 
0.589232 0.724096 0.639255 0.547535 0.61623 0.731257 0.663451 0.814301 0.790726 
0.675063 0.796636 0.700375 0.606951 0.762114 0.622609 0.759178 0.516124 0.386777 
0.34053 0.399521 0.352957 0.352957 0.292148 0.277212 0.323235 0.356783 0.386961 
0.329499 0.467485 0.467485 0.568487 0.583579 0.701319 0.265665 0.327603 0.430024 
0.598929 0.389196 0.314897 0.411108 0.291032 0.291032 0.406376 
WidthEq 1 394 double
1 2.87398 2.29654 2.49068 3.65798 2.15689 1.52988 1.16496 2.6996 
3.39177 3.02155 3.23003 1.98548 3.47152 3.15087 1.62227 2.81711 2.95089 
1.443 2.65006 2.8963 1.77351 1.93918 2.77789 2.39266 2.29813 2.09985 
2.13583 2.20989 2.29876 2.51978 2.49303 2.56426 2.15325 3.12043 2.8658 
2.62793 2.58862 2.74249 1.93918 1.94138 2.16193 2.16193 2.22906 2.22906 
2.19195 2.14314 2.14314 2.16505 2.59005 2.59367 2.8419 3.11654 2.97483 
2.65006 2.0408 2.20241 2.26958 2.46973 2.66366 2.61167 2.42582 2.25049 
2.20413 2.31141 2.45539 2.53025 2.53081 2.42678 2.1481 2.2093 1.96398 
2.07017 2.60371 1.73091 2.09912 2.02006 2.1827 1.96174 1.96174 1.90563 
1.40387 1.64208 1.86856 1.94768 2.27521 2.656 2.87526 2.97504 2.98601 
2.95809 2.54077 2.63218 2.55461 2.43848 2.43848 2.23578 2.18818 2.25426 
2.16876 2.16876 2.06904 2.02098 2.20082 2.15348 2.09003 2.21799 1.932 
1.70439 1.74648 1.28976 1.27469 1.39598 1.69415 1.69415 1.90761 2.43683 
2.36022 2.72564 3.03941 3.18515 3.47233 3.32521 3.28485 3.59512 4.13923 
3.81783 3.80184 3.4778 3.26365 3.00627 2.64654 2.64451 2.50035 2.23687 
2.38743 2.39693 2.49623 2.54722 2.54722 2.55997 2.48078 2.39482 2.2035 
2.00319 2.16411 2.12072 2.3392 2.32907 2.66366 2.93678 3.2248 2.39737 
2.69496 2.6695 2.90048 3.31055 3.04338 2.87273 2.90909 2.79444 2.60447 
2.97048 2.95089 2.96372 3.02046 2.76577 2.49112 2.37483 2.31019 2.24365 
2.37378 2.42071 2.31197 2.12491 1.86761 1.8421 1.64928 1.56563 1.48111 
1.52806 1.57895 1.48463 1.46799 1.36107 1.32172 1.45317 1.45317 1.50253 
1.4817 1.4817 1.46317 1.42474 1.42474 1.52323 1.4553 1.73978 2.2408 
2.11002 2.18726 2.04246 1.92135 1.45901 1.369 1.24433 1.27236 1.28909 
1.28909 1.41767 1.28186 1.44314 1.55582 1.5841 1.58454 1.54516 1.47789 
1.50719 1.5568 1.47697 1.64379 1.71182 1.81353 1.87599 1.83054 1.84392 
1.85323 1.88905 1.91387 1.95142 2.19316 2.19316 2.36826 2.62567 3.11294 
3.43966 3.42346 1.88059 1.79887 1.63854 1.66477 1.64953 1.78602 1.92928 
1.82849 1.82849 1.79766 1.77761 1.77761 1.5859 1.43829 1.34763 1.39906 
1.50223 1.714 1.98538 2.28962 2.67114 3.12575 3.39591 3.49423 3.16054 
2.52598 2.16985 2.29736 2.20853 2.30069 2.37577 2.30624 2.33416 3.02352 
2.71905 2.75145 2.78626 2.88704 2.96935 2.92267 3.18683 3.56043 3.10971 
3.04481 2.41606 2.11381 2.11381 1.82136 1.82136 2.01321 2.46211 2.50802 
2.93014 3.43853 3.13674 2.95449 2.84376 3.00077 2.96409 2.69981 2.37801 
3.07091 3.03658 2.62178 2.27302 2.03325 1.89189 1.95812 2.22044 1.86625 
1.98253 2.11249 2.11249 2.19291 2.56397 2.52773 3.16717 3.62867 3.041 
2.62607 2.84131 2.33657 2.3293 2.06425 1.79718 1.96516 1.59456 1.62751 
1.79841 1.83134 1.71454 1.85778 1.83511 1.97562 1.94054 2.20114 2.42952 
2.59635 2.69462 2.92351 2.88328 2.55009 2.54266 2.4749 2.44355 3.48046 
1.63218 1.63479 1.59075 1.56199 1.51611 1.44191 1.52884 1.49413 1.37505 
1.40948 1.30826 1.37867 1.40191 1.39335 1.34945 1.44997 1.36042 1.42022 
1.47663 1.4085 1.40166 1.42878 1.27006 1.33007 1.22491 1.43663 1.55557 
1.54755 1.45702 1.41782 1.41782 1.41687 1.39751 1.35399 1.49689 1.46196 
1.59408 1.6111 1.6111 1.56427 1.86464 1.75291 3.12891 2.21765 2.03511 
1.76231 1.94548 1.98284 1.80564 1.79442 1.79442 1.41786 
rRFP 1 394 double
2696.83 3592.12 3316.25 3409 3966.67 3249.53 2949.98 2775.64 3508.81 
3839.49 3662.62 3762.22 3167.64 3877.59 3724.4 2994.12 3564.95 3628.86 
2908.47 3485.14 3602.78 3066.37 3145.52 3546.21 3362.17 3317.01 3222.28 
3239.47 3274.85 3317.31 3422.9 3410.12 3444.15 3247.79 3709.86 3588.21 
3474.57 3455.79 3529.3 3145.52 3146.57 3251.94 3251.94 3284.01 3284.01 
3266.28 3242.96 3242.96 3253.43 3456.47 3458.2 3576.79 3708 3640.3 
3485.14 3194.07 3271.28 3303.37 3398.99 3491.64 3466.8 3378.01 3294.25 
3272.1 3323.35 3392.14 3427.9 3428.17 3378.47 3245.33 3274.57 3157.37 
3208.1 3463 3046.02 3221.93 3184.16 3261.86 3156.3 3156.3 3129.49 
2889.78 3003.58 3111.78 3149.58 3306.06 3487.98 3592.73 3640.4 3645.64 
3632.3 3432.93 3476.6 3439.54 3384.06 3384.06 3287.22 3264.48 3296.05 
3255.2 3255.2 3207.56 3184.6 3270.52 3247.9 3217.59 3278.72 3142.09 
3033.35 3053.46 2835.26 2828.06 2886.01 3028.46 3028.46 3130.44 3383.27 
3346.67 3521.25 3671.15 3740.78 3877.98 3807.69 3788.41 3936.64 4196.59 
4043.04 4035.4 3880.59 3778.28 3655.32 3483.46 3482.49 3413.62 3287.74 
3359.67 3364.21 3411.65 3436.01 3436.01 3442.1 3404.27 3363.2 3271.8 
3176.1 3252.98 3232.25 3336.63 3331.79 3491.64 3622.12 3759.72 3364.42 
3506.59 3494.43 3604.78 3800.69 3673.05 3591.52 3608.89 3554.12 3463.36 
3638.22 3628.86 3634.99 3662.1 3540.42 3409.21 3353.65 3322.77 3290.98 
3353.15 3375.57 3323.62 3234.25 3111.33 3099.14 3007.02 2967.06 2926.68 
2949.11 2973.42 2928.36 2920.41 2869.33 2850.53 2913.33 2913.33 2936.91 
2926.96 2926.96 2918.11 2899.75 2899.75 2946.8 2914.35 3050.26 3289.62 
3227.14 3264.04 3194.86 3137 2916.12 2873.12 2813.56 2826.95 2834.94 
2834.94 2896.37 2831.49 2908.54 2962.37 2975.88 2976.09 2957.28 2925.14 
2939.14 2962.84 2924.7 3004.4 3036.9 3085.49 3115.33 3093.62 3100.01 
3104.46 3121.57 3133.43 3151.37 3266.86 3266.86 3350.51 3473.49 3706.28 
3862.37 3854.63 3117.53 3078.49 3001.89 3014.42 3007.14 3072.35 3140.79 
3092.64 3092.64 3077.91 3068.33 3068.33 2976.74 2906.22 2862.91 2887.48 
2936.77 3037.94 3167.59 3312.94 3495.21 3712.4 3841.47 3888.44 3729.02 
3425.86 3255.72 3316.64 3274.2 3318.23 3354.1 3320.88 3334.22 3663.56 
3518.1 3533.58 3550.21 3598.36 3637.68 3615.38 3741.58 3920.07 3704.74 
3673.73 3373.35 3228.95 3228.95 3089.23 3089.23 3180.89 3395.35 3417.28 
3618.95 3861.83 3717.65 3630.58 3577.68 3652.69 3635.17 3508.91 3355.17 
3686.2 3669.8 3471.63 3305.01 3190.46 3122.93 3154.57 3279.89 3110.68 
3166.23 3228.32 3228.32 3266.74 3444.01 3426.7 3732.19 3952.67 3671.91 
3473.68 3576.51 3335.37 3331.9 3205.27 3077.68 3157.93 2980.88 2996.62 
3078.27 3094 3038.2 3106.63 3095.8 3162.93 3146.17 3270.67 3379.78 
3459.48 3506.43 3615.78 3596.56 3437.38 3433.83 3401.46 3386.48 3881.86 
2998.85 3000.1 2979.06 2965.32 2943.4 2907.95 2949.48 2932.9 2876.01 
2892.46 2844.1 2877.74 2888.84 2884.75 2863.78 2911.8 2869.02 2897.59 
2924.54 2891.99 2888.72 2901.68 2825.85 2854.52 2804.28 2905.43 2962.25 
2958.42 2915.17 2896.44 2896.44 2895.99 2886.74 2865.95 2934.22 2917.53 
2980.65 2988.78 2988.78 2966.41 3109.91 3056.53 3713.91 3278.56 3191.35 
3061.02 3148.53 3166.38 3081.72 3076.36 3076.36 2896.46 
rGFP 1 394 double
4883 8151.73 6899.68 7004.58 8824.53 8201.4 6715.6 5260.52 6826.9 
9200.16 6926.93 7607.07 6371.74 8325.64 7605.4 5488.91 9414.11 7848.72 
4926.27 7533.68 7195.96 6734.36 6614.51 7114.27 7125.93 7377.37 7561.01 
7190.95 7266.15 7279.16 7436.81 7739.65 6814.21 6443.99 7412.68 7542.77 
7566.53 7364.3 7332.74 6614.51 6764.67 6619.48 6619.48 6915.54 6915.54 
6996.26 6997.49 6997.49 6910.96 7078.44 7393.48 7474.95 7775.26 7550.53 
7533.68 6504.26 6520.67 6681.49 6972.19 7240.28 7213.27 6851.99 6656.16 
6735.36 7001.63 7321.12 7245.42 6835.99 6234.28 5909.1 6348.22 6838.6 
7585.04 8438.04 5203.15 6742.75 6792.21 6902.32 7473.09 7473.09 7535.32 
7435.16 7514.04 7249.14 7332.84 7378.44 7728.36 8160.17 8621.02 8980.96 
7579.54 7736.25 7419.86 7557.7 7453.48 7453.48 7418.83 7378.32 7197.32 
7242.64 7242.64 7145.42 6827.86 6714.99 6591.65 6752.78 6672.95 6810.46 
6973.36 6884.65 7121.04 7128.32 7016.69 6884.95 6884.95 6769.4 6853.96 
7003.63 7046.01 7582.38 7573.33 7895.77 7953.59 8414.64 8533.36 8608.04 
8859.19 8807.33 8997.21 8708.83 8183.12 8155.05 7158.53 6941.41 7218.43 
6854.43 7067.86 6912.35 7149.85 7149.85 7152.27 7057.07 7257.16 7386.4 
7225.49 7232.31 7369.94 7288.62 7081.7 7526.15 8150.33 8390.81 7415.4 
7943.98 7342.12 7138.86 7425.12 7691.38 7959.98 8096.07 7687.7 7569.69 
7010.41 7848.72 6808.57 7044.86 6891.83 6247.47 6118.94 5980.8 5676.63 
5533.63 5547.2 5741.07 5889.51 5851.91 5685.1 5549.23 5463.04 5290.78 
5568.37 5466.35 5320.15 5677.85 5741.44 5535.26 5522.96 5522.96 5386.54 
5301.91 5301.91 5220.83 5229.67 5229.67 5489.46 5981 6386.23 6684.81 
6801.1 6971.98 6676 6775.67 6462.56 6234.28 6367.51 6045.65 6108.14 
6108.14 6332.3 6474.9 6397.01 5807.56 5738.33 5328.63 5243.81 5419.98 
5209.02 5495.14 6119.59 6137.89 6622.81 6444.86 6336.2 6456.17 6503.94 
6368.16 6429.7 6683.8 6643.35 6897.72 6897.72 7497.67 8221.7 9189.98 
8784.95 8276.79 6274.72 6798.23 6884.93 6829.17 6918.68 6882.98 6866.32 
6817.01 6817.01 6823.85 6367.65 6367.65 6286.79 6039.57 5854.44 5929 
5941.69 6127.51 6385.05 6638.16 6791.91 7531.53 8684.56 7705.49 7695.84 
7548.69 6760.74 6903.7 7873.69 8435.75 8272.77 8628.85 8323.23 7663.44 
7648.01 7657.93 7818.81 7925.33 8442.54 9026.48 9136.6 7538.74 6686.32 
6304.47 6133.8 5952.56 5952.56 5842.12 5842.12 5975.59 6499.67 6920.31 
7357.73 7457.14 7442.6 7642.26 7620.25 7515.96 7509.17 7125.96 7134.8 
8524.12 8027.88 7743.62 6919.37 6551.2 6444.72 6738.27 7051.37 6475.54 
6536.6 6972.44 6972.44 7186.93 7684.6 7757.96 8430.17 8806.41 7693.58 
6951.95 7444.02 7289.06 7272.49 7433.22 7383.22 7219.49 7063.09 6892.95 
6841.68 6493.89 6308.85 6433.86 6524.23 6302.05 6542.47 6749.47 6479.14 
6614.99 7002.53 6786.06 7336.86 6876.1 6948.43 6942.41 6763.6 9129.07 
6617.44 6379.52 6559.81 6210.19 6008.33 6137.23 5934.88 5940.48 6305.04 
6238.06 6389.83 6320.64 6078.57 6284.88 6535.53 6602.15 6837.72 6948.83 
6718.58 6931.91 6588.67 6349.68 6391.2 6132.96 6244.09 6059.77 5875.25 
5687.2 5705.33 5461.53 5461.53 5254.15 5166.67 5232.02 5640.69 5672.44 
5741.28 6305.95 6305.95 6571.84 7421.91 7618.68 8391.47 7001.44 7127.37 
7215.96 6733.95 6464.14 6523.52 5984.79 5984.79 5642.19 
bkstRFP 1 394 double
477.747 1373.04 1097.17 1189.92 1747.59 1030.45 730.897 556.557 1289.73 
1620.41 1443.54 1543.14 948.557 1658.51 1505.32 775.037 1345.87 1409.78 
689.387 1266.06 1383.7 847.287 926.437 1327.13 1143.09 1097.93 1003.2 
1020.39 1055.77 1098.23 1203.82 1191.04 1225.07 1028.71 1490.78 1369.13 
1255.49 1236.71 1310.22 926.437 927.487 1032.86 1032.86 1064.93 1064.93 
1047.2 1023.88 1023.88 1034.35 1237.39 1239.12 1357.71 1488.92 1421.22 
1266.06 974.987 1052.2 1084.29 1179.91 1272.56 1247.72 1158.93 1075.17 
1053.02 1104.27 1173.06 1208.82 1209.09 1159.39 1026.25 1055.49 938.287 
989.017 1243.92 826.937 1002.85 965.077 1042.78 937.217 937.217 910.407 
670.697 784.497 892.697 930.497 1086.98 1268.9 1373.65 1421.32 1426.56 
1413.22 1213.85 1257.52 1220.46 1164.98 1164.98 1068.14 1045.4 1076.97 
1036.12 1036.12 988.477 965.517 1051.44 1028.82 998.507 1059.64 923.007 
814.267 834.377 616.177 608.977 666.927 809.377 809.377 911.357 1164.19 
1127.59 1302.17 1452.07 1521.7 1658.9 1588.61 1569.33 1717.56 1977.51 
1823.96 1816.32 1661.51 1559.2 1436.24 1264.38 1263.41 1194.54 1068.66 
1140.59 1145.13 1192.57 1216.93 1216.93 1223.02 1185.19 1144.12 1052.72 
957.017 1033.9 1013.17 1117.55 1112.71 1272.56 1403.04 1540.64 1145.34 
1287.51 1275.35 1385.7 1581.61 1453.97 1372.44 1389.81 1335.04 1244.28 