# vtk DataFile Version 3.0
vtk output
ASCII
DATASET POLYDATA
POINTS 471 float
0.760833 -1.11833 1.03024 0.771805 -0.963913 1.01078 5.30587 -0.419907 0.754792 
4.83239 -0.205395 0.800023 5.43833 -0.628192 0.520918 2.63387 0.490427 0.768956 
4.14427 -0.247173 0.415865 4.64702 -0.604223 0.149102 -0.0755359 0.661675 0.486004 
7.21616 0.473923 -0.206821 6.88209 0.977254 -0.381175 0.0265311 0.676074 0.282349 
3.24872 -0.571154 -0.199498 -0.30929 -0.664848 -0.284465 4.63009 1.08942 -0.43616 
2.81596 -0.833878 -1.10117 3.29267 0.183281 -0.909777 5.66465 1.22047 -1.06207 
3.17622 0.22071 -1.10249 -0.787305 -0.129754 -1.00448 5.80317 1.06641 -1.28907 
5.2084 0.690135 -1.31669 0.395417 -1.32665 -1.40574 -0.819015 1.16076 -1.03642 
1.11603 1.75016 -1.23141 0.338785 1.71526 -1.57405 1.38028 -1.05547 -2.21335 
-0.513947 1.2841 -1.8387 -0.451739 0.897282 -2.36248 0.882764 0.384757 -3.01614 
0.824697 0.329656 -2.95396 0.767452 0.285257 -2.89788 0.711356 0.257825 -2.85459 
0.652727 0.221097 -2.84231 0.593032 0.18821 -2.8594 0.53374 0.172294 -2.90417 
0.472499 0.142293 -2.95821 0.410691 0.100519 -2.9988 0.350027 0.0522622 -3.00291 
0.290906 0.00110979 -2.97008 0.233832 -0.0384155 -2.92084 0.180589 -0.0403195 -2.87431 
0.129728 -0.0108578 -2.84619 0.077981 0.0173482 -2.83315 0.0268023 0.0506419 -2.81946 
-0.0258184 0.063359 -2.79346 -0.0779917 0.0503342 -2.74095 -0.122627 0.00488731 -2.67051 
-0.152997 -0.0559262 -2.58767 -0.199061 -0.11515 -2.51898 -0.253676 -0.171718 -2.46459 
-0.298792 -0.227423 -2.42539 -0.316853 -0.286911 -2.38019 -0.322975 -0.347659 -2.33557 
-0.325618 -0.407841 -2.2985 -0.318664 -0.467171 -2.27661 -0.294843 -0.528278 -2.25556 
-0.275516 -0.590775 -2.21959 -0.248604 -0.655935 -2.16928 -0.226451 -0.721526 -2.11138 
-0.187167 -0.789853 -2.04699 -0.137572 -0.86009 -1.97574 -0.0857021 -0.929681 -1.89702 
-0.033143 -0.987406 -1.83172 0.0207537 -1.02647 -1.77898 0.0735482 -1.06871 -1.74157 
0.127445 -1.10777 -1.68883 0.180016 -1.16539 -1.62352 0.23222 -1.23298 -1.54455 
0.285004 -1.28869 -1.479 0.339959 -1.31493 -1.4321 -0.523939 0.848128 -2.33389 
-0.586625 0.809964 -2.30671 -0.642539 0.795848 -2.27413 -0.697019 0.778785 -2.21957 
-0.753141 0.733408 -2.14124 -0.807584 0.672335 -2.03512 -0.849966 0.606202 -1.91514 
-0.86729 0.537318 -1.79644 -0.882964 0.469194 -1.68518 -0.912291 0.40437 -1.58793 
-0.926727 0.33891 -1.49879 -0.93204 0.275282 -1.43216 -0.936235 0.214332 -1.38765 
-0.939203 0.156047 -1.36527 -0.930065 0.0955554 -1.33613 -0.892697 0.0274302 -1.27164 
-0.841625 -0.0486618 -1.15636 -0.560562 1.31477 -1.72834 -0.610415 1.3198 -1.62869 
-0.662416 1.30227 -1.52445 -0.715446 1.26216 -1.39321 -0.766789 1.22042 -1.22487 
1.4413 -1.02738 -2.15957 1.50005 -1.00965 -2.12948 1.5592 -0.974946 -2.12709 
1.61814 -0.94215 -2.12494 1.67484 -0.936053 -2.11124 1.73124 -0.942694 -2.07679 
1.78853 -0.941388 -2.04132 1.84721 -0.924185 -2.0113 1.90444 -0.920115 -1.98294 
1.96219 -0.917964 -1.93991 2.02169 -0.903542 -1.88785 2.07943 -0.9015 -1.84483 
2.13619 -0.898274 -1.82404 2.19298 -0.888042 -1.81729 2.24753 -0.897826 -1.81307 
2.30506 -0.88761 -1.79139 2.36393 -0.87551 -1.7471 2.4252 -0.848587 -1.686 
2.48675 -0.822517 -1.61755 2.54721 -0.813029 -1.53908 2.61203 -0.803571 -1.4318 
2.69471 -0.814311 -1.28202 0.363864 1.68835 -1.71304 0.414193 1.67929 -1.81323 
0.465315 1.66929 -1.89115 0.514615 1.64547 -1.96332 0.565746 1.6385 -2.03337 
0.619345 1.65027 -2.09358 0.675614 1.67591 -2.12965 0.731835 1.68105 -2.12354 
0.788767 1.67249 -2.0744 0.847865 1.66995 -1.99465 0.909732 1.69219 -1.91175 
0.971692 1.71624 -1.82863 1.03061 1.72374 -1.73261 1.0796 1.73289 -1.59863 
1.10244 1.73487 -1.42727 0.385141 1.74167 -1.40035 0.453166 1.76394 -1.21303 
0.519405 1.77554 -1.03451 0.580949 1.76435 -0.888696 0.640321 1.74419 -0.766412 
0.69849 1.7233 -0.666594 0.755226 1.69627 -0.582482 0.809998 1.67173 -0.542831 
0.866811 1.69554 -0.564203 0.921794 1.73976 -0.665067 0.972333 1.76761 -0.820245 
1.0211 1.78297 -0.98446 1.06942 1.78093 -1.12104 1.18192 1.75493 -1.03134 
1.24368 1.72602 -0.843008 1.30171 1.67053 -0.67296 1.35884 1.62027 -0.532098 
1.41323 1.5588 -0.422503 1.46648 1.50393 -0.349383 1.52144 1.47779 -0.302471 
1.57638 1.4681 -0.290775 1.63072 1.46308 -0.300881 1.68434 1.4583 -0.325875 
1.73738 1.44164 -0.337456 1.78908 1.40632 -0.336473 1.8416 1.37503 -0.327525 
1.89282 1.33876 -0.334126 1.94428 1.31131 -0.354529 1.99543 1.2778 -0.368245 
2.04879 1.25732 -0.365381 2.10268 1.23491 -0.347842 2.15463 1.19853 -0.33954 
2.2069 1.1683 -0.337911 2.25834 1.13394 -0.344271 2.31163 1.11621 -0.348523 
2.36583 1.10665 -0.35174 2.41912 1.08892 -0.355992 2.47029 1.05552 -0.369694 
2.52148 1.02902 -0.39744 2.57109 0.998408 -0.448091 2.62099 0.973743 -0.505462 
2.6693 0.931483 -0.557588 2.7175 0.878179 -0.588731 2.76686 0.831972 -0.61152 
2.81762 0.801554 -0.639763 2.8659 0.759086 -0.691915 2.91282 0.707719 -0.75267 
2.9598 0.653597 -0.806299 3.00746 0.596498 -0.837918 3.05348 0.538643 -0.862109 
3.08775 0.482024 -0.885701 3.09641 0.429967 -0.922724 3.10326 0.378102 -0.959656 
3.1249 0.325611 -1.00468 3.14312 0.273478 -1.04954 5.26441 0.701136 -1.32476 
5.32086 0.739024 -1.34428 5.36778 0.792505 -1.38384 5.39778 0.850626 -1.42966 
5.43317 0.907246 -1.46839 5.46429 0.958665 -1.47775 5.51177 0.993772 -1.4674 
5.5673 1.00006 -1.4387 5.62444 1.00434 -1.41031 5.68362 1.0226 -1.37269 
5.74242 1.03746 -1.3355 5.86236 1.09814 -1.27959 5.91931 1.10317 -1.25858 
5.9755 1.09463 -1.22435 6.03147 1.08418 -1.19038 6.0869 1.07554 -1.17109 
6.14181 1.06893 -1.16648 6.19665 1.06508 -1.16897 6.25259 1.07108 -1.17022 
6.31047 1.09106 -1.16223 6.36695 1.09513 -1.14879 6.4226 1.08851 -1.12925 
6.47799 1.08284 -1.11706 6.53446 1.08692 -1.10362 6.5938 1.10228 -1.06078 
6.6579 1.09081 -0.937522 6.74614 1.04775 -0.701542 5.75699 1.11776 -1.2134 
5.71082 1.16912 -1.13774 2.88456 -0.707062 -1.21509 2.92223 -0.621932 -1.2997 
2.95712 -0.562302 -1.33428 2.97584 -0.511448 -1.31056 2.98541 -0.463178 -1.25974 
2.99318 -0.414716 -1.20884 3.00004 -0.363363 -1.17995 3.00636 -0.310091 -1.16573 
3.01242 -0.25586 -1.15886 3.01859 -0.20164 -1.152 3.02657 -0.14761 -1.14522 
3.04447 -0.0946261 -1.13894 3.07742 -0.0432294 -1.13342 3.09532 0.00975423 -1.12714 
3.10341 0.0637726 -1.12037 3.1116 0.117779 -1.1136 3.13143 0.17056 -1.10742 
3.23457 0.201516 -1.00247 5.72726 1.2427 -0.96425 5.78714 1.25382 -0.897698 
5.84627 1.27495 -0.867179 5.90428 1.29279 -0.851996 5.96423 1.32462 -0.827586 
6.02498 1.35357 -0.781157 6.08432 1.36652 -0.729283 6.14375 1.3837 -0.684345 
6.20077 1.38597 -0.656216 6.25668 1.37827 -0.62935 6.31318 1.36591 -0.580692 
6.37048 1.35055 -0.51002 6.4283 1.33328 -0.424683 6.4856 1.31792 -0.354011 
6.54208 1.30534 -0.305381 6.59747 1.29454 -0.288246 6.65556 1.26762 -0.293874 
6.73891 1.17333 -0.32605 5.61777 1.25209 -0.959048 5.56685 1.26097 -0.888769 
5.5122 1.25314 -0.857907 5.45486 1.23135 -0.851199 5.39917 1.22428 -0.842624 
5.34492 1.22336 -0.818353 5.29056 1.21149 -0.773084 5.23481 1.18383 -0.722343 
5.18047 1.17207 -0.67706 5.12643 1.17305 -0.652548 5.07204 1.17763 -0.642497 
5.01745 1.18042 -0.632674 4.96183 1.17059 -0.616995 4.90397 1.13406 -0.58977 
4.84611 1.09753 -0.562545 4.79128 1.08483 -0.524837 4.73749 1.08473 -0.492996 
4.68392 1.08654 -0.460914 2.78976 -0.964509 -0.916401 2.76819 -1.05511 -0.775152 
2.73496 -1.11998 -0.696458 2.7043 -1.17574 -0.669938 2.65604 -1.22453 -0.667089 
2.59859 -1.26134 -0.669818 2.54121 -1.28122 -0.670335 2.48314 -1.30619 -0.671493 
2.42592 -1.32702 -0.664662 2.36735 -1.36651 -0.645276 2.30849 -1.41873 -0.605121 
2.24989 -1.47191 -0.557613 2.19211 -1.51439 -0.516224 2.13521 -1.53894 -0.494946 
2.07632 -1.57471 -0.490008 2.01742 -1.61048 -0.485069 1.96027 -1.63397 -0.471122 
1.90192 -1.67155 -0.451494 1.84325 -1.70531 -0.446301 1.78682 -1.71237 -0.452654 
1.73095 -1.70764 -0.472433 1.67446 -1.71184 -0.485877 1.61658 -1.73181 -0.493867 
1.56064 -1.73781 -0.49262 1.5058 -1.73396 -0.490126 1.45144 -1.72916 -0.480048 
1.39783 -1.72427 -0.45504 1.34633 -1.7106 -0.406537 1.29787 -1.67301 -0.347528 
1.24935 -1.63265 -0.295642 1.19837 -1.60426 -0.267656 1.14743 -1.56884 -0.253699 
1.0957 -1.54043 -0.240628 1.04507 -1.50895 -0.212251 0.993373 -1.49698 -0.163962 
0.941312 -1.49498 -0.102009 0.890886 -1.48505 -0.0241217 0.843748 -1.45236 0.0715675 
0.797144 -1.4216 0.181932 0.747516 -1.41454 0.281838 0.695455 -1.41255 0.343791 
0.642429 -1.39578 0.355376 0.589676 -1.35652 0.325054 0.536022 -1.31863 0.279621 
0.484316 -1.26664 0.243447 0.433409 -1.21754 0.229292 0.381353 -1.1854 0.227905 
0.329943 -1.15083 0.234291 0.276597 -1.13024 0.231441 0.222909 -1.10604 0.214131 
0.171001 -1.05586 0.177728 0.119004 -1.00313 0.134174 0.0651492 -0.967041 0.0885226 
0.0110404 -0.936564 0.0496241 -0.0455715 -0.925144 0.000846322 -0.0989242 -0.88121 -0.0512759 
-0.15053 -0.818302 -0.108458 -0.202835 -0.761645 -0.166433 -0.256795 -0.719809 -0.226276 
2.92866 -0.837963 -0.845092 2.98961 -0.8202 -0.640343 3.04389 -0.787192 -0.514656 
3.09337 -0.746311 -0.44102 3.12673 -0.700547 -0.391399 3.1656 -0.656295 -0.334698 
3.1995 -0.612451 -0.270392 7.04201 0.879367 -0.569843 7.1317 0.84626 -0.695166 
7.1871 0.826736 -0.744576 7.22627 0.778219 -0.728051 7.24688 0.707454 -0.633391 
7.25639 0.609031 -0.452251 6.9573 0.730643 -0.384382 7.02005 0.600753 -0.356919 
7.09657 0.528302 -0.29442 7.22545 0.360691 -0.281767 7.23525 0.286401 -0.329216 
7.21445 0.230331 -0.335793 7.19955 0.173125 -0.312831 7.19301 0.114285 -0.282908 
7.18764 0.0571854 -0.267756 7.18169 0.00294237 -0.274632 7.17675 -0.048612 -0.303618 
7.18093 -0.0983336 -0.355118 7.1998 -0.148669 -0.41472 7.20196 -0.198068 -0.466105 
7.18363 -0.247217 -0.486822 7.13903 -0.288291 -0.468141 7.08602 -0.319884 -0.395599 
7.03101 -0.371963 -0.280806 6.97561 -0.436662 -0.145226 6.91941 -0.498481 -0.0316633 
6.86271 -0.54469 0.0391009 6.80628 -0.568399 0.0679503 6.7485 -0.594217 0.0741492 
6.69122 -0.612184 0.0738786 6.63343 -0.638003 0.0800775 6.57648 -0.659683 0.0942551 
6.51815 -0.697163 0.113895 6.45947 -0.730919 0.119088 6.40304 -0.737976 0.112735 
6.34717 -0.733255 0.0929565 6.29069 -0.73744 0.0795133 6.23281 -0.757424 0.0715227 
6.17685 -0.763529 0.072755 6.12206 -0.762537 0.0823508 6.06691 -0.771521 0.105601 
6.01089 -0.798213 0.148991 5.95683 -0.81083 0.201638 5.9038 -0.810831 0.24841 
5.85127 -0.796298 0.27464 5.79989 -0.764808 0.2881 5.74684 -0.748258 0.299667 
5.69323 -0.743367 0.324676 5.64043 -0.741357 0.371702 5.58899 -0.730457 0.42733 
5.53916 -0.701754 0.477738 5.48817 -0.673456 0.505712 7.33353 0.508886 -0.0420553 
7.40171 0.54534 0.0873212 7.41332 0.590348 0.167534 7.38378 0.644645 0.205607 
7.34946 0.7022 0.221857 7.32788 0.759236 0.230098 7.29092 0.815965 0.238856 
7.24274 0.862086 0.246635 7.18997 0.88351 0.251352 7.13587 0.906026 0.231968 
7.0781 0.94854 0.142441 6.99884 0.977033 -0.0696126 -0.0246354 0.669354 0.38051 
6.87846 0.855352 -0.0512532 6.85817 0.761248 0.200682 6.85988 0.688222 0.340578 
6.89646 0.632809 0.401154 6.94689 0.598771 0.417296 6.99798 0.562301 0.410673 
7.04849 0.535776 0.368003 7.09616 0.502285 0.257233 7.14821 0.477296 0.0577222 
4.7025 -0.615723 0.175486 4.75763 -0.637088 0.215539 4.81245 -0.664504 0.2623 
4.87035 -0.661081 0.305494 4.92688 -0.659867 0.326025 4.98197 -0.66479 0.33086 
5.03661 -0.670439 0.328138 5.09151 -0.677156 0.332746 5.14694 -0.685793 0.352029 
5.20318 -0.6972 0.393343 5.2599 -0.707666 0.442252 5.31766 -0.705416 0.485297 
5.37761 -0.673586 0.509708 4.20472 -0.200819 0.419733 4.26387 -0.16611 0.422125 
4.32004 -0.158102 0.421134 4.37516 -0.162808 0.425996 4.43062 -0.171228 0.445306 
4.48706 -0.18084 0.486848 4.54486 -0.181563 0.536992 4.60407 -0.166387 0.581675 
4.66108 -0.16422 0.609791 4.71726 -0.172874 0.644 4.77429 -0.18716 0.707333 
2.57878 0.478679 0.799321 2.52274 0.451779 0.842684 2.46844 0.437043 0.895063 
2.41366 0.421473 0.939862 2.35551 0.385689 0.959717 2.29663 0.350029 0.964669 
2.23905 0.328344 0.963923 2.18185 0.290461 0.968523 2.13402 0.239763 0.986054 
2.10193 0.182794 1.02462 2.05688 0.126149 1.07118 2.01155 0.0704665 1.11039 
1.97866 0.0162677 1.12692 1.93045 -0.0353857 1.13687 1.8744 -0.0871428 1.15456 
1.82725 -0.142635 1.19386 1.79534 -0.200554 1.23979 1.7483 -0.254131 1.27933 
1.69164 -0.293933 1.29861 1.63432 -0.316579 1.30521 1.57516 -0.351386 1.3028 
1.516 -0.386194 1.3004 1.4583 -0.407868 1.29966 1.39893 -0.444589 1.29701 
1.33845 -0.49116 1.29312 1.27788 -0.539537 1.28899 1.21911 -0.588214 1.28476 
1.17001 -0.636867 1.2727 1.13563 -0.683393 1.24544 1.0865 -0.715604 1.19816 
1.02895 -0.73087 1.14592 0.970005 -0.762047 1.09913 0.92029 -0.806258 1.06712 
0.884572 -0.855034 1.04335 0.829497 -0.90393 1.02214 5.40459 -0.573493 0.559196 
5.38462 -0.522107 0.611487 5.35002 -0.471044 0.679222 0.760756 -1.04613 1.01165 

LINES 25 518
43 29 30 31 32 33 34 35 36 37 38 39 40 41 42 43 44 45 46 47 48 49 50 51 52 53 54 55 56 57 58 59 60 61 62 63 64 65 66 67 68 69 70 22 
19 28 71 72 73 74 75 76 77 78 79 80 81 82 83 84 85 86 87 19 
7 27 88 89 90 91 92 23 
24 26 93 94 95 96 97 98 99 100 101 102 103 104 105 106 107 108 109 110 111 112 113 114 15 
44 24 143 144 145 146 147 148 149 150 151 152 153 154 155 156 157 158 159 160 161 162 163 164 165 166 167 168 169 170 171 172 173 174 175 176 177 178 179 180 181 182 183 184 18 
13 21 185 186 187 188 189 190 191 192 193 194 195 20 
18 20 196 197 198 199 200 201 202 203 204 205 206 207 208 209 210 211 10 
4 20 212 213 17 
19 15 214 215 216 217 218 219 220 221 222 223 224 225 226 227 228 229 230 18 
3 18 231 16 
20 17 232 233 234 235 236 237 238 239 240 241 242 243 244 245 246 247 248 249 10 
20 17 250 251 252 253 254 255 256 257 258 259 260 261 262 263 264 265 266 267 14 
61 15 268 269 270 271 272 273 274 275 276 277 278 279 280 281 282 283 284 285 286 287 288 289 290 291 292 293 294 295 296 297 298 299 300 301 302 303 304 305 306 307 308 309 310 311 312 313 314 315 316 317 318 319 320 321 322 323 324 325 326 13 
9 15 327 328 329 330 331 332 333 12 
8 10 334 335 336 337 338 339 9 
5 10 340 341 342 9 
45 9 343 344 345 346 347 348 349 350 351 352 353 354 355 356 357 358 359 360 361 362 363 364 365 366 367 368 369 370 371 372 373 374 375 376 377 378 379 380 381 382 383 384 385 4 
14 9 386 387 388 389 390 391 392 393 394 395 396 397 10 
3 11 398 8 
11 10 399 400 401 402 403 404 405 406 407 9 
15 7 408 409 410 411 412 413 414 415 416 417 418 419 420 4 
13 6 421 422 423 424 425 426 427 428 429 430 431 3 
5 4 467 468 469 2 
31 24 129 128 127 126 125 124 123 122 121 120 119 118 117 116 115 25 130 131 132 133 134 135 136 137 138 139 140 141 142 24 
39 5 432 433 434 435 436 437 438 439 440 441 442 443 444 445 446 447 448 449 450 451 452 453 454 455 456 457 458 459 460 461 462 463 464 465 466 1 470 0 

POINT_DATA 471
SCALARS DY_raw double
LOOKUP_TABLE default
415.536 262.543 375.787 434.159 412.378 256.731 300.538 260.124 262.639 
472.856 485.571 256.667 536.927 203.616 345.24 428.722 563.475 292.436 
383.968 195.645 325.998 415.388 362.5 349.462 330.991 308.038 303.388 
308.528 282.23 426.64 466.393 426.749 393.468 350.987 392.901 377.739 
436.633 530.229 486.013 411.27 425.039 456.576 424.002 355.742 355.742 
343.002 332.901 318.456 308.678 278.466 302.195 244.962 267.253 272.125 
237.92 237.92 235.065 244.46 266.55 257.512 246.778 278.109 257.361 
286.096 302.913 272.899 257.588 263.324 295.711 351.836 362.5 260.958 
256.102 227.502 213.774 245.151 273 300.427 302.704 278.974 277.618 
241.879 247.671 216.143 173.689 173.689 168.864 176.15 320.094 284.366 
257.269 317.138 289.86 324.581 313.47 313.47 281.732 323.523 284.431 
348.948 377.515 328.317 345.058 367.303 399.437 328.363 328.363 311.995 
316.443 270.002 264.799 296.615 305.737 350.718 366.237 299.997 269.036 
295.904 278.879 303.897 309.859 282.579 326.203 325.627 359.513 347.775 
358.981 338.881 398.108 353.545 348.673 368.4 336.752 350.268 327.145 
342.245 340.636 353.401 382.193 381.521 377.897 340.382 308.709 330.408 
420.848 439.549 469.714 391.212 352.808 370.553 364.461 359.865 330.594 
330.594 337.887 335.494 335.494 326.112 301.963 333.94 356.669 356.669 
400.309 386.262 386.262 391.748 333.753 333.753 311.336 324.122 306.044 
276.734 244.765 261.108 315.265 291.627 259.374 259.483 283.524 302.216 
317.651 379.662 365.07 400.372 407.903 382.147 371.396 344 333.395 
291.855 297.539 305.568 369.574 342.638 387.113 358.806 341.341 351.384 
383.369 389.813 422.971 373.259 373.259 369.97 361.01 361.01 356.403 
363.55 363.55 366.45 380.569 429.165 364.891 296.268 404.784 364.198 
355.368 351.738 380.814 477.861 369.667 369.667 302.17 300.761 300.761 
337.946 373.016 373.016 399.751 418.669 404.005 472.451 324.042 363.632 
394.493 376.734 396.832 388.87 383.937 454.446 465.211 480.919 442.42 
388.19 421.11 381.746 357.094 339.639 342.739 447.158 306.905 342.037 
385.199 377.705 385.41 400.201 435.168 387.955 407.319 346.8 379.68 
379.68 371.886 384.16 421.844 367.015 394.378 402.507 479.127 429.761 
464.959 452.991 408.826 407.574 398.202 398.202 387.285 332.516 362.883 
367.13 353.845 386.349 355.84 384.899 433.371 360.622 367.56 349.936 
360.738 360.738 364.981 361.252 361.252 329.05 295.595 344.927 366.728 
377.769 352.026 352.026 341.429 366.658 383.324 386.317 375.477 450.284 
518.315 503.77 371.581 341.039 341.039 318.364 306.732 276.343 252.957 
244.15 222.751 222.751 229.72 235.128 232.158 225.353 222.507 226.608 
222.718 229.337 218.553 465.453 417.941 388.43 423.057 449.316 419.123 
535.823 499.056 434.164 448.375 435.959 496.312 552.181 482.168 466.518 
448.623 521.24 524.94 510.936 473.339 480.593 377.632 425.848 423.206 
463.967 453.009 444.701 448.881 423.688 471.187 540.485 448.29 498.292 
588.868 551.052 582.928 617.73 505.922 479.393 479.393 433.147 400.089 
429.996 442.485 424.074 424.074 404.482 371.539 413.367 435.726 417.736 
429.816 429.816 432.112 413.066 413.066 400.975 436.918 438.77 529.473 
547.001 568.424 579.689 622.455 604.626 577.726 536.33 536.33 470.892 
455.006 426.707 267.426 423.902 398.525 396.879 421.315 453.639 468.393 
483.238 511.258 506.865 299.665 323.995 353.962 387.571 387.571 377.039 
355.003 355.003 372.791 360.302 391.995 406.308 412.378 300.538 282.1 
308.076 308.076 312.639 296.163 320.678 334.936 365.339 365.339 407.515 
309.478 344.741 356.698 382.724 315.874 285.362 320.394 345.049 318.631 
311.597 342.029 312.466 264.994 248.622 292.282 334.693 330.55 340.238 
347.512 325.657 325.657 310.888 292.782 320.859 378.608 401.258 393.092 
353.507 321.564 288.501 260.56 288.844 252.257 254.043 246.397 348.463 
348.179 361.795 323.663 
FIELD FieldData 7
DY_minmax 1 471 double
0.543821 0.206527 0.456188 0.584877 0.536858 0.193713 0.290292 0.201193 0.206739 
0.670189 0.698223 0.193573 0.811443 0.0766135 0.388843 0.57289 0.869971 0.27243 
0.474225 0.0590409 0.346422 0.543494 0.426895 0.398152 0.357429 0.306827 0.296575 
0.307908 0.24993 0.568301 0.655941 0.568542 0.495167 0.401513 0.493918 0.460492 
0.590331 0.796677 0.699196 0.534414 0.56477 0.634297 0.562484 0.411996 0.411996 
0.38391 0.36164 0.329795 0.308237 0.241631 0.293944 0.167766 0.216911 0.227652 
0.152242 0.152242 0.145947 0.166659 0.21536 0.195435 0.171771 0.240843 0.195103 
0.258452 0.295527 0.229358 0.195603 0.208248 0.27965 0.403385 0.426895 0.203033 
0.192326 0.129275 0.0990097 0.168183 0.22958 0.290046 0.295067 0.242752 0.239762 
0.160971 0.173739 0.104233 0.010636 0.010636 0 0.0160621 0.333405 0.254638 
0.194899 0.326889 0.266751 0.343297 0.318803 0.318803 0.248831 0.340966 0.254782 
0.397017 0.459998 0.351535 0.388441 0.437483 0.508328 0.351637 0.351637 0.31555 
0.325356 0.222971 0.211499 0.281643 0.301755 0.400921 0.435133 0.289099 0.220842 
0.280076 0.242542 0.297697 0.310841 0.250699 0.346873 0.345603 0.420309 0.394431 
0.419138 0.374823 0.505398 0.407153 0.396412 0.439902 0.37013 0.399928 0.34895 
0.38224 0.378694 0.406836 0.470311 0.46883 0.46084 0.378132 0.308305 0.356145 
0.55553 0.596761 0.663263 0.490196 0.405529 0.444649 0.431218 0.421085 0.356554 
0.356554 0.372632 0.367358 0.367358 0.346674 0.293434 0.363932 0.41404 0.41404 
0.510249 0.479281 0.479281 0.491377 0.363519 0.363519 0.314098 0.342286 0.302431 
0.237813 0.167333 0.203362 0.322758 0.270645 0.19954 0.199781 0.252781 0.293992 
0.32802 0.464731 0.432561 0.510389 0.526992 0.47021 0.446508 0.38611 0.362729 
0.271149 0.283681 0.301381 0.44249 0.383108 0.481157 0.418751 0.380247 0.40239 
0.472905 0.48711 0.560211 0.450614 0.450614 0.443364 0.42361 0.42361 0.413453 
0.429209 0.429209 0.435605 0.466731 0.573867 0.432167 0.280877 0.520116 0.430638 
0.411171 0.40317 0.467271 0.681223 0.442696 0.442696 0.29389 0.290783 0.290783 
0.372763 0.45008 0.45008 0.509021 0.550727 0.518399 0.669297 0.342109 0.42939 
0.497428 0.458277 0.502586 0.485031 0.474157 0.629602 0.653336 0.687966 0.60309 
0.483533 0.55611 0.469325 0.414978 0.376496 0.38333 0.613535 0.304329 0.381782 
0.476938 0.460416 0.477403 0.510012 0.587102 0.483015 0.525705 0.392283 0.46477 
0.46477 0.447589 0.474648 0.557728 0.436849 0.497175 0.515097 0.684014 0.575181 
0.65278 0.626394 0.529026 0.526267 0.505604 0.505604 0.481536 0.360791 0.42774 
0.437104 0.407815 0.479473 0.412212 0.476277 0.58314 0.422754 0.43805 0.399197 
0.42301 0.42301 0.432365 0.424145 0.424145 0.35315 0.279394 0.388153 0.436216 
0.460559 0.403803 0.403803 0.380441 0.436063 0.472804 0.479404 0.455504 0.620428 
0.770409 0.738345 0.446916 0.379582 0.379582 0.329591 0.303948 0.236951 0.185393 
0.165978 0.118799 0.118799 0.134165 0.146087 0.139538 0.124536 0.118261 0.127303 
0.118727 0.133321 0.109544 0.653869 0.549123 0.484061 0.5604 0.618292 0.551728 
0.809008 0.727951 0.584889 0.616218 0.588845 0.721902 0.845073 0.690718 0.656216 
0.616765 0.776859 0.785015 0.754142 0.671255 0.687247 0.460256 0.566555 0.560731 
0.650592 0.626435 0.608118 0.617335 0.561791 0.666509 0.819287 0.616031 0.726267 
0.925953 0.842583 0.912859 0.989584 0.743087 0.684601 0.684601 0.582645 0.509766 
0.575699 0.603233 0.562644 0.562644 0.519449 0.446822 0.539039 0.588331 0.54867 
0.575302 0.575302 0.580365 0.538375 0.538375 0.511718 0.590959 0.595042 0.79501 
0.833652 0.880881 0.905718 1 0.960694 0.90139 0.810126 0.810126 0.66586 
0.630837 0.568448 0.217291 0.562264 0.506318 0.502688 0.556561 0.627823 0.660351 
0.693078 0.754853 0.745167 0.288367 0.342006 0.408073 0.482168 0.482168 0.458948 
0.410367 0.410367 0.449584 0.422049 0.491922 0.523476 0.536858 0.290292 0.249643 
0.30691 0.30691 0.316971 0.280647 0.334694 0.366126 0.433153 0.433153 0.526137 
0.310002 0.387742 0.414103 0.471481 0.324101 0.256834 0.334066 0.388423 0.330181 
0.314672 0.381765 0.316588 0.211931 0.175836 0.272089 0.36559 0.356457 0.377816 
0.393852 0.345669 0.345669 0.31311 0.273193 0.335092 0.462408 0.512343 0.494339 
0.407069 0.336647 0.263754 0.202155 0.264511 0.18385 0.187787 0.17093 0.395949 
0.395322 0.42534 0.341273 
WidthEq 1 471 double
1.78865 2.65374 1.28539 1.32452 2.13748 1 1.9521 1.90375 3.70981 
4.21211 3.81905 2.92531 1.52613 2.7022 2.03485 3.56968 1.82951 2.75322 
2.54139 3.56539 3.55996 2.38662 2.37465 4.08339 4.33903 4.45409 3.0938 
3.89961 3.43086 1.93168 2.1147 2.52026 2.63341 2.64663 2.53538 2.13412 
1.77511 1.58977 1.62936 2.03815 2.21724 2.20319 2.41174 2.794 2.794 
2.76686 2.7082 2.36482 2.23395 2.43732 2.38797 3.08551 3.06956 3.33182 
3.74084 3.74084 3.73868 3.42769 3.34347 3.1583 3.09387 3.05762 3.10311 
3.24693 3.1865 3.50698 3.55347 3.46574 3.29139 2.66255 2.37465 3.80471 
3.8983 4.11653 3.81234 3.53505 2.93887 2.69577 2.90892 3.18478 3.55442 
4.24212 4.25638 4.4843 4.72547 4.72547 4.48816 4.15675 3.8983 5.02888 
5.42938 4.99224 4.93197 3.38471 3.50758 3.50758 3.57482 3.19591 3.39225 
3.10918 2.92007 3.12375 3.12939 2.9415 2.87164 3.51952 3.51952 3.6625 
3.59933 4.00464 4.24519 4.12026 4.09682 3.9481 3.85227 4.11738 3.99508 
3.45967 3.38452 3.18381 3.17861 3.17533 3.20319 3.54953 3.41557 3.40684 
3.37592 3.4822 3.25854 4.06149 4.13385 3.55888 4.05228 4.03943 4.45201 
4.37795 4.33797 4.20683 3.92765 3.81292 3.70239 4.38018 4.76016 4.55758 
3.51838 3.34372 2.77533 2.66352 2.60431 2.54844 2.39927 2.04608 1.97678 
1.97678 1.70253 1.61717 1.61717 1.51724 1.77115 1.62532 1.94068 1.94068 
1.9767 2.30657 2.30657 2.40078 2.65511 2.65511 2.73065 2.58875 2.65658 
2.61963 2.6753 2.55657 2.18655 2.14628 2.11922 2.15791 1.99342 1.99496 
2.09271 2.20765 2.37914 2.48851 2.7927 2.61308 2.98108 3.30683 3.34936 
3.43822 3.39714 3.40877 3.25394 3.42034 3.33725 3.38359 3.46004 3.23054 
3.16528 3.06725 2.94307 3.31039 3.31039 3.28702 3.2369 3.2369 3.55065 
3.71278 3.71278 3.95658 4.33123 3.95301 3.40299 2.94788 3.05926 2.3825 
2.22052 1.9568 1.97637 1.90292 2.50063 2.50063 2.96181 3.08338 3.08338 
3.1898 3.16742 3.16742 3.10976 3.02442 3.04788 2.04787 2.68327 2.75262 
2.62674 2.60417 2.72269 2.60769 2.54117 2.76161 2.89441 2.88579 3.03275 
3.35091 3.18926 3.50839 4.22564 4.46542 4.38932 3.94758 2.62009 2.21807 
2.11756 2.07821 1.9692 1.81262 1.79807 1.86738 1.82953 1.90165 1.71895 
1.71895 2.03267 1.98292 1.91469 2.30767 2.20837 2.16098 3.22078 3.04481 
2.63791 2.28912 2.27652 2.27326 2.25233 2.25233 2.24158 2.32588 2.29904 
2.2559 2.26232 2.10784 2.19391 2.09671 1.92611 2.17575 2.12662 2.12908 
2.00165 2.00165 2.02849 2.03628 2.03628 2.11014 2.0134 1.97918 1.89664 
1.80539 1.97778 1.97778 2.1152 2.03607 1.88901 2.00082 1.64554 1.35486 
1.27006 1.34434 1.71209 1.81841 1.81841 2.09939 2.17522 2.42557 2.60539 
2.51083 2.69391 2.69391 2.79353 2.87899 3.01847 3.05215 2.98158 2.96817 
2.9044 2.86787 2.74483 2.978 2.69679 2.42754 2.17768 1.94035 1.94864 
1.61309 3.6734 3.78021 3.55863 3.39468 3.19769 3.27947 3.49874 3.45526 
3.67152 3.74994 3.53784 3.38457 3.3794 3.33447 4.00986 3.79694 4.05481 
4.3057 4.36713 4.51906 4.47579 4.49112 3.70225 2.99426 2.18303 2.14266 
1.66413 1.49378 1.51156 1.32858 1.5349 1.5654 1.5654 1.75959 1.96134 
1.75246 1.96497 2.0816 2.0816 2.13006 2.20879 2.10564 1.95063 1.75602 
1.62109 1.62109 1.4932 1.60708 1.60708 1.82792 1.8885 1.97945 3.45283 
2.79647 2.39962 2.27034 1.89129 2.17275 2.19211 2.2274 2.2274 2.53812 
2.99592 3.34293 3.50128 3.96653 4.30359 4.11897 3.61483 3.33371 3.28333 
3.03128 2.8636 3.36585 2.05387 2.07346 2.13514 2.06855 2.06855 2.01147 
1.96663 1.96663 1.91019 1.93635 1.9511 1.99819 2.13748 1.9521 2.28203 
2.24701 2.24701 2.23859 2.06741 2.09238 1.91073 1.74589 1.74589 1.40218 
1.00114 1.43621 2.28367 2.15265 2.81353 2.9655 2.74563 2.50956 2.31967 
2.27111 2.03626 2.1187 2.00729 1.94312 1.94905 1.70658 1.79501 1.75507 
1.75134 1.83331 1.83331 1.90725 2.00337 1.99334 1.87693 1.83453 1.86249 
2.04701 2.1536 2.2583 2.45798 2.39116 2.65892 2.77985 2.88759 1.97 
1.71335 1.59701 2.30348 
rRFP 1 471 double
3183.64 3631.3 2923.21 2943.46 3364.15 2775.53 3268.22 3243.2 4177.79 
4437.72 4234.32 3771.83 3047.79 3656.38 3311.04 4105.28 3204.78 3682.78 
3573.16 4103.06 4100.25 3493.07 3486.88 4371.11 4503.4 4562.94 3859.02 
4276.01 4033.44 3257.65 3352.36 3562.23 3620.78 3627.62 3570.05 3362.41 
3176.63 3080.72 3101.21 3312.75 3405.42 3398.15 3506.07 3703.88 3703.88 
3689.84 3659.48 3481.79 3414.07 3519.31 3493.77 3854.73 3846.48 3982.19 
4193.85 4193.85 4192.73 4031.8 3988.22 3892.4 3859.06 3840.3 3863.84 
3938.26 3906.99 4072.83 4096.89 4051.49 3961.27 3635.86 3486.88 4226.9 
4275.33 4388.26 4230.85 4087.36 3778.85 3653.05 3763.35 3906.1 4097.38 
4453.25 4460.63 4578.57 4703.37 4703.37 4580.57 4409.07 4275.33 4860.38 
5067.63 4841.42 4810.23 4009.56 4073.14 4073.14 4107.94 3911.86 4013.46 
3866.98 3769.12 3874.52 3877.44 3780.21 3744.06 4079.32 4079.32 4153.31 
4120.62 4330.36 4454.84 4390.19 4378.06 4301.1 4251.51 4388.7 4325.41 
4048.35 4009.46 3905.6 3902.91 3901.21 3915.63 4094.85 4025.53 4021.01 
4005.01 4060.01 3944.27 4359.78 4397.22 4099.69 4355.01 4348.36 4561.86 
4523.54 4502.85 4434.99 4290.52 4231.15 4173.95 4524.69 4721.32 4616.49 
4078.73 3988.35 3694.22 3636.36 3605.72 3576.81 3499.62 3316.85 3280.99 
3280.99 3139.07 3094.9 3094.9 3043.19 3174.58 3099.12 3262.31 3262.31 
3280.95 3451.65 3451.65 3500.4 3632.01 3632.01 3671.1 3597.67 3632.77 
3613.65 3642.46 3581.02 3389.54 3368.7 3354.7 3374.72 3289.6 3290.4 
3340.98 3400.46 3489.2 3545.8 3703.21 3610.26 3800.69 3969.26 3991.27 
4037.25 4015.99 4022.01 3941.89 4028 3985 4008.98 4048.54 3929.78 
3896.01 3845.28 3781.02 3971.1 3971.1 3959.01 3933.07 3933.07 4095.43 
4179.33 4179.33 4305.49 4499.36 4303.64 4019.02 3783.51 3841.15 3490.94 
3407.12 3270.65 3280.78 3242.77 3552.07 3552.07 3790.72 3853.63 3853.63 
3908.7 3897.12 3897.12 3867.28 3823.12 3835.26 3317.78 3646.58 3682.47 
3617.33 3605.65 3666.98 3607.47 3573.05 3687.12 3755.84 3751.38 3827.43 
3992.07 3908.42 4073.56 4444.72 4568.8 4529.42 4300.83 3613.89 3405.85 
3353.84 3333.48 3277.07 3196.04 3188.51 3224.38 3204.79 3242.11 3147.57 
3147.57 3309.91 3284.17 3248.86 3452.22 3400.83 3376.31 3924.73 3833.67 
3623.11 3442.62 3436.1 3434.41 3423.58 3423.58 3418.02 3461.64 3447.75 
3425.43 3428.75 3348.81 3393.35 3343.05 3254.77 3383.95 3358.53 3359.8 
3293.86 3293.86 3307.75 3311.78 3311.78 3350 3299.94 3282.23 3239.52 
3192.3 3281.51 3281.51 3352.62 3311.67 3235.57 3293.43 3109.58 2959.16 
2915.28 2953.72 3144.02 3199.04 3199.04 3344.44 3383.68 3513.23 3606.28 
3557.35 3652.09 3652.09 3703.64 3747.86 3820.04 3837.47 3800.95 3794.01 
3761.01 3742.11 3678.44 3799.1 3653.58 3514.25 3384.95 3262.14 3266.43 
3092.79 4158.95 4214.22 4099.56 4014.72 3912.78 3955.1 4068.57 4046.07 
4157.98 4198.56 4088.8 4009.49 4006.81 3983.56 4333.06 4222.88 4356.32 
4486.15 4517.94 4596.56 4574.17 4582.1 4173.88 3807.51 3387.72 3366.83 
3119.2 3031.05 3040.25 2945.56 3052.33 3068.11 3068.11 3168.6 3273 
3164.91 3274.88 3335.23 3335.23 3360.31 3401.05 3347.67 3267.46 3166.75 
3096.93 3096.93 3030.75 3089.68 3089.68 3203.96 3235.31 3282.37 4044.81 
3705.16 3499.8 3432.9 3236.75 3382.4 3392.42 3410.68 3410.68 3571.47 
3808.37 3987.94 4069.88 4310.64 4485.06 4389.52 4128.64 3983.17 3957.1 
3826.67 3739.9 3999.8 3320.88 3331.02 3362.94 3328.48 3328.48 3298.94 
3275.74 3275.74 3246.53 3260.07 3267.7 3292.07 3364.15 3268.22 3438.95 