# vtk DataFile Version 3.0
vtk output
ASCII
DATASET POLYDATA
POINTS 615 float
1.50169 -0.783198 2.01166 0.872779 -0.36386 2.01508 0.623362 0.524336 1.54063 
-0.14042 -1.58221 1.44423 2.60778 0.593922 1.179 -0.219272 -1.82732 0.781609 
-0.594776 -1.40061 0.781438 5.1632 -0.353545 0.555521 1.26419 -2.11402 0.631386 
2.50792 1.17211 0.372984 2.39694 1.2942 0.372984 1.77322 -1.92575 -0.0899709 
-0.428978 0.0136886 0.361345 -0.888871 -0.924671 0.379457 -0.468949 -1.60832 0.248884 
5.90961 -0.244885 -0.322959 5.4074 0.0914223 -0.253567 3.14481 0.0786717 -0.522246 
0.0647459 -1.99034 -0.220439 5.97371 0.128395 -0.890522 3.52908 -0.0551472 -0.425851 
-0.157756 -0.136174 -0.674027 6.31565 -0.346529 -0.660674 5.80514 -0.438955 -0.652472 
3.87776 -0.0354988 -0.630943 0.215358 0.7233 -0.589935 0.399872 -1.90868 -0.692827 
6.24156 0.0323217 -0.843274 5.29183 0.28368 -0.854488 6.15756 -1.15919 -0.848336 
5.30666 -0.223141 -0.848336 6.19086 -1.27757 -0.847311 6.26574 -0.46622 -1.05855 
5.05171 0.238829 -1.184 4.87337 0.163434 -1.14726 5.14514 -0.270864 -1.11223 
0.283975 -1.81582 -0.959109 1.1171 1.02272 -1.20623 5.51415 0.213236 -1.45678 
5.31168 -0.487967 -1.47482 5.95781 -0.225849 -1.65742 5.7492 -0.300652 -1.69251 
5.38937 -0.71781 -1.64341 2.43605 -0.602784 -1.60411 0.568812 -0.516292 -1.77947 
0.581831 -0.448861 -1.7805 0.603875 -0.39136 -1.78152 0.616967 -0.32401 -1.78255 
0.631357 -0.258088 -1.78357 0.662724 -0.210843 -1.7846 0.702043 -0.172344 -1.78563 
0.74266 -0.135273 -1.78665 0.783424 -0.0983652 -1.78768 0.825487 -0.0628851 -1.7887 
0.875568 -0.0362255 -1.78973 0.943864 -0.0296044 -1.79075 1.0201 -0.031877 -1.79177 
1.09628 -0.0368017 -1.79276 1.16507 -0.048601 -1.79356 1.22119 -0.0719123 -1.80145 
1.28085 -0.0920062 -1.82425 1.33503 -0.11708 -1.86914 1.39429 -0.137546 -1.92156 
1.4499 -0.161322 -1.96648 1.5184 -0.17338 -1.98209 1.59343 -0.179499 -1.96823 
1.66275 -0.190815 -1.92459 1.71969 -0.213383 -1.87324 1.78035 -0.232567 -1.82938 
1.8368 -0.255581 -1.80764 1.90418 -0.268659 -1.801 1.97019 -0.282987 -1.80173 
2.01886 -0.313065 -1.80203 2.0662 -0.344368 -1.80229 2.12348 -0.366626 -1.79539 
2.17103 -0.397723 -1.77343 2.21889 -0.428543 -1.72926 2.27672 -0.450311 -1.67791 
2.32314 -0.482435 -1.6337 2.36187 -0.521556 -1.61152 2.39905 -0.562087 -1.60411 
0.566708 -0.592534 -1.77849 0.573341 -0.660832 -1.77772 0.600009 -0.710918 -1.77746 
0.635496 -0.752988 -1.77743 0.67241 -0.79376 -1.77742 0.709406 -0.834458 -1.77742 
0.746402 -0.875156 -1.77742 0.783317 -0.915927 -1.77742 0.818966 -0.957849 -1.77739 
0.848571 -1.00527 -1.7772 0.874358 -1.05615 -1.77692 0.922665 -1.08657 -1.76979 
0.967358 -1.12027 -1.74776 1.00624 -1.15925 -1.70336 1.04252 -1.2006 -1.65148 
1.0699 -1.25004 -1.59937 1.07714 -1.31778 -1.55418 1.0756 -1.39337 -1.50135 
1.0714 -1.4689 -1.44847 1.06026 -1.53695 -1.39561 1.03622 -1.59103 -1.35015 
1.00651 -1.63866 -1.29728 0.948395 -1.65505 -1.24441 0.883315 -1.66398 -1.19895 
0.832486 -1.68899 -1.1683 0.78274 -1.7152 -1.13765 0.723074 -1.73008 -1.09219 
0.667232 -1.74876 -1.03192 0.609185 -1.76481 -0.964235 0.567997 -1.79944 -0.894081 
0.535682 -1.84575 -0.823912 0.475636 -1.87333 -0.756056 0.494045 -0.509931 -1.68221 
0.427708 -0.495905 -1.60738 0.381099 -0.463946 -1.55528 0.343228 -0.424044 -1.5034 
0.305438 -0.384068 -1.45151 0.260236 -0.350829 -1.40686 0.203541 -0.32804 -1.37673 
0.156699 -0.296292 -1.34684 0.110062 -0.264358 -1.30215 0.0537362 -0.241084 -1.23129 
0.0059202 -0.207465 -1.11251 -0.0546022 -0.169423 -0.923226 5.82734 -0.267359 -1.68844 
5.889 -0.235405 -1.67303 2.50437 -0.59352 -1.50886 2.5566 -0.567379 -1.44323 
2.6072 -0.540262 -1.40722 2.66665 -0.523087 -1.37862 2.71727 -0.495796 -1.33522 
2.768 -0.468413 -1.28439 2.82769 -0.450885 -1.23358 2.87694 -0.422077 -1.19017 
2.91834 -0.384438 -1.13935 2.95173 -0.337978 -1.08853 2.97356 -0.278798 -1.03771 
2.99745 -0.222094 -0.994304 3.01033 -0.15253 -0.932373 3.02098 -0.0752771 -0.837182 
3.0561 0.0027455 -0.69417 2.4319 -0.678126 -1.53643 2.42093 -0.746169 -1.47616 
2.39834 -0.801832 -1.4307 2.37884 -0.861519 -1.40746 2.35453 -0.916126 -1.39161 
2.33496 -0.975731 -1.36837 2.31099 -1.02989 -1.32291 2.2906 -1.08776 -1.27004 
2.25992 -1.13453 -1.22458 2.22893 -1.18158 -1.20134 2.20792 -1.24002 -1.19291 
2.18337 -1.29456 -1.18447 2.1625 -1.35273 -1.16123 2.13059 -1.39815 -1.11577 
2.09321 -1.43734 -1.0629 2.0614 -1.48267 -1.01003 2.0409 -1.54064 -0.964574 
2.01827 -1.59605 -0.911707 2.006 -1.66267 -0.851432 1.99384 -1.72919 -0.783749 
1.97143 -1.78425 -0.708666 1.95036 -1.84003 -0.606168 1.91043 -1.87474 -0.461458 
1.84635 -1.88957 -0.274425 5.33862 -0.653675 -1.57684 5.32423 -0.57396 -1.51837 
5.38638 -0.812406 -1.64219 5.39271 -0.887223 -1.64133 5.41933 -0.938277 -1.64106 
5.45474 -0.98047 -1.64102 5.49033 -1.02245 -1.63357 5.51888 -1.07082 -1.61114 
5.5379 -1.12786 -1.56624 5.57569 -1.16784 -1.51439 5.63333 -1.18962 -1.47046 
5.68851 -1.21118 -1.44132 5.74961 -1.2137 -1.41249 5.80707 -1.19659 -1.36164 
5.86966 -1.18181 -1.2886 5.92916 -1.16284 -1.19335 6.00019 -1.15635 -1.09068 
6.07821 -1.15714 -0.973219 5.49513 -0.713551 -1.63751 5.58317 -0.714092 -1.60909 
5.66317 -0.716479 -1.54349 5.74099 -0.717353 -1.44082 5.81087 -0.709145 -1.31595 
5.8599 -0.680676 -1.18362 5.88399 -0.642677 -1.05849 5.8684 -0.601534 -0.947657 
5.83712 -0.558394 -0.85145 5.81186 -0.507175 -0.755427 5.66286 -0.286958 -1.68592 
5.60036 -0.256071 -1.66879 5.55093 -0.224218 -1.65739 5.53397 -0.165163 -1.65234 
5.5259 -0.0981695 -1.65307 5.50951 -0.0386865 -1.64618 5.50484 0.0323161 -1.61737 
5.50834 0.116053 -1.55179 6.02375 -0.240232 -1.65074 6.07131 -0.271329 -1.62878 
6.11053 -0.310005 -1.57698 6.14873 -0.349607 -1.49552 6.18736 -0.388819 -1.37702 
6.2264 -0.427659 -1.22889 5.96269 -0.146996 -1.57064 5.96802 -0.0662482 -1.42778 
5.97255 0.0229079 -1.194 5.25253 -0.435796 -1.44009 5.18747 -0.406947 -1.38275 
5.15182 -0.356785 -1.27176 5.44163 0.256631 -1.32297 5.3767 0.281663 -1.18162 
5.33068 0.297266 -1.02559 5.62155 0.218973 -1.33238 5.71085 0.219368 -1.21613 
5.79235 0.214276 -1.11031 5.87762 0.190649 -1.00217 1.1931 1.01748 -1.21463 
1.26015 1.0041 -1.23761 1.30686 0.972235 -1.2823 1.34473 0.932333 -1.33419 
1.38262 0.89245 -1.37866 1.42803 0.859398 -1.40851 1.48465 0.83654 -1.43864 
1.52993 0.803376 -1.4833 1.56915 0.764698 -1.53522 1.61594 0.732906 -1.57992 
1.683 0.71953 -1.6029 1.75907 0.714357 -1.61129 1.83668 0.710575 -1.61232 
1.91436 0.706866 -1.61334 1.99208 0.703332 -1.60696 2.06877 0.701331 -1.58577 
2.13905 0.707 -1.54236 2.19924 0.72398 -1.49153 2.26962 0.729742 -1.44072 
2.34644 0.727852 -1.40472 2.42314 0.723391 -1.36867 2.49225 0.71189 -1.33985 
2.54756 0.687838 -1.30326 2.59911 0.66037 -1.27399 2.63421 0.617953 -1.24431 
2.68405 0.588928 -1.22982 2.72872 0.555208 -1.21519 2.76737 0.516013 -1.19301 
2.80506 0.475947 -1.14858 2.84277 0.435899 -1.09673 2.8803 0.395685 -1.05229 
2.91617 0.353968 -1.03004 2.94455 0.305439 -1.015 2.96213 0.246869 -0.981175 
2.99434 0.197691 -0.892097 3.05121 0.146962 -0.732958 4.93524 0.175564 -1.24334 
4.9991 0.193626 -1.25556 4.88098 0.0696739 -1.28325 4.88239 -0.0127444 -1.36002 
4.88971 -0.0817975 -1.35926 4.91697 -0.13141 -1.31826 4.95329 -0.172819 -1.26886 
4.99371 -0.212241 -1.22694 5.05131 -0.246697 -1.17544 5.13295 0.273487 -1.05467 
5.21279 0.284223 -0.94478 0.350958 -1.84358 -0.831263 5.22639 -0.236108 -0.98289 
4.88771 0.231949 -1.09522 4.95157 0.250011 -1.10744 4.78464 0.183302 -1.00182 
4.70507 0.192049 -0.893402 4.63561 0.188353 -0.833127 4.57786 0.171058 -0.798778 
4.51641 0.157312 -0.782936 4.45852 0.139658 -0.767103 4.39053 0.133315 -0.743852 
4.32274 0.127158 -0.705803 4.26505 0.10969 -0.675153 4.20358 0.0957692 -0.666719 
4.1465 0.0763974 -0.680501 4.08489 0.0622096 -0.686885 4.02819 0.0430349 -0.678451 
3.9683 0.0277903 -0.655209 3.91972 -0.000111529 -0.639377 6.2985 -0.414958 -0.859614 
6.25446 -0.532073 -0.93162 6.23402 -0.588254 -0.819504 6.22346 -0.655926 -0.729605 
6.21819 -0.729828 -0.654522 6.2073 -0.797796 -0.59425 6.18723 -0.853784 -0.563636 
6.18402 -0.914905 -0.585049 6.19797 -0.973799 -0.658595 6.20042 -1.04299 -0.746667 
6.18791 -1.10996 -0.812326 6.10371 0.0894339 -0.878064 6.18418 0.0588264 -0.861858 
-0.0832971 -0.0499056 -0.694659 -0.044124 0.0199632 -0.684963 -0.00186116 0.0610035 -0.641604 
0.0486558 0.089208 -0.572272 0.077535 0.138827 -0.476986 0.0936126 0.185673 -0.344432 
0.0771473 0.22602 -0.181723 0.0430729 0.250507 -0.0111598 -0.00250577 0.243914 0.137727 
-0.0597074 0.231404 0.257214 -0.108657 0.205922 0.339703 -0.159254 0.181266 0.392569 
-0.225865 0.173406 0.41581 -0.291494 0.163884 0.421776 -0.335083 0.127788 0.412948 
-0.36912 0.0691287 0.39193 6.16563 -1.22618 -0.847608 5.31324 -0.145589 -0.745682 
5.3283 -0.0736782 -0.613428 5.36288 -0.00464592 -0.444371 5.35398 -0.25445 -0.848597 
5.41262 -0.275471 -0.841731 5.46756 -0.299857 -0.819959 5.52663 -0.320487 -0.776067 
5.57333 -0.35237 -0.724443 5.61387 -0.389841 -0.680084 5.66158 -0.420797 -0.658131 
5.72904 -0.433801 -0.651487 5.32278 0.234577 -0.654264 5.35167 0.167785 -0.45379 
6.25341 -0.0314599 -0.819353 6.25796 -0.101649 -0.811124 6.27521 -0.160297 -0.810627 
6.28922 -0.221892 -0.802637 6.30779 -0.279344 -0.750313 0.360455 -1.96193 -0.531098 
0.319791 -2.00238 -0.411489 0.27199 -2.02782 -0.341368 0.21221 -2.02585 -0.29364 
0.14999 -2.00459 -0.256002 -0.23128 -0.224497 -0.690428 -0.261 -0.304355 -0.685306 
-0.277347 -0.372056 -0.662008 -0.307279 -0.420605 -0.642462 -0.338369 -0.467746 -0.62663 
-0.360573 -0.524661 -0.610787 -0.392939 -0.570192 -0.587546 -0.432053 -0.608506 -0.571713 
-0.471167 -0.646819 -0.555871 -0.503533 -0.69235 -0.532629 -0.525469 -0.748739 -0.487172 
-0.558725 -0.79247 -0.434296 -0.60542 -0.821417 -0.38143 -0.66364 -0.837893 -0.335972 
-0.711531 -0.865319 -0.275697 -0.752377 -0.899639 -0.188268 -0.792051 -0.931893 -0.0490223 
-0.83568 -0.946579 0.144397 0.244199 0.771155 -0.553886 0.247911 0.830126 -0.480594 
0.224345 0.880127 -0.354944 0.191219 0.921288 -0.184604 0.157367 0.943221 0.000800288 
0.130973 0.919228 0.179276 0.13058 0.866165 0.335534 0.159354 0.820899 0.483871 
0.205629 0.788785 0.631811 0.264642 0.768102 0.786843 0.31097 0.735888 0.927372 
0.342312 0.69005 1.05346 0.360867 0.632589 1.15765 0.392026 0.586491 1.25905 
0.440634 0.554511 1.35262 0.518865 0.538811 1.44806 5.83835 -0.389078 -0.56218 
5.86594 -0.320868 -0.452286 6.25046 -0.331455 -0.496975 6.19469 -0.307822 -0.37055 
6.12819 -0.293892 -0.298195 6.06007 -0.280568 -0.277659 5.99585 -0.258381 -0.291874 
0.0175837 -1.92374 -0.381141 -0.0251773 -1.8758 -0.492282 -0.0719011 -1.84211 -0.534047 
-0.127377 -1.81811 -0.523701 -0.163658 -1.77676 -0.47186 -0.181114 -1.7183 -0.398259 
-0.209656 -1.66992 -0.309577 -0.254347 -1.63622 -0.227879 -0.318999 -1.62081 -0.145686 
-0.383649 -1.60801 -0.048648 -0.429991 -1.59454 0.0851854 -0.232583 -0.0771197 -0.353929 
-0.290514 -0.035803 -0.0782905 -0.356522 -0.0124778 0.151997 3.45339 -0.0496214 -0.395241 
3.38627 -0.0360958 -0.361149 3.33472 -0.00448716 -0.353423 3.26609 0.0355437 -0.408548 
5.85146 0.114177 -0.6156 5.75938 0.11283 -0.412158 5.68058 0.1167 -0.30316 
5.60177 0.119456 -0.264011 5.51393 0.113936 -0.255319 5.92449 0.0346619 -0.585975 
5.89855 -0.0392028 -0.377595 5.87718 -0.0970175 -0.293321 5.8784 -0.166551 -0.291405 
0.00597529 -2.03969 0.00571982 -0.061951 -2.05209 0.199446 -0.126687 -2.04028 0.336015 
-0.173978 -2.00913 0.425182 -0.216446 -1.97341 0.504343 -0.246362 -1.92627 0.622705 
3.13656 0.0477229 -0.177244 3.11054 0.0335866 0.115943 3.07568 0.0559715 0.338402 
3.0321 0.0877087 0.505304 2.97688 0.108929 0.646564 2.93195 0.123556 0.780353 
2.89244 0.106648 0.907063 2.85204 0.0752871 1.01914 2.80449 0.0484691 1.10904 
2.7453 0.0338749 1.18412 2.68942 0.0154436 1.25181 2.62884 0.00218379 1.31948 
2.57288 -0.016166 1.38716 2.5123 -0.0294253 1.45485 2.45632 -0.0479495 1.51512 
2.39676 -0.0627486 1.56799 2.34721 -0.0887623 1.61345 2.29662 -0.113418 1.66631 
2.23034 -0.120825 1.71919 2.16406 -0.128231 1.77205 2.11337 -0.15298 1.81751 
2.06393 -0.178908 1.87038 2.0043 -0.193625 1.92325 1.9468 -0.2109 1.96871 
1.87759 -0.215896 1.99195 1.8026 -0.214951 2.00039 1.73308 -0.220226 2.00141 
1.67491 -0.237984 2.00244 1.61333 -0.251998 2.00346 1.55646 -0.271184 2.00449 
1.49488 -0.285197 2.00551 1.43671 -0.302955 2.00654 1.36719 -0.30823 2.00756 
1.2921 -0.307378 2.00859 1.22251 -0.312579 2.00961 1.1631 -0.328975 2.01064 
1.09468 -0.33552 2.01166 1.02535 -0.342022 2.0127 0.959498 -0.358195 2.01381 
5.43115 -0.0111174 -0.0599851 5.42965 -0.0865058 0.111381 5.40016 -0.132327 0.238314 
5.35399 -0.161233 0.313396 5.29691 -0.179163 0.351455 5.25539 -0.214426 0.382105 
5.22558 -0.26215 0.427563 5.18469 -0.29728 0.487837 1.70265 -2.00147 0.06976 
1.65066 -2.05544 0.181543 1.60142 -2.08566 0.275947 1.54211 -2.10034 0.353263 
1.48503 -2.11724 0.428345 1.41636 -2.1216 0.496029 1.34089 -2.11848 0.563702 
-0.470134 -1.68372 0.316527 -0.462239 -1.75102 0.388875 -0.429132 -1.79801 0.482854 
-0.356856 -1.82537 0.615553 -0.531887 -1.58733 0.407537 -0.572032 -1.52453 0.585114 
-0.90103 -1.02761 0.413021 -0.897893 -1.10533 0.436176 -0.873073 -1.15801 0.446376 
-0.846403 -1.20815 0.449108 -0.829414 -1.26704 0.457023 -0.800682 -1.31534 0.484397 
-0.760798 -1.35525 0.548558 -0.699148 -1.38602 0.651812 -0.855734 -0.856506 0.506567 
-0.825829 -0.798116 0.601729 -0.811108 -0.730042 0.655012 -0.797524 -0.662285 0.68607 
-0.774037 -0.60596 0.699863 -0.754027 -0.545809 0.713645 -0.72914 -0.490819 0.734846 
-0.707527 -0.431817 0.770844 -0.675789 -0.383952 0.806852 -0.645413 -0.335 0.828044 
-0.630921 -0.268986 0.834427 -0.616633 -0.203157 0.825993 -0.58687 -0.154762 0.802752 
-0.556249 -0.108141 0.747415 -0.533676 -0.0527416 0.655033 -0.493216 -0.0123262 0.520615 
2.43393 1.2535 0.372984 2.47093 1.21281 0.372984 -0.499256 -1.45837 0.938902 
-0.415462 -1.4815 1.0788 -0.344209 -1.49483 1.19158 -0.285244 -1.51758 1.28983 
-0.215873 -1.54134 1.37068 -0.167165 -1.69846 1.1176 -0.0805694 -1.82825 0.908129 
0.00293826 -1.8454 0.996098 0.0759057 -1.85616 1.03473 0.151065 -1.86231 1.04365 
0.219851 -1.87411 1.04285 0.277532 -1.896 1.04974 0.345271 -1.90876 1.07119 
0.413316 -1.92123 1.11486 0.471433 -1.94258 1.15878 0.539411 -1.9525 1.1876 
0.607652 -1.94869 1.18662 0.666872 -1.93245 1.17818 0.735134 -1.926 1.16975 
0.80343 -1.91938 1.16872 0.861564 -1.90137 1.17511 0.92204 -1.88573 1.1889 
0.971231 -1.85728 1.2175 1.01373 -1.82125 1.2535 1.05521 -1.78369 1.30431 
1.09672 -1.74596 1.36254 1.13833 -1.70813 1.42817 1.17994 -1.67031 1.4938 
1.22137 -1.63249 1.55203 1.26148 -1.59343 1.60284 1.29469 -1.54698 1.64625 
1.31652 -1.4878 1.69707 1.34051 -1.431 1.74789 1.35291 -1.36166 1.7913 
1.35821 -1.28512 1.81249 1.36226 -1.20741 1.82628 1.36755 -1.13087 1.84747 
1.37988 -1.06145 1.89088 1.40257 -1.00322 1.94171 1.41628 -0.935317 1.98511 
1.43097 -0.869116 2.00631 1.46244 -0.821778 2.01269 2.5316 0.599002 1.17998 
2.46281 0.610801 1.18078 2.40666 0.634087 1.18127 2.34805 0.655133 1.18181 
2.30073 0.686443 1.18207 2.25358 0.717912 1.18974 2.19671 0.740542 1.21246 
2.15007 0.772475 1.25715 2.10346 0.804434 1.30927 2.04553 0.826105 1.35424 
1.99113 0.850974 1.3769 1.93134 0.870956 1.38489 1.87654 0.895473 1.38534 
1.81658 0.915289 1.38592 1.76035 0.938507 1.3864 1.69164 0.950225 1.3872 
1.61675 0.953722 1.38819 1.54854 0.947174 1.38921 1.49849 0.920689 1.39765 
1.45543 0.886915 1.42089 1.40726 0.859385 1.46635 1.349 0.843158 1.51922 
1.2996 0.816981 1.56468 1.2499 0.790527 1.58792 1.19096 0.773816 1.59636 
1.14094 0.747082 1.59738 1.09093 0.720349 1.59841 1.03199 0.703638 1.60684 
0.982285 0.677183 1.63008 0.932817 0.651081 1.67554 0.873254 0.636289 1.72841 
0.816926 0.617356 1.764 0.755026 0.601198 1.74777 0.695176 0.569293 1.6675 
-0.0455226 -1.56621 1.44272 0.0144347 -1.53668 1.44153 0.0580633 -1.50069 1.44788 
0.0991043 -1.46357 1.46166 0.140102 -1.42631 1.48286 0.181071 -1.38921 1.49665 
0.22319 -1.35338 1.51043 0.270907 -1.32351 1.53163 0.322225 -1.29718 1.56763 
0.351938 -1.24709 1.60364 0.378197 -1.19361 1.62483 0.399624 -1.13523 1.63121 
0.433447 -1.09068 1.63019 0.479485 -1.05957 1.62916 0.529097 -1.03219 1.63555 
0.551811 -0.974813 1.65674 0.566888 -0.908415 1.70014 0.591055 -0.851606 1.75837 
0.611678 -0.790898 1.81659 0.636871 -0.735629 1.86001 0.658281 -0.676814 1.8812 
0.689785 -0.629309 1.89498 0.72146 -0.581785 1.91618 0.74441 -0.52415 1.95218 
0.778136 -0.47645 1.98816 0.821563 -0.428121 2.00918 0.622251 0.431443 1.67765 
0.630032 0.357945 1.78959 0.656377 0.306646 1.87383 0.683812 0.257203 1.93582 
0.699811 0.197418 1.98079 0.71804 0.13966 2.00349 0.724776 0.0714549 2.01166 
0.731335 0.00308891 2.01243 0.747823 -0.0562515 2.01295 0.754463 -0.124543 2.01371 
0.762549 -0.191616 2.01444 0.789703 -0.243099 2.01471 0.827987 -0.295113 2.01484 

LINES 53 733
38 44 45 46 47 48 49 50 51 52 53 54 55 56 57 58 59 60 61 62 63 64 65 66 67 68 69 70 71 72 73 74 75 76 77 78 79 80 43 
34 44 81 82 83 84 85 86 87 88 89 90 91 92 93 94 95 96 97 98 99 100 101 102 103 104 105 106 107 108 109 110 111 112 26 
14 44 113 114 115 116 117 118 119 120 121 122 123 124 21 
17 43 127 128 129 130 131 132 133 134 135 136 137 138 139 140 141 17 
18 42 168 169 170 171 172 173 174 175 176 177 178 179 180 181 182 183 29 
12 42 184 185 186 187 188 189 190 191 192 193 23 
8 40 202 203 204 205 206 207 32 
5 40 208 209 210 19 
5 38 214 215 216 28 
6 38 217 218 219 220 19 
38 37 221 222 223 224 225 226 227 228 229 230 231 232 233 234 235 236 237 238 239 240 241 242 243 244 245 246 247 248 249 250 251 252 253 254 255 256 17 
4 34 257 258 33 
9 34 259 260 261 262 263 264 265 35 
4 33 266 267 28 
3 36 268 26 
3 35 269 30 
4 34 270 271 33 
17 34 272 273 274 275 276 277 278 279 280 281 282 283 284 285 286 24 
3 32 287 22 
12 32 288 289 290 291 292 293 294 295 296 297 29 
18 21 300 301 302 303 304 305 306 307 308 309 310 311 312 313 314 315 12 
3 31 316 29 
5 30 317 318 319 16 
10 30 320 321 322 323 324 325 326 327 23 
4 28 328 329 16 
7 26 335 336 337 338 339 18 
20 21 340 341 342 343 344 345 346 347 348 349 350 351 352 353 354 355 356 357 13 
18 25 358 359 360 361 362 363 364 365 366 367 368 369 370 371 372 373 2 
4 23 374 375 15 
7 22 376 377 378 379 380 15 
13 18 381 382 383 384 385 386 387 388 389 390 391 14 
5 21 392 393 394 12 
6 20 395 396 397 398 17 
7 19 399 400 401 402 403 16 
6 19 404 405 406 407 15 
8 18 408 409 410 411 412 413 5 
41 17 414 415 416 417 418 419 420 421 422 423 424 425 426 427 428 429 430 431 432 433 434 435 436 437 438 439 440 441 442 443 444 445 446 447 448 449 450 451 452 1 
10 16 453 454 455 456 457 458 459 460 7 
6 14 468 469 470 471 5 
4 14 472 473 6 
10 13 474 475 476 477 478 479 480 481 6 
18 13 482 483 484 485 486 487 488 489 490 491 492 493 494 495 496 497 12 
4 10 498 499 9 
7 6 500 501 502 503 504 3 
3 5 505 3 
38 5 506 507 508 509 510 511 512 513 514 515 516 517 518 519 520 521 522 523 524 525 526 527 528 529 530 531 532 533 534 535 536 537 538 539 540 541 0 
36 4 542 543 544 545 546 547 548 549 550 551 552 553 554 555 556 557 558 559 560 561 562 563 564 565 566 567 568 569 570 571 572 573 574 575 2 
28 3 576 577 578 579 580 581 582 583 584 585 586 587 588 589 590 591 592 593 594 595 596 597 598 599 600 601 1 
15 2 602 603 604 605 606 607 608 609 610 611 612 613 614 1 
13 40 126 125 41 194 195 196 197 198 199 200 201 38 
34 43 142 143 144 145 146 147 148 149 150 151 152 153 154 155 156 157 158 159 160 161 162 163 164 165 11 461 462 463 464 465 466 467 8 
8 42 166 167 39 211 212 213 35 
10 19 298 299 27 330 331 332 333 334 22 

POINT_DATA 615
SCALARS DY_raw double
LOOKUP_TABLE default
960.562 708.233 686.454 892.01 1036.56 786.051 929.042 1013.49 651.001 
905.917 790.19 597.53 641.508 838.184 748.299 1113.85 908.782 911.948 
549.414 905.003 1240.32 561.357 983.28 926.632 1111.49 580.569 600.419 
1074.4 885.1 1020.48 1000.5 1207.41 891.548 834.196 909.637 863.393 
444.267 734.938 735.76 998.661 728.045 841.371 798.954 609.694 459.67 
556.042 508.092 562.692 628.027 628.027 646.651 538.251 604.476 532.159 
521.514 578.506 636.53 606.408 716.309 705.539 703.438 722.616 630.499 
657.09 562.159 633.981 583.687 657.775 745.62 807 807 790.429 
734.624 754.74 731.246 663.091 722.992 663.842 657.337 657.337 609.694 
538.834 505.426 539.124 612.563 587.645 635.407 647.338 647.338 611.325 
594.349 594.349 562.936 562.936 645.094 704.555 787.716 661.865 549.538 
609.159 527.568 628.433 620.081 501.855 537.871 588.643 548.176 597.889 
546.793 613.116 584.385 668.4 614.269 486.722 600.611 672.225 800.366 
936.888 829.794 915.834 755.016 612.774 696.587 638.626 702.056 808.157 
785.952 724.308 855.267 977.742 908.285 790.702 852.083 809.378 740.827 
790.417 846.907 989.074 958.174 977.581 986.381 865.944 680.1 710.925 
800.363 737.551 766.638 766.638 791.05 795.359 1022.64 846.14 916.321 
934.989 764.256 786.812 841.29 756.969 858.344 809.307 787.502 871.082 
591.021 575.773 642.48 625.699 992.542 1045.28 783.003 780.351 794.183 
810.781 782.643 677.7 743.324 780.286 741.604 771.502 734.312 776.548 
876.913 877.305 879.692 964.208 781.596 804.665 766.622 722.857 707.234 
764.006 789.608 774.483 809.887 830.435 851.18 856.003 805.793 764.905 
646.207 590.813 593.974 631.645 702.27 764.901 728.702 766.909 781.66 
840.429 739.07 852.851 963.262 1002.29 996.777 925.517 816.126 897.826 
951.333 785.881 772.818 779.283 838.605 661.028 696.016 740.736 731.939 
669.054 836.446 816.157 816.157 766.007 644.826 565.855 595.405 617.312 
622.28 665.762 726.823 822.652 819.339 809.208 773.003 736.333 666.935 
695.587 748.271 732.119 732.119 727.928 727.928 728.701 688.002 718.9 
703.394 703.322 750.867 827.263 837.205 911.048 842.443 927.656 886.951 
827.266 779.406 790.913 800.771 822.673 846.456 858.336 600.922 892.816 
782.826 798.111 805.561 779.478 829.107 840.43 888.207 887.452 917.949 
898.801 935.87 955.38 899.1 899.1 873.552 909.898 909.898 1051.67 
923.011 1021.09 1101.82 895.726 1004.77 956.026 954.041 958.549 899.69 
1045.84 971.737 1090.76 656.979 647.532 639.407 626.177 635.763 636.503 
721.847 851.31 836.39 848.717 826.109 775.537 782.847 809.342 789.589 
729.109 1224.77 1131.75 1066.45 944.12 1007.52 916.434 905.366 971.06 
919.513 876.47 876.47 880.363 889.5 945.572 1153.02 1049 1079.95 
1079.95 1008.5 648.666 649.315 632.136 598.886 566.385 484.397 471.235 
539.422 571.769 675.871 748.394 718.822 794.501 712.256 646.663 703.691 
685.477 607.273 637.145 720.013 672.034 722.221 850.861 502.847 507.676 
494.224 608.966 603.147 584.784 627.368 651.713 637.308 590.006 572.706 
618.699 648.11 635.04 631.688 676.595 1013.2 1072.87 894.365 979.382 
1042.2 1085.36 1129.61 605.735 648.814 625.703 601.716 558.659 581.587 
656.463 618.817 633.539 649.772 660.857 487.522 650.157 677.286 1353.63 
1196.83 1051.33 995.448 792.55 878.525 856.166 864.376 898.808 907.694 
1037.35 1059 1078.23 564.151 844.928 789.768 725.964 695.387 731.239 
653.546 686.067 723.795 642.102 699.602 592.341 589.97 596.35 684.472 
769.002 699.044 803.228 797.801 752.711 690.513 753.875 712.289 756.776 
832.723 830.889 943.311 794.748 860.241 806.947 855.998 884.971 850.893 
806.878 822.42 730.208 726.249 663.009 631.142 716.657 685.307 712.581 
778.054 751.368 727.885 950.551 920.832 984.851 1044.69 910.681 823.925 
901.613 893.45 618.564 663.542 731.035 729.32 710.82 571.928 606.758 
771.196 629.505 626.954 679.006 909.554 911.889 850.269 828.488 922.782 
960.404 991.768 995.777 987.477 936.001 906.403 910.748 942.147 1004.62 
981.518 1183.93 1009.18 1070.03 879.612 888.013 888.013 701.311 645.524 
557.586 587.98 610.027 790.19 802.632 934.936 974.573 1064.58 864.451 
878.014 797.69 763.897 742.822 745.783 812.47 880.222 767.477 767.477 
780.986 846.958 838.856 869.217 844.984 839.497 839.968 826.816 800.162 
727.975 706.198 799.488 795.911 781.187 763.445 664.709 682.598 747.958 
812.273 833.646 879.508 762.094 821.074 769.792 683.734 693.319 738.665 
735.379 960.562 835.554 714.47 658.104 680.263 729.051 666.767 730.851 
748.937 849.928 887.3 923.062 923.062 878.991 878.991 785.372 732.141 
640.888 584.732 584.732 537.218 567.587 606.412 598.054 598.054 630.34 
638.149 593.892 614.224 624.478 623.883 728.464 668.455 650.784 630.953 
873.73 833.458 760.296 828.578 908.37 908.37 962.82 1065.36 1065.36 
1100.49 840.308 804.074 804.074 779.409 761.673 752.083 792 821.04 
977.264 890.885 946.384 781.139 824.439 804.427 745.596 718.981 765.912 
901.175 935.965 875.447 981.64 989.774 889.432 919.537 857.835 857.835 
762.838 727.277 702.009 
FIELD FieldData 7
DY_minmax 1 615 double
0.567754 0.290276 0.266326 0.49237 0.651326 0.375849 0.533093 0.625956 0.22734 
0.507663 0.380402 0.168539 0.2169 0.433179 0.334336 0.736319 0.510814 0.514295 
0.115627 0.506657 0.875397 0.128761 0.592737 0.530442 0.733722 0.149887 0.171716 
0.692939 0.484771 0.633643 0.611668 0.83921 0.491861 0.428793 0.511754 0.4609 
0 0.319643 0.320546 0.609651 0.312062 0.436683 0.390039 0.181916 0.016938 
0.122916 0.0701862 0.130229 0.202075 0.202075 0.222556 0.103351 0.176177 0.0966525 
0.0849463 0.147619 0.211426 0.178302 0.299157 0.287314 0.285002 0.306092 0.204794 
0.234036 0.129643 0.208623 0.153316 0.234789 0.331389 0.398887 0.398887 0.380665 
0.319297 0.341418 0.315582 0.240634 0.306506 0.24146 0.234307 0.234307 0.181916 
0.103993 0.0672552 0.104311 0.18507 0.157669 0.210191 0.223311 0.223311 0.183709 
0.165041 0.165041 0.130497 0.130497 0.220843 0.286231 0.377681 0.239286 0.115764 
0.181327 0.0916035 0.202522 0.193338 0.063328 0.102934 0.158766 0.114266 0.168934 
0.112745 0.185679 0.154083 0.246473 0.186946 0.0466864 0.171927 0.250679 0.391592 
0.541721 0.423953 0.518568 0.341721 0.185302 0.277469 0.213731 0.283483 0.400159 
0.37574 0.307953 0.451964 0.586646 0.510267 0.380964 0.448463 0.401501 0.326119 
0.380651 0.442772 0.599108 0.565129 0.58647 0.596146 0.463706 0.259338 0.293236 
0.391589 0.322516 0.354502 0.354502 0.381347 0.386086 0.636015 0.441928 0.519104 
0.539633 0.351883 0.376687 0.436594 0.343869 0.455348 0.401424 0.377446 0.469356 
0.161381 0.144614 0.217969 0.199516 0.602922 0.660912 0.372498 0.369581 0.384792 
0.403045 0.372102 0.256699 0.328864 0.36951 0.326973 0.35985 0.318954 0.3654 
0.475768 0.476199 0.478824 0.571764 0.370951 0.396319 0.354484 0.306358 0.289177 
0.351608 0.379762 0.363129 0.402061 0.424657 0.44747 0.452774 0.397559 0.352596 
0.222067 0.161153 0.164628 0.206054 0.283719 0.352592 0.312785 0.3548 0.371021 
0.435648 0.324186 0.449308 0.570724 0.613645 0.607579 0.529216 0.408922 0.498766 
0.557606 0.375663 0.361297 0.368407 0.433642 0.238365 0.276841 0.326018 0.316344 
0.247191 0.431267 0.408957 0.408957 0.353808 0.220549 0.133707 0.166202 0.190292 
0.195756 0.243572 0.310719 0.416099 0.412455 0.401315 0.361502 0.321177 0.244861 
0.276369 0.334304 0.316542 0.316542 0.311934 0.311934 0.312784 0.268029 0.302005 
0.284954 0.284875 0.337159 0.421169 0.432103 0.513305 0.437862 0.531569 0.486807 
0.421173 0.368542 0.381197 0.392037 0.416122 0.442276 0.45534 0.172269 0.493256 
0.372303 0.389112 0.397305 0.368622 0.423197 0.435649 0.488188 0.487357 0.520894 
0.499838 0.540601 0.562056 0.500166 0.500166 0.472072 0.512041 0.512041 0.667945 
0.526461 0.634319 0.723091 0.496456 0.616372 0.562767 0.560584 0.56554 0.500815 
0.661533 0.580043 0.710924 0.233913 0.223524 0.21459 0.200041 0.210583 0.211396 
0.305246 0.447613 0.431206 0.444762 0.419901 0.364288 0.372327 0.401462 0.37974 
0.313232 0.858291 0.756005 0.684192 0.549674 0.619392 0.519228 0.507057 0.579299 
0.522614 0.475281 0.475281 0.479562 0.489609 0.551271 0.7794 0.665007 0.699042 
0.699042 0.620475 0.224771 0.225485 0.206594 0.17003 0.134289 0.0441302 0.0296564 
0.104639 0.140211 0.254688 0.33444 0.30192 0.385142 0.2947 0.222569 0.285281 
0.265251 0.179253 0.212102 0.30323 0.250468 0.305658 0.44712 0.064419 0.0697288 
0.0549366 0.181114 0.174716 0.154522 0.201351 0.228123 0.212281 0.160265 0.141241 
0.191817 0.22416 0.209787 0.206102 0.255484 0.625636 0.691253 0.49496 0.588451 
0.65753 0.704992 0.753651 0.177562 0.224935 0.19952 0.173142 0.125794 0.151007 
0.233345 0.191947 0.208137 0.225988 0.238178 0.0475663 0.226411 0.256244 1 
0.827569 0.667567 0.606118 0.382997 0.477541 0.452953 0.461981 0.499845 0.509617 
0.652191 0.676003 0.697153 0.131832 0.440595 0.379937 0.309774 0.276149 0.315574 
0.230138 0.2659 0.307388 0.217553 0.280784 0.162833 0.160225 0.167241 0.264146 
0.357102 0.280171 0.394739 0.388771 0.339187 0.27079 0.340467 0.294736 0.343657 
0.427173 0.425157 0.548784 0.385413 0.457434 0.398829 0.452769 0.484629 0.447155 
0.398752 0.415844 0.314441 0.310087 0.240545 0.205501 0.29954 0.265065 0.295057 
0.367056 0.33771 0.311886 0.556745 0.524064 0.594464 0.660266 0.512902 0.417498 
0.50293 0.493953 0.191669 0.24113 0.31535 0.313465 0.293121 0.140385 0.178687 
0.359514 0.203701 0.200896 0.258135 0.511663 0.514231 0.446468 0.422517 0.526208 
0.567581 0.602071 0.60648 0.597352 0.540745 0.508198 0.512976 0.547504 0.616207 
0.590799 0.813386 0.621223 0.688133 0.478736 0.487974 0.487974 0.282664 0.221316 
0.124613 0.158037 0.182281 0.380402 0.394083 0.539574 0.583161 0.682136 0.462064 
0.476978 0.388649 0.351488 0.328312 0.331568 0.404902 0.479406 0.355425 0.355425 
0.37028 0.442827 0.433918 0.467305 0.440657 0.434623 0.435141 0.420678 0.391368 
0.311985 0.288038 0.390626 0.386693 0.370501 0.350991 0.242414 0.262085 0.33396 
0.404685 0.428189 0.478622 0.349505 0.414363 0.35797 0.263335 0.273875 0.323741 
0.320127 0.567754 0.430287 0.297134 0.23515 0.259518 0.313169 0.244677 0.315147 
0.335036 0.446093 0.48719 0.526517 0.526517 0.478053 0.478053 0.375104 0.316567 
0.216218 0.154465 0.154465 0.102215 0.135611 0.178306 0.169115 0.169115 0.204619 
0.213207 0.164539 0.186897 0.198172 0.197518 0.312523 0.246533 0.2271 0.205293 
0.472268 0.427982 0.347528 0.422615 0.51036 0.51036 0.570238 0.682993 0.682993 
0.721625 0.435515 0.395669 0.395669 0.368546 0.349042 0.338496 0.382391 0.414327 
0.586121 0.491132 0.552164 0.370448 0.418064 0.396057 0.331362 0.302095 0.353703 