# vtk DataFile Version 3.0
vtk output
ASCII
DATASET POLYDATA
POINTS 321 float
-0.187608 -1.11926 0.177027 -0.0869784 -1.71084 -0.520868 -0.00699335 -1.52178 -0.945175 
-0.26732 -1.42533 -0.841962 -0.177207 -0.691507 0.25294 2.13408 -0.0328948 1.56908 
0.977352 -0.813375 -1.30297 1.24455 0.877091 1.34736 1.17119 1.0017 1.52003 
2.74229 0.270779 0.201166 0.048661 0.781098 0.550512 1.86383 -0.129894 -0.878078 
-0.672457 0.275728 -1.25523 1.77867 0.232356 -0.952696 2.06912 0.287293 -0.828312 
1.90685 0.663632 -1.01285 -0.587462 1.02622 -1.5663 1.70163 1.22562 -1.04937 
1.33673 1.42514 -0.690744 1.40685 1.37729 -1.46566 1.24919 1.70877 -1.00073 
4.6248 1.89712 -0.575939 1.24048 1.82666 -1.54317 1.31303 1.91032 -1.40905 
5.1588 1.76189 -1.32091 5.51941 1.69778 -1.09339 5.48903 1.82606 -0.908882 
5.57965 2.00055 -0.6382 4.68838 2.37833 -0.572154 4.72036 2.33686 -0.615255 
4.72547 2.28035 -0.644805 4.71325 2.189 -0.648877 4.68307 2.05668 -0.623326 
5.1685 1.85103 -1.24435 5.21165 1.89893 -1.19048 5.26955 1.9261 -1.1484 
5.32814 1.93817 -1.11193 5.38319 1.92193 -1.07467 5.43681 1.88349 -1.00416 
5.15632 1.64395 -1.37925 5.13527 1.52808 -1.39097 5.09334 1.42344 -1.38598 
5.05629 1.343 -1.39422 5.00462 1.28785 -1.41702 4.94317 1.23514 -1.43769 
4.87895 1.16581 -1.43033 4.81619 1.09246 -1.3757 4.75639 1.03396 -1.29875 
4.69742 0.991606 -1.25084 4.63939 0.968914 -1.24 4.58093 0.950094 -1.24999 
4.52522 0.945061 -1.23927 4.47164 0.947751 -1.2036 4.41782 0.955266 -1.18733 
4.36336 0.962505 -1.1848 4.30781 0.9643 -1.19046 4.24942 0.939835 -1.18229 
4.19442 0.926386 -1.13089 4.1412 0.918896 -1.05722 4.089 0.919592 -0.984573 
4.03559 0.908123 -0.903552 3.98071 0.883371 -0.815836 3.92331 0.839908 -0.729621 
3.86438 0.794755 -0.672576 3.8071 0.766869 -0.629568 3.75375 0.770743 -0.592123 
3.69957 0.773392 -0.569834 3.64498 0.771002 -0.541806 3.59128 0.764122 -0.480548 
3.53804 0.756569 -0.406953 3.48433 0.749636 -0.345778 3.42954 0.746238 -0.319266 
3.37426 0.743381 -0.305253 3.31926 0.738921 -0.280338 3.26425 0.72548 -0.228945 
3.20827 0.704148 -0.176066 3.15416 0.692167 -0.109147 3.10154 0.690732 -0.0397035 
3.04638 0.670515 0.0281667 2.98543 0.613594 0.0763777 2.91748 0.516084 0.116699 
2.84001 0.403964 0.164931 5.56867 1.92141 -0.650562 5.55944 1.8606 -0.675352 
5.5515 1.83058 -0.720786 5.53615 1.82629 -0.782356 5.50631 1.8301 -0.847397 
5.52163 1.7907 -0.956127 5.52933 1.75861 -1.00226 5.52532 1.72807 -1.04787 
1.29992 1.83145 -1.42132 1.28017 1.80299 -1.46622 1.29296 1.56695 -0.845735 
1.42873 1.40547 -1.42085 1.47487 1.42421 -1.3731 1.5309 1.42413 -1.3163 
1.58537 1.38803 -1.24662 1.63929 1.3126 -1.16439 1.38945 1.40914 -0.70643 
1.43942 1.37932 -0.742914 1.4881 1.34299 -0.78918 1.5368 1.30758 -0.838484 
1.5866 1.27744 -0.893123 1.64046 1.25262 -0.961361 1.28839 1.46258 -0.642795 
1.24185 1.49978 -0.594926 1.20532 1.53567 -0.547504 1.1856 1.56934 -0.500834 
1.16075 1.60362 -0.454026 1.1402 1.63012 -0.404807 1.10061 1.6411 -0.354823 
1.0493 1.62651 -0.304578 1.00711 1.613 -0.238103 0.980717 1.60204 -0.165531 
0.939037 1.59468 -0.103195 0.885195 1.57422 -0.0487262 0.830578 1.55617 0.0224247 
0.776115 1.53647 0.104397 0.720547 1.51121 0.178011 0.662643 1.4772 0.225158 
0.604674 1.44886 0.254146 0.547733 1.43167 0.273251 0.490767 1.41436 0.292174 
0.432363 1.38383 0.317877 0.371613 1.33552 0.343513 0.307265 1.2615 0.36604 
0.238826 1.15855 0.411474 0.155114 0.994142 0.474405 1.76529 1.08736 -1.00088 
1.80283 0.9637 -0.978931 1.81955 0.860662 -0.978242 1.85455 0.764648 -0.990953 
-0.605946 0.852491 -1.46764 -0.627182 0.664929 -1.38979 -0.649714 0.470859 -1.32171 
1.97959 0.573524 -0.94943 2.03105 0.450104 -0.885314 1.87431 0.535511 -1.02119 
1.83781 0.39261 -0.998932 2.05679 0.195954 -0.832382 2.04206 0.100773 -0.833627 
2.01417 0.0069724 -0.834822 1.95289 -0.0681453 -0.848774 2.12691 0.284836 -0.770337 
2.18176 0.258557 -0.708198 2.23288 0.204601 -0.647672 2.28323 0.141301 -0.574583 
2.33182 0.081487 -0.509826 2.37289 0.0384566 -0.434721 2.39887 0.00930427 -0.354645 
2.43068 -0.0133966 -0.277433 2.4562 -0.0290144 -0.203968 2.48915 -0.0394203 -0.134953 
2.51456 -0.0550237 -0.0614815 2.54498 -0.071296 0.0117708 2.55993 -0.0731378 0.0774721 
2.56978 -0.0433647 0.122821 2.59118 0.0179316 0.145757 2.63202 0.09597 0.156543 
2.67474 0.18234 0.17106 1.71817 0.209258 -0.99578 1.65768 0.18622 -1.03877 
1.59739 0.164185 -1.08026 1.5382 0.147648 -1.11348 1.48066 0.139452 -1.13416 
1.42147 0.122921 -1.16737 1.36118 0.100885 -1.20886 1.3007 0.077848 -1.25185 
1.2402 0.0547497 -1.29494 1.1797 0.0316517 -1.33802 1.11869 0.00242916 -1.37696 
1.05835 -0.0392576 -1.40771 1.00796 -0.100822 -1.42654 0.983149 -0.178141 -1.43829 
0.968628 -0.27335 -1.43954 0.955406 -0.400034 -1.42081 0.952309 -0.581851 -1.3715 
1.81836 0.0589548 -0.915472 1.82382 -0.21577 -0.913533 1.78095 -0.289746 -0.936275 
1.75888 -0.351683 -0.960256 1.74496 -0.420164 -0.979402 1.72066 -0.491359 -0.995287 
1.6679 -0.57737 -0.99755 1.60575 -0.655961 -1.00351 1.55284 -0.723384 -1.01811 
1.51729 -0.768338 -1.04996 1.46798 -0.799102 -1.08943 1.40941 -0.822392 -1.13251 
1.34923 -0.844442 -1.174 1.28942 -0.867027 -1.20298 1.23087 -0.886313 -1.21369 
1.17149 -0.91146 -1.22431 1.11448 -0.909064 -1.23372 1.05323 -0.873748 -1.25703 
0.0244466 0.634947 0.733078 0.0103885 0.509544 0.890387 0.00585467 0.42193 1.01654 
0.0180385 0.375077 1.11259 0.0603734 0.357243 1.18531 0.117614 0.368395 1.23677 
0.179232 0.403659 1.27148 0.243238 0.462348 1.2881 0.30739 0.527748 1.28816 
0.36988 0.584804 1.27567 0.432683 0.637998 1.28403 0.492918 0.678608 1.31317 
0.542219 0.709312 1.35255 0.575897 0.735944 1.39683 0.624591 0.760598 1.44044 
0.683798 0.790058 1.47947 0.746036 0.831432 1.51003 0.810029 0.890052 1.52656 
0.873338 0.948227 1.52908 0.93306 0.985378 1.51333 0.989684 0.997726 1.50028 
1.046 0.998106 1.49602 1.10705 0.998467 1.50568 0.00812668 0.55293 0.60977 
-0.0202169 0.353254 0.668714 -0.0402834 0.19201 0.710522 -0.0564763 0.0619343 0.732644 
-0.0693168 -0.0355293 0.732715 -0.0802986 -0.114671 0.720354 -0.0900407 -0.181592 0.6997 
-0.100403 -0.254623 0.683192 -0.110765 -0.327662 0.66669 -0.119778 -0.388488 0.641885 
-0.124511 -0.425126 0.600426 -0.116861 -0.438638 0.541946 -0.0943232 -0.454112 0.4828 
-0.0892137 -0.473472 0.428546 -0.106264 -0.514679 0.391757 -0.139047 -0.559997 0.359783 
-0.14957 -0.61444 0.330933 -0.145563 -0.658415 0.293196 2.67306 0.204834 0.336355 
2.62316 0.152241 0.449966 2.59581 0.117152 0.544202 2.56578 0.10062 0.625675 
2.54172 0.0914745 0.701266 2.50125 0.089653 0.771956 2.44918 0.0775265 0.838966 
2.39544 0.0570458 0.893435 2.35317 0.0436282 0.960008 2.3276 0.0398436 1.03003 
2.28671 0.0329143 1.10637 2.23775 0.0271033 1.18318 2.1976 0.0263302 1.25546 
2.17551 0.035554 1.3187 2.1496 0.039088 1.38624 2.13813 0.0159687 1.46959 
1.21212 0.975577 1.48765 1.24168 0.940035 1.43969 1.24851 0.907668 1.39301 
0.8989 -0.873314 -1.34566 0.833567 -0.906088 -1.36401 0.77674 -0.914239 -1.35362 
0.716964 -0.943477 -1.36152 0.6547 -0.993405 -1.36498 0.593749 -1.04272 -1.34086 
0.533262 -1.0927 -1.30441 0.471892 -1.14713 -1.27463 0.409494 -1.20371 -1.26144 
0.349996 -1.23974 -1.24401 0.293451 -1.25195 -1.23074 0.237723 -1.25705 -1.2201 
0.180782 -1.27424 -1.201 0.120334 -1.32702 -1.15543 0.0568427 -1.41605 -1.07106 
-0.117253 -0.594309 0.1139 -0.0720953 -0.526103 -0.00389863 -0.0587161 -0.503227 -0.0873399 
-0.0637841 -0.543169 -0.126352 -0.0810326 -0.66439 -0.106065 -0.119148 -0.870137 -0.00457465 
-0.235025 -0.848469 0.298346 -0.260709 -0.972039 0.313929 -0.248744 -1.05313 0.275638 
-0.210578 -1.38219 -0.942019 -0.155641 -1.3631 -1.01158 -0.102695 -1.37796 -1.02557 
-0.0534006 -1.43513 -0.996532 -0.320042 -1.40934 -0.826276 -0.369281 -1.37342 -0.793943 
-0.414185 -1.31901 -0.760196 -0.447015 -1.24654 -0.73773 -0.462394 -1.17011 -0.720078 
-0.483406 -1.09914 -0.698049 -0.499244 -1.04741 -0.663902 -0.521442 -1.00723 -0.62124 
-0.529244 -0.975127 -0.575102 -0.536947 -0.943041 -0.528969 -0.557734 -0.909231 -0.482251 
-0.561605 -0.877651 -0.43629 -0.546305 -0.854788 -0.387066 -0.515426 -0.846353 -0.330308 
-0.501313 -0.854276 -0.260451 -0.498225 -0.87313 -0.181864 -0.495649 -0.898108 -0.0991359 
-0.481428 -0.928146 -0.0147768 -0.435578 -0.96805 0.0685994 -0.34645 -1.02812 0.139023 
-0.219193 -1.53758 -0.708942 -0.161708 -1.63072 -0.599306 -0.0147353 -1.62583 -0.808435 
-0.0218645 -1.69867 -0.691771 -0.0398335 -1.72451 -0.600165 -0.114778 -1.15568 0.0518656 
-0.0910426 -1.18969 -0.0211645 -0.0835612 -1.24691 -0.0543757 -0.0652658 -1.32657 -0.0704774 
-0.0531459 -1.41494 -0.0797531 -0.0341027 -1.50423 -0.0893386 -0.021363 -1.5865 -0.10276 
-0.002372 -1.65721 -0.124698 0.00165999 -1.70738 -0.158318 -0.00307304 -1.74402 -0.199776 
-0.00851512 -1.76822 -0.249499 -0.0149039 -1.77446 -0.312602 -0.0346678 -1.75244 -0.402249 

LINES 29 381
6 28 29 30 31 32 21 
7 27 82 83 84 85 86 26 
5 26 87 88 89 25 
4 23 90 91 22 
3 20 92 18 
7 19 93 94 95 96 97 17 
8 18 98 99 100 101 102 103 17 
26 18 104 105 106 107 108 109 110 111 112 113 114 115 116 117 118 119 120 121 122 123 124 125 126 127 10 
6 17 128 129 130 131 15 
5 16 132 133 134 12 
4 15 135 136 14 
4 15 137 138 13 
6 14 139 140 141 142 11 
19 14 143 144 145 146 147 148 149 150 151 152 153 154 155 156 157 158 159 9 
19 13 160 161 162 163 164 165 166 167 168 169 170 171 172 173 174 175 176 6 
3 13 177 11 
19 11 178 179 180 181 182 183 184 185 186 187 188 189 190 191 192 193 194 6 
20 10 218 219 220 221 222 223 224 225 226 227 228 229 230 231 232 233 234 235 4 
18 9 236 237 238 239 240 241 242 243 244 245 246 247 248 249 250 251 5 
17 6 255 256 257 258 259 260 261 262 263 264 265 266 267 268 269 2 
8 4 270 271 272 273 274 275 0 
5 4 276 277 278 0 
6 3 279 280 281 282 2 
22 3 283 284 285 286 287 288 289 290 291 292 293 294 295 296 297 298 299 300 301 302 0 
4 3 303 304 1 
5 2 305 306 307 1 
15 0 308 309 310 311 312 313 314 315 316 317 318 319 320 1 
52 26 38 37 36 35 34 33 24 39 40 41 42 43 44 45 46 47 48 49 50 51 52 53 54 55 56 57 58 59 60 61 62 63 64 65 66 67 68 69 70 71 72 73 74 75 76 77 78 79 80 81 9 
29 10 195 196 197 198 199 200 201 202 203 204 205 206 207 208 209 210 211 212 213 214 215 216 217 8 252 253 254 7 

POINT_DATA 321
SCALARS DY_raw double
LOOKUP_TABLE default
159.468 140.683 159.507 187.702 149.185 154.919 131.908 137.359 102.217 
142.64 101.425 119.273 247.495 134.208 114.527 113.351 202.434 131.882 
153.386 225.271 136.209 368.318 201.422 137.38 126.836 138.671 133.6 
117.76 153.714 153.714 189.983 227.404 232.443 135.296 132.501 133.089 
138.189 125.112 122.908 125.46 135.267 137.48 134.082 132.971 128.763 
140.936 155.255 155.734 160.122 156.1 145.151 131.561 131.561 128.934 
124.45 124.45 120.229 116.449 118.101 147.9 147.713 148.086 155.878 
165.263 154.273 146.386 135.1 162.856 181.126 194.133 207.601 222.733 
197.294 236.848 236.848 223.909 157.34 164.834 130.686 127.427 109.831 
116.391 133.399 137.586 138.623 138.623 127.353 126.491 131.145 131.145 
148.445 148.445 173.559 188.225 167.79 144.041 120.636 123.873 165.555 
152.865 164.673 142.763 151.919 147.728 166.684 161.442 154.947 170.936 
159.169 166.181 174.7 168.978 172.349 174.099 168.854 143.529 127.013 
140.789 139.177 136.036 138.903 133.902 113.306 113.306 107.254 97.5561 
93.9759 95.6133 134.668 135.345 119.62 113.79 192.944 185.253 177.643 
108.175 109.45 110.548 132.099 121.543 124.731 120.4 112.766 114.359 
109.521 98.6171 106.016 117.65 114.052 112.607 119.096 115.233 122.994 
118.383 128.144 136.826 134.153 131.322 140.197 150.581 144.029 146.902 
145.611 144.007 155.69 161.579 143.664 133.136 127.019 123.279 123.279 
116.739 122.943 126.344 132.84 140.488 136.623 119.811 127.848 130.532 
126.879 133.958 119.408 125.898 136.23 141.736 135.775 136.605 137.538 
131.03 130.521 152.251 152.111 149.341 133.323 101.876 105.554 116.768 
122.808 122.359 129.679 127.545 121.945 122.951 119.214 113.253 109.317 
100.455 97.4926 99.5123 100.899 97.8225 102.984 110.665 105.297 115.804 
113.572 106.04 116.732 125.857 128.67 146.084 146.162 146.921 136.252 
134.177 136.562 122.031 122.031 125.273 134.351 137.682 135.3 136.012 
136.012 140.869 154.476 156.17 164.818 165.237 183.77 186.592 168.169 
164.083 146.824 131.789 138.006 132.668 139.42 141.005 137.619 138.941 
102.004 112.03 126.512 137.407 142.354 143.335 146.695 151.424 134.84 
146.353 152.036 136.873 129.713 129.713 132.107 123.21 139.681 164.509 
129.357 132.902 127.524 133.513 143.402 152.043 158.408 157.261 157.145 
147.651 156.374 156.374 154.519 188.379 179.082 172.293 167.413 155.708 
146.957 135.449 127.304 127.304 123.545 123.545 122.363 128.998 132.404 
131.786 129.975 135.256 148.209 174.3 177.66 177.061 149.73 158.222 
147.837 140.012 144.028 143.881 128.662 139.051 130.168 136.652 139.425 
143.784 141.113 141.113 143.376 138.434 135.673 
FIELD FieldData 7
DY_minmax 1 321 double
0.238725 0.17025 0.238865 0.341639 0.201241 0.222142 0.138267 0.158134 0.0300413 
0.177384 0.0271542 0.0922115 0.559589 0.14665 0.0749099 0.0706244 0.39534 0.138171 
0.216553 0.478581 0.153943 1 0.39165 0.158213 0.119779 0.162917 0.144431 
0.086696 0.21775 0.21775 0.349952 0.486358 0.504723 0.150616 0.140426 0.142571 
0.161159 0.113494 0.105459 0.114762 0.150508 0.158576 0.14619 0.142142 0.126803 
0.171172 0.223366 0.225114 0.241109 0.226447 0.186536 0.137 0.137 0.127425 
0.111081 0.111081 0.0956938 0.0819169 0.0879383 0.196557 0.195877 0.197234 0.225638 
0.259846 0.219787 0.19104 0.1499 0.251072 0.317668 0.365081 0.414174 0.469328 
0.376604 0.520781 0.520781 0.473617 0.230967 0.258282 0.133811 0.121932 0.0577942 
0.081705 0.143702 0.158963 0.162741 0.162741 0.121662 0.118518 0.135484 0.135484 
0.198544 0.198544 0.290086 0.343547 0.269056 0.182492 0.0971776 0.108979 0.260911 
0.214657 0.257696 0.177831 0.211206 0.195929 0.265025 0.245918 0.222246 0.280526 
0.237634 0.263195 0.294247 0.273389 0.285675 0.292054 0.272937 0.180624 0.120421 
0.170636 0.16476 0.153314 0.163763 0.145535 0.0704598 0.0704598 0.0484015 0.0130501 
0 0.00596841 0.148324 0.150793 0.0934765 0.0722225 0.360745 0.332712 0.304972 
0.0517586 0.0564059 0.0604071 0.138961 0.100485 0.112104 0.0963177 0.0684925 0.0742983 
0.0566624 0.0169175 0.0438857 0.0862925 0.0731779 0.0679121 0.0915637 0.077484 0.105774 
0.0889674 0.124547 0.15619 0.14645 0.13613 0.168479 0.206328 0.182448 0.192919 
0.188215 0.182366 0.224954 0.246417 0.181117 0.14274 0.120443 0.106812 0.106812 
0.0829725 0.105589 0.117985 0.141662 0.169541 0.155453 0.0941694 0.123468 0.133249 
0.119934 0.145739 0.0927022 0.116359 0.15402 0.174089 0.152362 0.155385 0.158787 
0.135064 0.133211 0.212416 0.211907 0.201809 0.143422 0.0287979 0.0422047 0.0830778 
0.105097 0.103457 0.13014 0.122361 0.101951 0.105616 0.0919932 0.0702674 0.055921 
0.0236159 0.0128188 0.0201806 0.025234 0.0140214 0.0328366 0.0608329 0.0412671 0.0795668 
0.0714289 0.043974 0.0829462 0.11621 0.126464 0.189937 0.190221 0.192988 0.154101 
0.146536 0.155229 0.102264 0.102264 0.114082 0.147171 0.159312 0.15063 0.153225 
0.153225 0.17093 0.220527 0.226703 0.258224 0.25975 0.327305 0.337593 0.27044 
0.255544 0.192636 0.13783 0.160491 0.141036 0.165649 0.171426 0.159083 0.163901 
0.0292629 0.0658103 0.118597 0.158311 0.176343 0.179916 0.192167 0.209402 0.148953 
0.190919 0.211632 0.156363 0.130263 0.130263 0.138992 0.106562 0.166598 0.257098 
0.128967 0.14189 0.122286 0.144117 0.180162 0.211661 0.234859 0.230678 0.230255 
0.195651 0.227445 0.227445 0.220683 0.344107 0.31022 0.285472 0.267684 0.225017 
0.193121 0.151174 0.121484 0.121484 0.107782 0.107782 0.103474 0.127658 0.140072 
0.137819 0.13122 0.150468 0.197684 0.292788 0.305034 0.302853 0.203227 0.234182 
0.196328 0.167807 0.182442 0.181907 0.126435 0.164303 0.131922 0.155556 0.165665 
0.181555 0.171819 0.171819 0.180067 0.162054 0.151991 
WidthEq 1 321 double
7.3287 8.09804 6.07401 5.83539 7.22764 4.48689 7.20845 4.35411 7.36738 
5.5182 10.6045 6.32501 1 6.74239 7.99171 8.15444 1.27303 5.88234 
6.01005 1.75955 4.33132 1.47358 1.39292 2.39667 6.92857 4.72424 6.43449 
4.54283 4.30797 4.30797 3.60446 2.9347 2.79822 6.11218 5.94944 5.76316 
5.68205 6.32292 6.77259 7.51128 7.21378 7.22262 7.52722 7.23693 6.9406 
6.85685 5.41694 4.98468 4.85357 4.7985 5.28192 5.80549 5.80549 6.38602 
6.72249 6.72249 6.98456 6.76686 6.27882 4.87448 4.67612 4.2829 3.94606 
3.82394 3.89987 4.18437 4.16295 3.83785 3.36874 3.27803 2.6803 2.45301 
2.48915 2.0846 2.0846 1.9401 2.23475 2.25018 2.64401 3.5 4.29472 
5.39943 4.16752 5.55561 5.9096 5.9096 6.63514 6.45388 5.66728 5.66728 
2.09333 2.09333 4.91306 2.37601 2.69132 3.47828 4.46248 5.24685 5.77062 
6.0636 5.72332 5.94452 5.68525 5.54307 5.54718 5.44826 5.31629 4.99301 
5.20193 4.99072 4.80946 4.92788 5.18167 5.18289 5.39303 6.01959 6.83244 
7.01552 7.35149 7.60168 7.50635 7.60625 8.31884 8.31884 8.798 9.69663 
10.5275 10.5855 6.14821 6.48703 7.30063 7.82009 1.36592 1.29491 1.38607 
8.53553 8.72674 8.24098 6.9876 7.49869 6.90091 6.43211 6.57063 8.32514 
8.39544 8.36371 8.22733 7.86628 7.86577 7.57737 6.89441 6.67894 6.39287 
6.31968 6.02325 5.72433 5.75255 5.74453 5.51328 5.54338 6.18232 5.43435 
5.74499 5.68352 5.29304 5.30451 5.73793 5.86346 6.57829 7.42012 7.42012 
7.97734 7.72847 7.61488 6.81117 6.6055 6.87076 7.07755 5.86214 5.49663 
5.4044 5.33826 5.52429 5.62769 5.34166 5.04118 5.03402 4.95514 4.7548 
5.01661 4.95088 5.35121 5.7056 6.03543 6.83234 11.4435 11.0434 9.78246 
7.48316 7.80375 6.86878 6.58047 6.63407 7.05506 7.08288 6.8402 7.11739 
7.38636 7.38717 7.25343 6.52372 6.70996 5.97183 5.84788 6.00173 6.29704 
6.78315 7.18612 10.2465 9.43431 8.83409 7.6731 7.48778 7.61503 8.07439 
8.10799 8.05998 8.79582 8.79582 8.49036 7.94861 7.73213 7.94186 8.07388 
8.07388 8.03805 5.61302 5.52099 5.15767 5.22248 4.912 4.80581 5.07534 
5.17492 5.67423 6.33663 6.19385 6.66275 7.2248 7.05466 6.56555 5.5249 
7.2783 6.59022 5.55556 6.72006 5.99051 5.73494 5.42877 5.44059 5.73002 
5.66428 5.7058 6.03563 6.30343 6.30343 6.13989 6.47149 6.26618 6.21009 
7.87801 7.51473 6.9337 7.15018 7.38403 7.42935 7.38382 7.61427 7.68518 
7.28144 6.96035 6.96035 6.70874 5.77286 6.13385 6.11989 6.33896 6.58956 
6.60311 6.41373 6.77335 6.77335 6.75782 6.75782 6.83315 6.62844 6.56753 
6.26582 6.77818 6.62697 6.26227 5.86681 6.21202 6.76209 7.72736 6.96537 
7.71279 7.99475 7.67975 7.5966 8.2891 7.37926 7.7001 6.71529 6.61392 
6.49692 6.42673 6.42673 6.75772 7.34454 7.73294 
rRFP 1 321 double
3634.68 3786.25 3387.49 3340.48 3614.77 3074.81 3610.99 3048.65 3642.3 
3277.99 4280.05 3436.94 2387.85 3519.17 3765.3 3797.36 2441.64 3349.73 
3374.89 2537.49 3044.16 2481.15 2465.26 2663.01 3555.85 3121.57 3458.51 
3085.83 3039.56 3039.56 2900.96 2769.01 2742.12 3395.01 3362.95 3326.25 
3310.27 3436.53 3525.12 3670.65 3612.04 3613.78 3673.79 3616.6 3558.22 
3541.72 3258.04 3172.88 3147.05 3136.2 3231.44 3334.59 3334.59 3448.96 
3515.25 3515.25 3566.88 3523.99 3427.84 3151.17 3112.09 3034.62 2968.26 
2944.2 2959.16 3015.21 3010.99 2946.94 2854.52 2836.65 2718.89 2674.11 
2681.23 2601.53 2601.53 2573.06 2631.11 2634.15 2711.74 2880.38 3036.95 
3254.59 3011.89 3285.36 3355.1 3355.1 3498.04 3462.33 3307.36 3307.36 
2603.25 2603.25 3158.77 2658.94 2721.06 2876.1 3070 3224.53 3327.72 
3385.44 3318.4 3361.98 3310.9 3282.89 3283.7 3264.21 3238.21 3174.52 
3215.68 3174.07 3138.36 3161.69 3211.69 3211.93 3253.33 3376.77 3536.91 
3572.98 3639.17 3688.46 3669.68 3689.36 3829.75 3829.75 3924.15 4101.19 
4264.89 4276.31 3402.11 3468.86 3629.15 3731.49 2459.94 2445.95 2463.91 
3872.44 3910.11 3814.41 3567.48 3668.17 3550.4 3458.04 3485.33 3830.99 
3844.84 3838.59 3811.72 3740.59 3740.49 3683.67 3549.12 3506.67 3450.31 
3435.89 3377.49 3318.6 3324.16 3322.58 3277.02 3282.95 3408.83 3261.47 
3322.67 3310.56 3233.63 3235.89 3321.28 3346.01 3486.84 3652.69 3652.69 
3762.47 3713.44 3691.06 3532.72 3492.2 3544.46 3585.2 3345.75 3273.74 
3255.57 3242.54 3279.19 3299.56 3243.21 3184.01 3182.6 3167.06 3127.59 
3179.17 3166.22 3245.09 3314.91 3379.89 3536.89 4445.35 4366.53 4118.1 
3665.11 3728.27 3544.07 3487.27 3497.83 3580.77 3586.25 3538.44 3593.05 
3646.04 3646.2 3619.85 3476.09 3512.78 3367.36 3342.94 3373.25 3431.43 
3527.2 3606.59 4209.53 4049.51 3931.26 3702.53 3666.02 3691.09 3781.59 
3788.21 3778.75 3923.72 3923.72 3863.54 3756.81 3714.16 3755.48 3781.49 
3781.49 3774.43 3296.67 3278.54 3206.96 3219.73 3158.56 3137.64 3190.74 
3210.36 3308.73 3439.23 3411.1 3503.48 3614.21 3580.69 3484.33 3279.31 
3624.75 3489.19 3285.35 3514.77 3371.04 3320.69 3260.37 3262.7 3319.72 
3306.77 3314.95 3379.93 3432.69 3432.69 3400.47 3465.8 3425.35 3414.3 
3742.9 3671.33 3556.86 3599.51 3645.58 3654.51 3645.54 3690.94 3704.91 
3625.37 3562.11 3562.11 3512.54 3328.16 3399.28 3396.53 3439.69 3489.06 
3491.73 3454.42 3525.27 3525.27 3522.21 3522.21 3537.05 3496.72 3484.72 
3425.28 3526.22 3496.43 3424.58 3346.67 3414.68 3523.05 3713.22 3563.1 
3710.35 3765.9 3703.84 3687.46 3823.89 3644.64 3707.85 3513.83 3493.86 
3470.81 3456.98 3456.98 3522.19 3637.8 3714.32 
rGFP 1 321 double
3419.27 3389.83 3219.42 3345.89 3328.83 2945.68 3201.43 2848.65 3003.65 
3037.69 3326.14 3004.98 2498.07 3155.46 3165.84 3174.89 2508.28 3026.35 
3172.43 2646.95 2840.54 2793.32 2531.14 2579.83 3129.37 2905.69 3110.22 
2785.54 2912.77 2912.77 2935.36 2917.94 2901 3077.53 3038.88 3017.59 
3035.77 3041.65 3082.98 3192.94 3226.36 3243.54 3259.84 3212.88 3144.27 
3216.95 3091.58 3026.86 3027.74 2999.62 3017.25 3014.35 3014.35 3073.95 
3087.19 3087.19 3090.32 3038.57 2992.11 2971.51 2941.3 2884.81 2865.68 
2882.53 2852.22 2863.11 2812.99 2875.59 2860.74 2886.95 2807.01 2796.94 
2741.67 2744.31 2744.31 2684.98 2602.19 2621.48 2596.11 2696.57 2722.27 
2879.02 2806.52 3014.95 3069.78 3069.78 3095.58 3066.93 2993.81 2993.81 
2561.32 2561.32 3103.28 2697.8 2702.15 2751.59 2788.91 2900.52 3205.93 
3177.49 3193.05 3099.23 3114.27 3069.44 3175.2 3130.15 3074.32 3104.06 
3078.56 3079.94 3090.79 3083.28 3143.63 3152.91 3161.21 3114.56 3118.38 
3238.28 3273.73 3284.68 3293.23 3269.07 3193.15 3193.15 3194.2 3196.54 
3239.91 3262.69 3078.54 3128.56 3123.88 3140.42 2514.12 2490.46 2496.8 
3173.91 3205.72 3161.6 3173.63 3161.99 3111.33 3025 2991.52 3202.63 
3170.05 3075.38 3122.8 3176.04 3147.68 3103.84 3071.67 3020.21 3036.86 
2998.72 3022.42 3033.81 3022.3 3004.96 3023.52 3085.3 3141.01 3048.89 
3087.11 3069.04 3074.65 3107.67 3074.91 3031.21 3086.14 3165.32 3165.32 
3181.84 3200.74 3212.67 3155.37 3178.57 3189.28 3098.54 3000.04 2968.06 
2936.28 2965.68 2910.22 2959.09 2978.27 2965.09 2934.07 2927.47 2904.54 
2907.9 2896.77 3065.3 3118.46 3151.91 3161.48 3416.4 3416.26 3392.85 
3169.57 3205.43 3141.31 3089.88 3059.57 3118 3094.95 3025.25 3028.63 
2992.57 2970.77 2972.38 2908.81 2906.96 2865.58 2897.73 2882.54 2979.8 
3020.95 3012.59 3446.67 3437.95 3387.26 3371.49 3345 3369.38 3350.73 
3338.48 3351.26 3323.94 3323.94 3314.19 3318.48 3315.15 3325.11 3348.72 
3348.72 3382.89 3117.65 3112.79 3100.65 3113.52 3153.25 3147.3 3104.09 
3099.69 3083.69 3085.67 3105.36 3134.51 3257.86 3245.32 3154.12 3018.21 
2992.99 2988.88 2953.42 3173.96 3103.35 3072.59 3046.95 3074.41 3023.21 
3079.56 3118.06 3076.69 3068.21 3068.21 3061.7 3047.93 3125.84 3272.19 
3269.65 3249.3 3134.79 3205.22 3309.46 3380.16 3420.23 3448 3458.26 
3325.69 3338.99 3338.99 3287.2 3338.06 3349.04 3304.99 3311.8 3276.62 
3220.95 3119.31 3112.85 3112.85 3085.47 3085.47 3086.7 3105.63 3120.14 
3076.32 3131.57 3146.91 3178.7 3273.16 3354.2 3447.88 3407.59 3352.65 
3390.81 3369.94 3356.67 3343.58 3317.07 3276.67 3252.88 3168.23 3172.72 
3184.73 3157.47 3157.47 3219.47 3267.31 3299.73 
bkstRFP 1 321 double
1443.84 1595.41 1196.65 1149.64 1423.93 883.972 1420.15 857.812 1451.46 
1087.15 2089.21 1246.1 197.012 1328.33 1574.46 1606.52 250.802 1158.89 
1184.05 346.652 853.322 290.312 274.422 472.172 1365.01 930.732 1267.67 
894.992 848.722 848.722 710.122 578.172 551.282 1204.17 1172.11 1135.41 
1119.43 1245.69 1334.28 1479.81 1421.2 1422.94 1482.95 1425.76 1367.38 
1350.88 1067.2 982.042 956.212 945.362 1040.6 1143.75 1143.75 1258.12 
1324.41 1324.41 1376.04 1333.15 1237 960.332 921.252 843.782 777.422 
753.362 768.322 824.372 820.152 756.102 663.682 645.812 528.052 483.272 
490.392 410.692 410.692 382.222 440.272 443.312 520.902 689.542 846.112 
1063.75 821.052 1094.52 1164.26 1164.26 1307.2 1271.49 1116.52 1116.52 
412.412 412.412 967.932 468.102 530.222 685.262 879.162 1033.69 1136.88 
1194.6 1127.56 1171.14 1120.06 1092.05 1092.86 1073.37 1047.37 983.682 
1024.84 983.232 947.522 970.852 1020.85 1021.09 1062.49 1185.93 1346.07 
1382.14 1448.33 1497.62 1478.84 1498.52 1638.91 1638.91 1733.31 1910.35 
2074.05 2085.47 1211.27 1278.02 1438.31 1540.65 269.102 255.112 273.072 
1681.6 1719.27 1623.57 1376.64 1477.33 1359.56 1267.2 1294.49 1640.15 
1654 1647.75 1620.88 1549.75 1549.65 1492.83 1358.28 1315.83 1259.47 
1245.05 1186.65 1127.76 1133.32 1131.74 1086.18 1092.11 1217.99 1070.63 
1131.83 1119.72 1042.79 1045.05 1130.44 1155.17 1296 1461.85 1461.85 
1571.63 1522.6 1500.22 1341.88 1301.36 1353.62 1394.36 1154.91 1082.9 
1064.73 1051.7 1088.35 1108.72 1052.37 993.172 991.762 976.222 936.752 
988.332 975.382 1054.25 1124.07 1189.05 1346.05 2254.51 2175.69 1927.26 
1474.27 1537.43 1353.23 1296.43 1306.99 1389.93 1395.41 1347.6 1402.21 
1455.2 1455.36 1429.01 1285.25 1321.94 1176.52 1152.1 1182.41 1240.59 
1336.36 1415.75 2018.69 1858.67 1740.42 1511.69 1475.18 1500.25 1590.75 
1597.37 1587.91 1732.88 1732.88 1672.7 1565.97 1523.32 1564.64 1590.65 
1590.65 1583.59 1105.83 1087.7 1016.12 1028.89 967.722 946.802 999.902 
1019.52 1117.89 1248.39 1220.26 1312.64 1423.37 1389.85 1293.49 1088.47 
1433.91 1298.35 1094.51 1323.93 1180.2 1129.85 1069.53 1071.86 1128.88 
1115.93 1124.11 1189.09 1241.85 1241.85 1209.63 1274.96 1234.51 1223.46 
1552.06 1480.49 1366.02 1408.67 1454.74 1463.67 1454.7 1500.1 1514.07 
1434.53 1371.27 1371.27 1321.7 1137.32 1208.44 1205.69 1248.85 1298.22 
1300.89 1263.58 1334.43 1334.43 1331.37 1331.37 1346.21 1305.88 1293.88 
1234.44 1335.38 1305.59 1233.74 1155.83 1223.84 1332.21 1522.38 1372.26 
1519.51 1575.06 1513 1496.62 1633.05 1453.8 1517.01 1322.99 1303.02 
1279.97 1266.14 1266.14 1331.35 1446.96 1523.48 
bkstGFP 1 321 double
1168.7 1139.26 968.845 1095.32 1078.26 695.105 950.855 598.075 753.075 
787.115 1075.57 754.405 247.495 904.885 915.265 924.315 257.705 775.775 
921.855 396.375 589.965 542.745 280.565 329.255 878.795 655.115 859.645 
534.965 662.195 662.195 684.785 667.365 650.425 826.955 788.305 767.015 
785.195 791.075 832.405 942.365 975.785 992.965 1009.27 962.305 893.695 
966.375 841.005 776.285 777.165 749.045 766.675 763.775 763.775 823.375 
836.615 836.615 839.745 787.995 741.535 720.935 690.725 634.235 615.105 
631.955 601.645 612.535 562.415 625.015 610.165 636.375 556.435 546.365 
491.095 493.735 493.735 434.405 351.615 370.905 345.535 445.995 471.695 
628.445 555.945 764.375 819.205 819.205 845.005 816.355 743.235 743.235 
310.745 310.745 852.705 447.225 451.575 501.015 538.335 649.945 955.355 
926.915 942.475 848.655 863.695 818.865 924.625 879.575 823.745 853.485 
827.985 829.365 840.215 832.705 893.055 902.335 910.635 863.985 867.805 
987.705 1023.16 1034.11 1042.66 1018.5 942.575 942.575 943.625 945.965 
989.335 1012.12 827.965 877.985 873.305 889.845 263.545 239.885 246.225 
923.335 955.145 911.025 923.055 911.415 860.755 774.425 740.945 952.055 
919.475 824.805 872.225 925.465 897.105 853.265 821.095 769.635 786.285 
748.145 771.845 783.235 771.725 754.385 772.945 834.725 890.435 798.315 
836.535 818.465 824.075 857.095 824.335 780.635 835.565 914.745 914.745 
931.265 950.165 962.095 904.795 927.995 938.705 847.965 749.465 717.485 
685.705 715.105 659.645 708.515 727.695 714.515 683.495 676.895 653.965 
657.325 646.195 814.725 867.885 901.335 910.905 1165.83 1165.69 1142.28 
918.995 954.855 890.735 839.305 808.995 867.425 844.375 774.675 778.055 
741.995 720.195 721.805 658.235 656.385 615.005 647.155 631.965 729.225 
770.375 762.015 1196.1 1187.38 1136.69 1120.92 1094.43 1118.81 1100.16 
1087.91 1100.69 1073.37 1073.37 1063.62 1067.91 1064.58 1074.54 1098.15 
1098.15 1132.32 867.075 862.215 850.075 862.945 902.675 896.725 853.515 
849.115 833.115 835.095 854.785 883.935 1007.29 994.745 903.545 767.635 
742.415 738.305 702.845 923.385 852.775 822.015 796.375 823.835 772.635 
828.985 867.485 826.115 817.635 817.635 811.125 797.355 875.265 1021.62 
1019.08 998.725 884.215 954.645 1058.89 1129.59 1169.66 1197.43 1207.69 
1075.12 1088.42 1088.42 1036.63 1087.49 1098.47 1054.42 1061.23 1026.05 
970.375 868.735 862.275 862.275 834.895 834.895 836.125 855.055 869.565 
825.745 880.995 896.335 928.125 1022.59 1103.63 1197.31 1157.02 1102.08 
1140.24 1119.37 1106.1 1093.01 1066.5 1026.1 1002.31 917.655 922.145 
934.155 906.895 906.895 968.895 1016.74 1049.16 
tubeWidth 1 321 double
0.121075 0.246898 0.167594 0.218908 0.105708 0.212603 0.236298 0.0672373 0.368144 
0.253154 0.286182 0.183564 0.11626 0.152417 0.126634 0.294009 0.109192 0.183267 
0.205188 0.0651671 0.135336 0.0247693 0.0401303 0.0620221 0.118915 0.1959 0.331551 
0.209211 0.200023 0.200471 0.161486 0.169851 0.101324 0.0980856 0.0742497 0.0875335 
0.159403 0.218378 0.277372 0.202511 0.179133 0.213818 0.210708 0.109651 0.132364 
0.216208 0.188354 0.221646 0.212729 0.175658 0.184781 0.215255 0.229207 0.247079 
0.25949 0.282906 0.32103 0.308342 0.282767 0.258784 0.248221 0.228446 0.213466 
0.256124 0.209598 0.209281 0.223875 0.246954 0.239777 0.186592 0.153478 0.136055 
0.159274 0.17019 0.190255 0.19435 0.125825 0.12322 0.169961 0.154438 0.176352 
0.166497 0.293039 0.302898 0.348073 0.339578 0.324063 0.335672 0.269509 0.226686 
0.121876 0.133281 0.176147 0.0762013 0.0996254 0.140865 0.202677 0.123197 0.253418 
0.242124 0.220928 0.183128 0.210859 0.196367 0.199091 0.206522 0.223472 0.251837 
0.265055 0.235465 0.25306 0.258509 0.241866 0.25179 0.243681 0.248011 0.283255 
0.302475 0.327979 0.320678 0.284155 0.263597 0.246696 0.272992 0.295051 0.29567 
0.268346 0.251666 0.286246 0.238596 0.307427 0.317731 0.118929 0.116057 0.113247 