# vtk DataFile Version 3.0
vtk output
ASCII
DATASET POLYDATA
POINTS 331 float
0.645057 -0.576213 0.997288 0.98235 0.602983 1.09376 1.66966 0.41635 0.840074 
1.13636 0.925417 0.809327 0.385865 -0.924577 0.315462 1.59171 0.687621 0.583697 
2.12942 0.55756 0.516223 1.34837 1.05846 0.515319 1.8655 1.49638 0.567235 
2.69973 0.226777 0.298836 -0.557656 0.653545 -0.283054 2.88773 0.434043 0.0761083 
-0.0897325 -0.627625 -0.767908 2.95437 -0.0536324 -0.29952 1.55067 1.65033 -0.277633 
3.17394 0.0676413 -0.525812 0.029018 -0.5019 -1.25465 -0.0667089 -0.12921 -1.09762 
3.34471 0.233072 -0.552017 2.70023 -0.679416 -0.939619 3.03203 -0.0600533 -0.96566 
4.58964 0.814282 -0.715911 4.26189 0.202567 -1.0271 1.01515 -0.0687544 -1.74242 
4.31124 0.0151577 -1.44407 4.31238 0.0583223 -1.34193 4.31061 0.101356 -1.23271 
4.29762 0.14789 -1.12484 1.07657 -0.0806503 -1.8021 1.13411 -0.102639 -1.85579 
1.18522 -0.140444 -1.89693 1.23731 -0.165949 -1.91416 1.29109 -0.182767 -1.92278 
1.34598 -0.198777 -1.93868 1.40189 -0.220339 -1.97753 1.45638 -0.246699 -2.01706 
1.5177 -0.243939 -2.03771 1.57602 -0.239401 -2.02854 1.63629 -0.228219 -2.01844 
1.69295 -0.232263 -2.01787 1.74947 -0.24277 -2.033 1.8072 -0.246216 -2.03974 
1.86808 -0.235965 -2.03716 1.92413 -0.239078 -2.02907 1.98022 -0.242095 -2.02096 
2.04058 -0.230609 -2.01082 2.09998 -0.222392 -2.00114 2.16366 -0.199672 -1.98941 
2.22735 -0.176952 -1.97769 2.28678 -0.168641 -1.96799 2.34769 -0.155311 -1.95759 
2.40711 -0.146999 -1.94789 2.46971 -0.124982 -1.92887 2.53014 -0.104276 -1.89526 
2.58354 -0.0984348 -1.84156 2.63961 -0.0805418 -1.77877 2.69677 -0.0619458 -1.72328 
2.75235 -0.054698 -1.68417 2.81169 -0.0346955 -1.64326 2.86773 -0.0168973 -1.58049 
2.91481 -0.0166329 -1.48814 2.95705 -0.0169951 -1.35144 2.99316 -0.0349962 -1.17472 
4.23053 0.262343 -1.09375 4.19157 0.299365 -1.1562 4.15042 0.334981 -1.20407 
4.11142 0.389835 -1.21967 4.06799 0.441676 -1.20612 4.01153 0.464369 -1.15972 
3.94565 0.464127 -1.09436 3.87227 0.444508 -1.01696 3.80247 0.430999 -0.953463 
3.73395 0.412851 -0.912804 3.67013 0.401622 -0.893345 3.60044 0.373552 -0.86886 
3.52246 0.332367 -0.809269 3.43633 0.284529 -0.698864 4.31763 0.232863 -0.948116 
4.36445 0.268033 -0.885051 4.39278 0.314193 -0.861316 4.42703 0.365815 -0.888825 
4.47991 0.415795 -0.943808 4.5256 0.465931 -0.9848 4.57074 0.511022 -0.988748 
4.59541 0.558327 -0.965442 4.6105 0.608623 -0.94329 4.62375 0.65949 -0.921348 
4.63289 0.709555 -0.885057 4.62537 0.759604 -0.813649 3.08243 -0.00278972 -0.867323 
3.1299 0.0350704 -0.72114 2.98587 -0.0545542 -0.633467 2.63652 -0.702231 -0.951356 
2.57655 -0.712386 -0.961313 2.51229 -0.737045 -0.973309 2.44523 -0.771199 -0.986641 
2.37769 -0.806978 -1.0002 2.31063 -0.841132 -1.01353 2.24637 -0.865791 -1.02553 
2.18746 -0.875338 -1.04279 2.12542 -0.898486 -1.06936 2.0633 -0.927889 -1.11159 
2.00401 -0.947692 -1.15247 1.95336 -0.941263 -1.19705 1.90336 -0.926641 -1.2257 
1.84891 -0.921086 -1.24084 1.78584 -0.932742 -1.22883 1.72542 -0.932443 -1.20775 
1.66609 -0.93144 -1.19396 1.60409 -0.942488 -1.18926 1.54585 -0.940783 -1.18276 
1.48656 -0.939675 -1.16896 1.42512 -0.948784 -1.16399 1.3719 -0.933107 -1.16292 
1.32734 -0.891094 -1.16554 1.28075 -0.852948 -1.16131 1.23455 -0.810497 -1.14909 
1.18143 -0.785485 -1.12454 1.12707 -0.767641 -1.10838 1.0761 -0.741329 -1.09842 
1.03373 -0.697899 -1.11563 0.987128 -0.668774 -1.13484 0.938234 -0.647413 -1.15516 
0.888357 -0.620397 -1.15249 0.843795 -0.578383 -1.15511 0.796044 -0.550161 -1.16706 
0.747156 -0.531766 -1.19518 0.693859 -0.525308 -1.21758 0.635189 -0.534048 -1.23473 
0.57968 -0.529091 -1.24256 0.526946 -0.514745 -1.24907 0.474211 -0.500398 -1.25558 
0.418702 -0.495442 -1.26341 0.358969 -0.50479 -1.27326 0.303971 -0.498103 -1.28084 
0.253602 -0.474504 -1.2836 0.202153 -0.447045 -1.27862 0.128484 -0.462191 -1.26854 
-0.00287317 -0.421006 -1.25413 -0.0200743 -0.356888 -1.22796 -0.0501967 -0.295599 -1.18392 
-0.0780403 -0.235686 -1.13968 -0.0790188 -0.181417 -1.11202 3.28803 0.190449 -0.552067 
3.24043 0.135492 -0.541922 3.29814 0.295198 -0.485281 3.25211 0.356193 -0.426097 
3.20385 0.406657 -0.37579 3.14805 0.432786 -0.32645 3.08429 0.451484 -0.241395 
3.004 0.464816 -0.101657 -0.0314896 -0.567643 -1.0017 3.0704 0.00401078 -0.404494 
1.48286 1.59979 -0.187325 1.43934 1.54375 -0.108954 1.39864 1.48788 -0.0376723 
1.34542 1.43592 0.0321214 1.30568 1.3787 0.110934 1.27836 1.31877 0.183838 
1.26535 1.25692 0.25367 1.28134 1.19571 0.327907 1.31374 1.13939 0.417615 
2.88412 0.0134458 -0.135527 2.82023 0.0614074 0.0150212 2.76793 0.0910964 0.137967 
2.73837 0.141793 0.231227 -0.167091 -0.627883 -0.556306 -0.24328 -0.599658 -0.356826 
-0.317097 -0.576038 -0.16998 -0.383429 -0.535726 0.00455392 -0.442525 -0.483065 0.151265 
-0.495683 -0.425262 0.261739 -0.540587 -0.363459 0.313641 -0.578472 -0.304824 0.298581 
-0.611875 -0.254961 0.223143 -0.63874 -0.189335 0.135161 -0.663257 -0.11615 0.0633126 
-0.681053 -0.0463064 0.0147173 -0.684364 0.0191297 -0.0321344 -0.700193 0.0884749 -0.0804935 
-0.715285 0.156544 -0.121329 -0.708622 0.215735 -0.14472 -0.690749 0.271425 -0.166771 
-0.668862 0.327949 -0.203184 -0.644687 0.385849 -0.254174 -0.619525 0.444483 -0.312473 
-0.597077 0.502921 -0.36367 -0.586649 0.560936 -0.386611 -0.587115 0.615044 -0.358894 
2.83664 0.352633 0.1509 2.78232 0.285595 0.226582 2.83286 0.512705 0.14068 
2.78543 0.582097 0.192945 2.74204 0.647424 0.235379 2.69634 0.708694 0.29213 
2.64479 0.756953 0.36431 2.58341 0.777964 0.447427 2.52033 0.787218 0.514122 
2.45675 0.785386 0.557092 2.39162 0.759985 0.567463 2.33472 0.721613 0.562773 
2.29128 0.676077 0.55188 2.22453 0.625435 0.537004 -0.478121 0.709705 -0.438783 
-0.415034 0.765865 -0.574404 -0.34516 0.803461 -0.680704 -0.278326 0.810698 -0.752763 
-0.214236 0.814616 -0.795457 -0.149184 0.840144 -0.805827 -0.0943013 0.87903 -0.801388 
-0.0655475 0.927034 -0.792456 -0.0463411 0.978131 -0.784654 -0.0194907 1.02684 -0.775938 
0.0206361 1.07037 -0.758208 0.0460515 1.11639 -0.727396 0.0700226 1.15974 -0.674489 
0.116838 1.19491 -0.611415 0.174865 1.22658 -0.547009 0.235814 1.25838 -0.48968 
0.294684 1.28874 -0.417748 0.351369 1.3177 -0.331225 0.404751 1.34444 -0.222852 
0.456497 1.36865 -0.107431 0.502684 1.38001 0.0209534 0.539633 1.3631 0.152765 
0.569921 1.32364 0.281404 0.594759 1.25974 0.391819 0.623452 1.19692 0.472819 
0.660185 1.15235 0.534211 0.700943 1.11541 0.58189 0.749144 1.10666 0.640928 
0.79315 1.08371 0.697978 0.832218 1.04105 0.744852 0.880044 1.02206 0.780276 
0.935987 1.02755 0.81175 0.988161 1.02029 0.841429 1.0392 1.00319 0.854947 
1.08968 0.975244 0.844767 -0.559909 0.66758 -0.0864187 -0.543202 0.651695 0.0951272 
-0.514266 0.623785 0.247248 -0.481277 0.593849 0.3772 -0.447746 0.55639 0.483949 
-0.417406 0.505131 0.581353 -0.380022 0.468745 0.658686 -0.338851 0.436199 0.714377 
-0.294245 0.403311 0.740452 -0.239985 0.400112 0.763319 -0.187721 0.393151 0.793041 
-0.137673 0.387664 0.845143 -0.0816342 0.405452 0.907922 -0.0216952 0.433448 0.964733 
0.0392252 0.455789 0.998576 0.0975915 0.463502 1.01558 0.15847 0.476727 1.02597 
0.217357 0.483204 1.03541 0.277694 0.494595 1.04554 0.333806 0.491682 1.05366 
0.390401 0.490404 1.06201 0.453571 0.511385 1.07349 0.517224 0.534001 1.0852 
0.576652 0.542312 1.09489 0.637531 0.555538 1.10528 0.696417 0.562015 1.11472 
0.757193 0.573648 1.12243 0.816242 0.571916 1.12107 0.886171 0.574403 1.10921 
2.61091 0.223107 0.317792 2.54357 0.232368 0.3387 2.48945 0.256758 0.358028 
2.44119 0.296477 0.379712 2.39186 0.325337 0.382636 2.34413 0.356629 0.378509 
2.30293 0.410196 0.377506 2.25695 0.462967 0.405808 2.19835 0.502729 0.453536 
1.83682 1.44824 0.5583 1.79376 1.40458 0.547646 1.75571 1.35937 0.53759 
1.71265 1.31572 0.526936 1.68281 1.26701 0.525298 1.64955 1.21917 0.538277 
1.5908 1.18549 0.5789 1.52366 1.16872 0.629934 1.45414 1.13943 0.656835 
1.39454 1.10234 0.61424 1.37077 0.974022 0.477926 1.40717 0.911592 0.454786 
1.45179 0.869924 0.45243 1.4937 0.821289 0.471566 1.53951 0.76905 0.518536 
1.23671 0.985849 0.659635 2.08394 0.625922 0.41819 2.03834 0.664788 0.35492 
1.98968 0.693521 0.34289 1.93633 0.720905 0.375156 1.87278 0.719607 0.418194 
1.81326 0.731075 0.460547 1.75725 0.753652 0.496969 1.68357 0.734227 0.536743 
2.01228 0.488087 0.657512 1.92386 0.456795 0.769169 1.85104 0.436641 0.83156 
1.79048 0.436652 0.852592 1.7328 0.437227 0.851539 1.62327 0.583938 0.648652 
1.64866 0.496794 0.73434 0.389049 -0.882049 0.417853 0.400616 -0.843182 0.528664 
0.428383 -0.809371 0.641411 0.455182 -0.773172 0.739201 0.498515 -0.740047 0.824127 
0.542409 -0.705009 0.894268 0.56638 -0.661662 0.947175 0.593626 -0.616206 0.978206 
1.11437 0.868925 0.845727 1.09268 0.812612 0.879692 1.06785 0.753856 0.927992 
1.03342 0.686434 0.999099 1.62484 0.359676 0.925716 1.55513 0.309845 1.01581 
1.47584 0.26605 1.09753 1.40247 0.237074 1.15146 1.34256 0.239113 1.17279 
1.29211 0.26419 1.17518 1.24806 0.307943 1.1728 1.20263 0.346991 1.16977 
1.15915 0.392683 1.16766 1.11408 0.43212 1.16221 1.07164 0.479692 1.15041 
1.02693 0.528453 1.12585 
LINES 28 391
5 24 25 26 27 22 
37 23 28 29 30 31 32 33 34 35 36 37 38 39 40 41 42 43 44 45 46 47 48 49 50 51 52 53 54 55 56 57 58 59 60 61 62 20 
16 22 63 64 65 66 67 68 69 70 71 72 73 74 75 76 18 
14 22 77 78 79 80 81 82 83 84 85 86 87 88 21 
4 20 89 90 15 
3 20 91 13 
48 19 92 93 94 95 96 97 98 99 100 101 102 103 104 105 106 107 108 109 110 111 112 113 114 115 116 117 118 119 120 121 122 123 124 125 126 127 128 129 130 131 132 133 134 135 136 137 16 
7 16 138 139 140 141 142 17 
4 18 143 144 15 
8 18 145 146 147 148 149 150 11 
3 15 152 13 
11 14 153 154 155 156 157 158 159 160 161 7 
6 13 162 163 164 165 9 
4 11 189 190 9 
14 11 191 192 193 194 195 196 197 198 199 200 201 202 6 
37 10 203 204 205 206 207 208 209 210 211 212 213 214 215 216 217 218 219 220 221 222 223 224 225 226 227 228 229 230 231 232 233 234 235 236 237 3 
31 10 238 239 240 241 242 243 244 245 246 247 248 249 250 251 252 253 254 255 256 257 258 259 260 261 262 263 264 265 266 1 
11 9 267 268 269 270 271 272 273 274 275 6 
12 8 276 277 278 279 280 281 282 283 284 285 7 
7 7 286 287 288 289 290 5 
3 7 291 3 
10 6 292 293 294 295 296 297 298 299 5 
7 6 300 301 302 303 304 2 
4 5 305 306 2 
10 4 307 308 309 310 311 312 313 314 0 
6 3 315 316 317 318 1 
14 2 319 320 321 322 323 324 325 326 327 328 329 330 1 
27 16 151 12 166 167 168 169 170 171 172 173 174 175 176 177 178 179 180 181 182 183 184 185 186 187 188 10 

POINT_DATA 331
SCALARS DY_raw double
LOOKUP_TABLE default
739.984 716.88 720.657 740.001 810.832 715.791 733.309 589.198 535.227 
686.869 519.213 551.986 586.864 668.76 387.827 545.555 609.076 468.149 
577.063 678.639 492.9 673.989 580.708 383.171 778.026 693.747 756.397 
590.884 423.235 413.753 481.409 481.409 651.331 720.846 667.282 648.542 
628.69 551.572 602.756 605.453 525.319 570.596 611.193 611.193 701.51 
701.51 763.273 755.85 755.85 714.708 694.475 663.651 546.683 578.911 
516.194 485.204 534.284 536.053 568.57 557.577 596.7 597.468 487.768 
581.926 773.546 765.787 671.746 696.919 636.689 642.739 662.537 768.024 
791.423 886.34 881.457 613.594 615.377 628.5 502.321 502.321 490.635 
554.8 565.046 576.997 621.064 621.064 518.521 517.745 575.525 440.289 
492.41 581.002 680.555 697.056 749.127 767.335 761.937 808.145 756.062 
781.369 782.879 715.048 793.569 686.541 701.839 701.839 590.699 637.31 
715.65 616.366 616.366 745.737 743.958 743.958 762.924 742.117 778.342 
836.913 750.006 750.006 846.76 808.947 671.156 695.035 695.035 678.112 
688.599 607.887 598.445 608.904 679.77 615.047 574.355 574.355 513.312 
488.538 482.485 558.468 567.697 549.143 539.136 527.602 485.667 580.154 
563.552 601.242 565.225 543.03 540.601 464.257 448.494 543.496 558.617 
511.073 570.462 596.618 616.197 636.96 641.936 628.609 579.964 566.549 
709.631 724.081 673.583 674.772 615.109 618.367 521.336 625.702 614.737 
826.925 788.439 652.166 645.281 523.743 497.16 590.913 593.864 551.503 
641.098 561.336 561.336 547.535 558.702 601.864 589.205 599.295 599.295 
629.435 631.863 560.369 577.964 584.265 567.706 532.359 621.777 673.764 
699.72 750.354 699.84 662.335 684.681 546.994 549.528 569.162 566.815 
521.793 561.959 572.099 593.923 568.892 612.015 726.308 699.102 742.947 
743.593 737.749 653.045 582.027 537.331 625.177 590.919 523.972 623.48 
551.206 572.028 637.453 624.358 664.043 684.274 714.849 714.849 781.223 
809.315 863.369 823.304 777.519 554.351 515.902 550.765 569.658 554.009 
630.632 572.965 659.945 642.981 705.676 659.393 790.103 834.919 931.36 
815.494 756.094 756.094 764.437 791.615 664.256 645.772 582.689 551.982 
544.874 544.874 628.563 671.177 728.484 742.266 698.98 720.481 732.093 
768.251 674.767 689.95 609.756 662.078 625.873 618.549 691.463 691.575 
704.338 717.356 716.366 676.763 617.104 591.049 592.135 521.794 535.798 
569.885 532.854 623.458 720.175 618.573 600.874 583.064 549.37 579.355 
555.297 572.074 623.27 887.694 813.698 719.758 658.528 658.528 736.839 
727.571 970.104 810.537 1026.71 898.669 890.136 943.729 808.363 739.984 
765.983 749.165 745.16 714.873 805.069 780.41 698.318 725.607 753.887 
753.887 843.735 817.001 817.001 750.704 746.915 718.28 
FIELD FieldData 7
DY_minmax 1 331 double
0.554456 0.518555 0.524424 0.554482 0.664548 0.516862 0.544084 0.320148 0.236281 
0.47192 0.211397 0.262323 0.31652 0.44378 0.00723514 0.252331 0.351036 0.132049 
0.301292 0.459131 0.170509 0.451906 0.306954 0 0.613569 0.482608 0.579961 
0.322768 0.062256 0.0475217 0.152654 0.152654 0.416696 0.524718 0.441484 0.412363 
0.381514 0.261681 0.341215 0.345407 0.220886 0.291242 0.354325 0.354325 0.494671 
0.494671 0.590645 0.57911 0.57911 0.51518 0.483738 0.435841 0.254084 0.304162 
0.206707 0.15855 0.234816 0.237566 0.288094 0.271011 0.331805 0.332999 0.162534 
0.308848 0.606608 0.594551 0.44842 0.487536 0.393945 0.403346 0.43411 0.598027 
0.634387 0.78188 0.774293 0.358057 0.360828 0.38122 0.185149 0.185149 0.16699 
0.266696 0.282618 0.301188 0.369665 0.369665 0.210322 0.209116 0.298901 0.0887568 
0.169748 0.307412 0.462108 0.487749 0.568663 0.596957 0.588569 0.660371 0.57944 
0.618765 0.621111 0.515707 0.637723 0.47141 0.495182 0.495182 0.32248 0.394909 
0.516643 0.362365 0.362365 0.563395 0.560631 0.560631 0.590102 0.55777 0.614061 
0.705075 0.570029 0.570029 0.720376 0.661618 0.447503 0.48461 0.48461 0.458313 
0.474609 0.34919 0.334517 0.350769 0.460888 0.360314 0.297083 0.297083 0.202227 
0.163731 0.154325 0.272396 0.286737 0.257907 0.242357 0.224433 0.15927 0.306094 
0.280296 0.338863 0.282896 0.248407 0.244632 0.126001 0.101506 0.24913 0.272628 
0.198748 0.291034 0.331678 0.362101 0.394366 0.402098 0.381389 0.305799 0.284953 
0.50729 0.529744 0.451274 0.453122 0.360412 0.365474 0.214697 0.376871 0.359832 
0.689554 0.62975 0.417994 0.407295 0.218437 0.177129 0.322813 0.327399 0.261573 
0.400796 0.276852 0.276852 0.255407 0.27276 0.33983 0.320159 0.335838 0.335838 
0.382672 0.386445 0.275349 0.302691 0.312482 0.286751 0.231825 0.370772 0.451555 
0.491889 0.570569 0.492075 0.433797 0.46852 0.254567 0.258505 0.289014 0.285366 
0.215407 0.27782 0.293577 0.327489 0.288595 0.355603 0.533204 0.490929 0.55906 
0.560063 0.550983 0.41936 0.309005 0.239552 0.376056 0.322821 0.218793 0.373419 
0.261111 0.293467 0.395131 0.374783 0.436451 0.467888 0.515397 0.515397 0.618537 
0.66219 0.746185 0.683927 0.612781 0.265999 0.206252 0.260426 0.289784 0.265467 
0.384532 0.294923 0.430081 0.403722 0.501144 0.429224 0.632336 0.701977 0.851837 
0.671792 0.579489 0.579489 0.592453 0.634686 0.436781 0.408058 0.310033 0.262318 
0.251273 0.251273 0.381318 0.447536 0.536586 0.558002 0.490739 0.52415 0.542194 
0.59838 0.453115 0.476707 0.352093 0.433397 0.377138 0.365757 0.479059 0.479233 
0.499065 0.519294 0.517756 0.456215 0.363511 0.323024 0.324711 0.215408 0.237169 
0.290138 0.232594 0.373385 0.523675 0.365793 0.338292 0.310616 0.258258 0.304853 
0.267469 0.293538 0.373092 0.783983 0.669 0.523027 0.42788 0.42788 0.549569 
0.535166 0.912042 0.664089 1 0.801038 0.787779 0.871056 0.660711 0.554456 
0.594856 0.568722 0.562499 0.515435 0.655592 0.617274 0.48971 0.532115 0.576059 
0.576059 0.715675 0.674132 0.674132 0.571114 0.565226 0.52073 
WidthEq 1 331 double
1.43146 2.36821 2.29994 2.66906 1.37987 2.30638 2.91713 3.40057 1.35523 
3.24159 2.87211 3.41264 3.20433 3.30447 1.78259 2.9813 2.32337 1.46775 
2.59967 1.90494 3.27782 1.30733 2.69569 2.7501 1 1.38832 1.35427 
2.41179 2.52882 2.60038 1.8543 1.8543 1.47003 1.39029 1.43457 1.49484 
1.54387 1.63064 1.6101 1.60497 1.62936 1.53391 1.43108 1.43108 1.21765 
1.21765 1.14586 1.19916 1.19916 1.27288 1.33634 1.33651 1.54019 1.52525 
1.56217 1.6689 1.57661 1.51074 1.65011 1.54852 1.60336 1.95146 2.81894 
2.60486 1.92801 1.98229 2.06804 2.0987 2.27063 2.2786 2.2876 1.92559 
1.70927 1.59002 1.42225 1.78288 2.0162 2.52318 2.63408 2.63408 2.36397 
1.75113 1.70316 1.59771 1.61675 1.61675 1.85787 1.85011 1.77481 3.4423 
3.2406 3.34783 1.98667 1.86241 1.68461 1.52316 1.43591 1.4228 1.45133 
1.43152 1.41242 1.5295 1.44767 1.57268 1.55561 1.55561 1.67262 1.70099 
1.60757 1.78822 1.78822 1.6269 1.65346 1.65346 1.60635 1.47208 1.46373 
1.36266 1.4164 1.4164 1.43535 1.49756 1.5827 1.76408 1.76408 1.86227 
1.92387 2.05704 2.04568 1.93322 1.90893 1.98428 2.09492 2.09492 2.3967 
2.56129 2.66126 2.62494 2.5005 2.59099 2.71472 2.49824 2.006 2.66448 
2.92746 2.51633 2.56533 2.59499 2.70537 3.01216 3.29522 2.90888 3.61843 
2.12159 2.16033 2.08226 2.37039 2.35058 2.43005 2.46881 2.7392 3.06981 
3.19925 3.0513 3.0299 3.1863 2.95357 2.99674 3.69208 3.3402 3.14233 
2.4919 2.53357 2.86759 3.07039 3.50614 3.62042 3.40728 3.37199 3.5817 
3.24324 3.71488 3.71488 3.70896 3.35298 2.95083 2.76886 2.5282 2.5282 
3.2209 3.45008 3.20517 2.83697 2.5364 2.40867 2.40848 2.70223 2.64316 
2.65766 2.54669 2.63557 2.81364 2.92842 2.5753 2.51855 2.40233 2.37855 
2.46785 2.36068 2.22662 1.96414 2.01173 1.75904 1.4165 1.4876 1.49212 
1.69189 1.79888 2.07321 2.25973 2.50824 2.33575 2.56415 2.76649 2.54309 
2.95553 2.85602 2.62657 2.37384 2.316 2.2334 2.07172 2.07172 2.02162 
2.06544 1.92866 2.28345 2.53319 3.05427 3.69118 3.45441 3.13984 2.99603 
2.73842 2.4617 2.38832 2.25641 1.97539 2.02242 1.87128 1.78707 1.67457 
1.78426 1.81428 1.81428 1.75901 1.69942 1.72674 1.73126 1.72707 1.8011 
1.75713 1.75713 1.83844 1.93261 2.03403 2.14136 3.19981 3.11187 3.00994 
2.83584 3.16365 3.12461 3.35775 3.21709 3.24621 1.7741 2.18932 2.19323 
2.25894 2.14667 2.09122 2.10822 2.43216 2.66199 3.16708 3.38414 3.1271 
2.83565 2.81536 2.63969 3.19948 2.84448 2.65617 2.44712 2.36374 2.35192 
2.38275 2.35867 2.43137 2.62375 2.45594 2.53253 2.50525 2.50525 2.17378 
2.2613 1.41953 2.03951 1.761 2.04622 2.02696 1.97924 1.69957 1.43146 
2.53077 2.23618 2.18524 2.27812 2.12881 2.09486 2.34928 2.38152 2.28538 
2.28538 1.91996 1.93981 1.93981 2.15269 2.17284 2.30954 
rRFP 1 331 double
2937.3 3385.12 3352.48 3528.94 2912.64 3355.56 3647.53 3878.64 2900.86 
3802.64 3626.01 3884.41 3784.83 3832.7 3105.16 3678.21 3363.68 2954.65 
3495.77 3163.65 3819.96 2877.96 3541.67 3567.68 2731.04 2916.68 2900.4 
3405.95 3461.9 3496.11 3139.44 3139.44 2955.74 2917.62 2938.79 2967.6 
2991.04 3032.52 3022.7 3020.25 3031.91 2986.28 2937.12 2937.12 2835.09 
2835.09 2800.77 2826.25 2826.25 2861.49 2891.83 2891.91 2989.28 2982.14 
2999.79 3050.81 3006.69 2975.2 3041.83 2993.26 3019.48 3185.89 3600.59 
3498.25 3174.68 3200.63 3241.62 3256.28 3338.47 3342.28 3346.58 3173.52 
3070.11 3013.1 2932.9 3105.3 3216.84 3459.2 3512.22 3512.22 3383.09 
3090.12 3067.19 3016.78 3025.88 3025.88 3141.15 3137.44 3101.44 3898.59 
3802.17 3853.43 3202.72 3143.32 3058.32 2981.14 2939.43 2933.16 2946.8 
2937.33 2928.2 2984.17 2945.05 3004.81 2996.65 2996.65 3052.59 3066.15 
3021.49 3107.85 3107.85 3030.73 3043.43 3043.43 3020.91 2956.72 2952.73 
2904.41 2930.1 2930.1 2939.16 2968.9 3009.6 3096.31 3096.31 3143.25 
3172.7 3236.36 3230.93 3177.17 3165.56 3201.58 3254.47 3254.47 3398.74 
3477.42 3525.21 3507.85 3448.36 3491.62 3550.77 3447.28 3211.96 3526.75 
3652.47 3455.93 3479.35 3493.53 3546.3 3692.96 3828.28 3643.59 3982.79 
3267.22 3285.74 3248.42 3386.16 3376.69 3414.68 3433.21 3562.47 3720.52 
3782.4 3711.67 3701.44 3776.21 3664.95 3685.59 4018 3849.78 3755.19 
3444.25 3464.17 3623.85 3720.8 3929.11 3983.74 3881.85 3864.98 3965.23 
3803.43 4028.9 4028.9 4026.07 3855.89 3663.64 3576.65 3461.6 3461.6 
3792.75 3902.31 3785.23 3609.21 3465.52 3404.46 3404.37 3544.8 3516.56 
3523.49 3470.44 3512.93 3598.06 3652.93 3484.12 3456.99 3401.43 3390.06 
3432.75 3381.52 3317.43 3191.95 3214.7 3093.9 2930.15 2964.14 2966.3 
3061.8 3112.95 3244.09 3333.26 3452.06 3369.6 3478.79 3575.52 3468.72 
3665.89 3618.32 3508.63 3387.81 3360.16 3320.67 3243.38 3243.38 3219.43 
3240.38 3174.99 3344.6 3463.99 3713.09 4017.57 3904.38 3754 3685.25 
3562.1 3429.81 3394.73 3331.67 3197.33 3219.81 3147.56 3107.3 3053.52 
3105.96 3120.31 3120.31 3093.89 3065.4 3078.46 3080.62 3078.62 3114.01 
3092.99 3092.99 3131.86 3176.88 3225.36 3276.67 3782.67 3740.63 3691.9 
3608.67 3765.38 3746.72 3858.17 3790.93 3804.85 3101.1 3299.6 3301.47 
3332.88 3279.21 3252.7 3260.83 3415.69 3525.56 3767.02 3870.79 3747.91 
3608.58 3598.88 3514.9 3782.51 3612.8 3522.78 3422.84 3382.98 3377.33 
3392.07 3380.56 3415.31 3507.28 3427.06 3463.67 3450.63 3450.63 3292.17 
3334.01 2931.6 3227.98 3094.84 3231.19 3221.98 3199.17 3065.47 2937.3 
3462.83 3322 3297.65 3342.05 3270.67 3254.44 3376.07 3391.48 3345.52 
3345.52 3170.83 3180.32 3180.32 3282.09 3291.72 3357.07 
rGFP 1 331 double
3444.43 4082.9 4042.64 4360.28 3504.02 4036.06 4524.33 4388.78 3110.53 
4611.72 3876.41 4268.9 4265.68 4595.07 3076.51 4011.64 3800.28 3072.3 
3885.35 3677.94 4000.81 3266.3 3950.58 3438.93 3163.2 3348.32 3409.54 
3810.26 3455.46 3461.09 3277.85 3277.85 3342.65 3387.36 3342.44 3354.64 
3355.79 3284.59 3355.67 3356.91 3241.11 3260.42 3259.84 3259.84 3239.37 
3239.37 3259.78 3291.56 3291.56 3294.91 3313.23 3272.15 3227.17 3268.16 
3191.56 3194.93 3227.53 3195.01 3323.38 3248.59 3341.9 3551.11 3760.16 
3901.01 3876.58 3903.19 3774.37 3847.8 3830.86 3849.72 3900.79 3864.07 
3737.93 3794.47 3638.83 3479.14 3625.9 3970.99 3708.33 3708.33 3545.02 
3356.7 3347.54 3307.05 3389.28 3389.28 3348.52 3343.06 3406.62 3900.78 
3980.88 4330.27 3737.21 3683.38 3647.16 3553.95 3479.25 3535 3482.47 
3503.72 3490.93 3478.84 3534 3464.88 3476.96 3476.96 3373.19 3469.23 
3535.63 3487.37 3487.37 3598.41 3615.28 3615.28 3610.7 3477.63 3524.46 
3525.6 3447.48 3447.48 3600.57 3596.62 3447.41 3611.27 3611.27 3648 
3709.95 3635.62 3609.4 3562.32 3682.81 3605.6 3588.4 3588.4 3615.43 
3636.46 3669.19 3851.12 3804.7 3808 3848.78 3703.25 3359.42 3930.98 
4034.95 3898.1 3835.16 3794.33 3847.7 3783.59 3863.06 3966.14 4406.49 
3469.46 3617.56 3627.49 3845.8 3882.4 3945.11 3937.09 3973.81 4124.37 
4655.46 4594.56 4426.06 4535.2 4201.94 4238.26 4309.99 4475.14 4316.88 
4445.79 4382.74 4255.32 4366.44 4221.49 4185.1 4398.58 4387.68 4360.49 
4464.41 4470.47 4470.47 4415.96 4258.49 4161.17 4016.6 3900.31 3900.31 
4412.52 4565.15 4181.25 4024.84 3867.1 3752.59 3667.35 4065.36 4166.04 
4244.79 4296.09 4229.65 4248.75 4390.21 3793.85 3769.19 3752.49 3733.37 
3672.88 3711.78 3659.02 3551.72 3529.63 3461.73 3413.99 3425.16 3493.74 
3643.25 3712.3 3739.07 3700.4 3732.93 3845.43 3900.38 3834.74 3970.74 
4014.28 4018.9 4059.49 3867.3 3923.1 3913.43 3866.14 3866.14 3964.51 
4056.77 4050.32 4265.15 4354.78 4078.31 4289.46 4287.74 4173.81 4045 
4112.11 3795.64 3961.33 3836 3779.16 3718.74 3863.68 3877.23 3944.8 
3840.23 3756.94 3756.94 3729.83 3730.46 3532.17 3503.17 3391.52 3379.35 
3342.59 3342.59 3540.75 3682.3 3866.93 3974.63 4621.78 4627.22 4588.73 
4563.81 4519.9 4541 4432.58 4515.14 4416.89 3482.54 3899.01 3901.96 
3976.23 3925.1 3883.25 3811.94 3886.07 3958.54 4260.51 4151 4060.67 
4001.17 3885.35 4030.91 4689.36 4144.69 3981.2 3812 3683.74 3747.77 
3708.31 3734.51 3900.57 4714.26 4383.57 4207.98 4034.95 4034.95 3986.9 
4030.43 3762.27 4038.27 4193.21 4224.05 4189.44 4253.04 3759.04 3444.43 
4323.7 4060.44 4013.53 4013.74 4099.01 4020.02 4025.72 4113.22 4108.09 
4108.09 4005.11 3970 3970 4001.21 4008.1 4044.07 
bkstRFP 1 331 double
684.314 1132.13 1099.49 1275.95 659.654 1102.57 1394.54 1625.65 647.874 
1549.65 1373.02 1631.42 1531.84 1579.71 852.174 1425.22 1110.69 701.664 
1242.78 910.664 1566.97 624.974 1288.68 1314.69 478.054 663.694 647.414 
1152.96 1208.91 1243.12 886.454 886.454 702.754 664.634 685.804 714.614 
738.054 779.534 769.714 767.264 778.924 733.294 684.134 684.134 582.104 
582.104 547.784 573.264 573.264 608.504 638.844 638.924 736.294 729.154 
746.804 797.824 753.704 722.214 788.844 740.274 766.494 932.904 1347.6 
1245.26 921.694 947.644 988.634 1003.29 1085.48 1089.29 1093.59 920.534 
817.124 760.114 679.914 852.314 963.854 1206.21 1259.23 1259.23 1130.1 
837.134 814.204 763.794 772.894 772.894 888.164 884.454 848.454 1645.6 
1549.18 1600.44 949.734 890.334 805.334 728.154 686.444 680.174 693.814 
684.344 675.214 731.184 692.064 751.824 743.664 743.664 799.604 813.164 
768.504 854.864 854.864 777.744 790.444 790.444 767.924 703.734 699.744 
651.424 677.114 677.114 686.174 715.914 756.614 843.324 843.324 890.264 
919.714 983.374 977.944 924.184 912.574 948.594 1001.48 1001.48 1145.75 
1224.43 1272.22 1254.86 1195.37 1238.63 1297.78 1194.29 958.974 1273.76 
1399.48 1202.94 1226.36 1240.54 1293.31 1439.97 1575.29 1390.6 1729.8 
1014.23 1032.75 995.434 1133.17 1123.7 1161.69 1180.22 1309.48 1467.53 
1529.41 1458.68 1448.45 1523.22 1411.96 1432.6 1765.01 1596.79 1502.2 
1191.26 1211.18 1370.86 1467.81 1676.12 1730.75 1628.86 1611.99 1712.24 
1550.44 1775.91 1775.91 1773.08 1602.9 1410.65 1323.66 1208.61 1208.61 
1539.76 1649.32 1532.24 1356.22 1212.53 1151.47 1151.38 1291.81 1263.57 
1270.5 1217.45 1259.94 1345.07 1399.94 1231.13 1204 1148.44 1137.07 
1179.76 1128.53 1064.44 938.964 961.714 840.914 677.164 711.154 713.314 
808.814 859.964 991.104 1080.27 1199.07 1116.61 1225.8 1322.53 1215.73 
1412.9 1365.33 1255.64 1134.82 1107.17 1067.68 990.394 990.394 966.444 
987.394 922.004 1091.61 1211 1460.1 1764.58 1651.39 1501.01 1432.26 
1309.11 1176.82 1141.74 1078.68 944.344 966.824 894.574 854.314 800.534 
852.974 867.324 867.324 840.904 812.414 825.474 827.634 825.634 861.024 
840.004 840.004 878.874 923.894 972.374 1023.68 1529.68 1487.64 1438.91 
1355.68 1512.39 1493.73 1605.18 1537.94 1551.86 848.114 1046.61 1048.48 
1079.89 1026.22 999.714 1007.84 1162.7 1272.57 1514.03 1617.8 1494.92 
1355.59 1345.89 1261.91 1529.52 1359.81 1269.79 1169.85 1129.99 1124.34 
1139.08 1127.57 1162.32 1254.29 1174.07 1210.68 1197.64 1197.64 1039.18 
1081.02 678.614 974.994 841.854 978.204 968.994 946.184 812.484 684.314 
1209.84 1069.01 1044.66 1089.06 1017.68 1001.45 1123.08 1138.49 1092.53 
1092.53 917.844 927.334 927.334 1029.1 1038.73 1104.08 
bkstGFP 1 331 double
1059.26 1697.73 1657.47 1975.11 1118.85 1650.89 2139.16 2003.61 725.356 
2226.55 1491.24 1883.73 1880.51 2209.9 691.336 1626.47 1415.11 687.126 
1500.18 1292.77 1615.64 881.126 1565.41 1053.76 778.026 963.146 1024.37 
1425.09 1070.29 1075.92 892.676 892.676 957.476 1002.19 957.266 969.466 
970.616 899.416 970.496 971.736 855.936 875.246 874.666 874.666 854.196 
854.196 874.606 906.386 906.386 909.736 928.056 886.976 841.996 882.986 
806.386 809.756 842.356 809.836 938.206 863.416 956.726 1165.94 1374.99 
1515.84 1491.41 1518.02 1389.2 1462.63 1445.69 1464.55 1515.62 1478.9 
1352.76 1409.3 1253.66 1093.97 1240.73 1585.82 1323.16 1323.16 1159.85 
971.526 962.366 921.876 1004.11 1004.11 963.346 957.886 1021.45 1515.61 
1595.71 1945.1 1352.04 1298.21 1261.99 1168.78 1094.08 1149.83 1097.3 
1118.55 1105.76 1093.67 1148.83 1079.71 1091.79 1091.79 988.016 1084.06 
1150.46 1102.2 1102.2 1213.24 1230.11 1230.11 1225.53 1092.46 1139.29 
1140.43 1062.31 1062.31 1215.4 1211.45 1062.24 1226.1 1226.1 1262.83 
1324.78 1250.45 1224.23 1177.15 1297.64 1220.43 1203.23 1203.23 1230.26 
1251.29 1284.02 1465.95 1419.53 1422.83 1463.61 1318.08 974.246 1545.81 
1649.78 1512.93 1449.99 1409.16 1462.53 1398.42 1477.89 1580.97 2021.32 
1084.29 1232.39 1242.32 1460.63 1497.23 1559.94 1551.92 1588.64 1739.2 
2270.29 2209.39 2040.89 2150.03 1816.77 1853.09 1924.82 2089.97 1931.71 
2060.62 1997.57 1870.15 1981.27 1836.32 1799.93 2013.41 2002.51 1975.32 
2079.24 2085.3 2085.3 2030.79 1873.32 1776 1631.43 1515.14 1515.14 
2027.35 2179.98 1796.08 1639.67 1481.93 1367.42 1282.18 1680.19 1780.87 
1859.62 1910.92 1844.48 1863.58 2005.04 1408.68 1384.02 1367.32 1348.2 
1287.71 1326.61 1273.85 1166.55 1144.46 1076.56 1028.82 1039.99 1108.57 
1258.08 1327.13 1353.9 1315.23 1347.76 1460.26 1515.21 1449.57 1585.57 
1629.11 1633.73 1674.32 1482.13 1537.93 1528.26 1480.97 1480.97 1579.34 
1671.6 1665.15 1879.98 1969.61 1693.14 1904.29 1902.57 1788.64 1659.83 
1726.94 1410.47 1576.16 1450.83 1393.99 1333.57 1478.51 1492.06 1559.63 
1455.06 1371.77 1371.77 1344.66 1345.29 1147 1118 1006.35 994.176 
957.416 957.416 1155.58 1297.13 1481.76 1589.46 2236.61 2242.05 2203.56 
2178.64 2134.73 2155.83 2047.41 2129.97 2031.72 1097.37 1513.84 1516.79 
1591.06 1539.93 1498.08 1426.77 1500.9 1573.37 1875.34 1765.83 1675.5 
1616 1500.18 1645.74 2304.19 1759.52 1596.03 1426.83 1298.57 1362.6 
1323.14 1349.34 1515.4 2329.09 1998.4 1822.81 1649.78 1649.78 1601.73 
1645.26 1377.1 1653.1 1808.04 1838.88 1804.27 1867.87 1373.87 1059.26 
1938.53 1675.27 1628.36 1628.57 1713.84 1634.85 1640.55 1728.05 1722.92 
1722.92 1619.94 1584.83 1584.83 1616.04 1622.93 1658.9 
tubeWidth 1 331 double
0.126381 0.204378 0.211604 0.268837 0.202538 0.194441 0.222256 0.230648 0.195808 
0.213418 0.137011 0.251599 0.220758 0.236055 0.221177 0.199229 0.117334 0.123924 
0.209878 0.278243 0.257933 0.227766 0.227891 0.337157 0.100012 0.197645 0.209805 
0.247515 0.300419 0.24991 0.197917 0.159715 0.133136 0.172529 0.243393 0.268209 
0.270511 0.276607 0.254921 0.234561 0.217816 0.220138 0.209028 0.195331 0.169118 
0.150457 0.163276 0.147017 0.146686 0.160481 0.170483 0.197819 0.211878 0.194427 