# vtk DataFile Version 3.0
vtk output
ASCII
DATASET POLYDATA
POINTS 480 float
5.38514 1.13475 1.66315 5.53539 0.821547 1.64503 -0.253254 0.167998 1.33455 
4.88954 1.1407 1.45724 5.03294 0.881966 1.4425 5.07406 0.555166 1.42223 
5.26466 1.24276 1.46816 0.147242 -0.193846 1.11589 5.04927 0.343178 1.20805 
4.95992 1.49378 1.28008 -0.391412 -0.432977 0.893907 1.32035 1.37947 0.891977 
5.1752 -0.125974 0.87912 5.89704 1.12504 1.06734 1.22664 1.27467 0.821119 
5.55907 -0.121742 0.783726 4.68159 -0.310896 0.560903 -0.868834 -0.0680702 0.310181 
-0.711985 0.00679374 0.316794 -0.625512 1.13401 0.182817 0.871805 1.98677 0.260898 
6.07967 0.711823 0.0411703 0.393825 -0.758726 -0.319987 2.68463 1.29696 -0.162284 
-0.634074 0.992173 -0.488171 0.607605 -0.664386 -0.511881 3.50356 1.01808 -0.571134 
-0.258642 -0.292605 -1.09977 2.37538 2.15015 -1.11384 2.90961 1.15544 -1.3043 
1.29984 2.36045 -1.31363 0.662613 -0.44551 -1.87055 2.32232 0.558221 -2.41809 
2.13311 1.12463 -2.7592 2.26249 1.94616 -2.53105 2.10257 1.16875 -2.76047 
2.06775 1.2154 -2.76906 2.01777 1.26403 -2.77398 1.96029 1.31237 -2.77531 
1.91273 1.36176 -2.77273 1.88999 1.41425 -2.76967 1.86725 1.46674 -2.7666 
1.81958 1.51612 -2.76403 1.7601 1.56357 -2.7543 1.69852 1.60984 -2.72982 
1.63658 1.65469 -2.68317 1.57456 1.69896 -2.62913 1.51285 1.7419 -2.58259 
1.45258 1.77578 -2.55146 1.39442 1.79284 -2.52138 1.33546 1.81397 -2.4762 
1.27728 1.82771 -2.42405 1.21834 1.84874 -2.37888 1.16042 1.86389 -2.34891 
1.10173 1.88632 -2.32591 1.04382 1.90147 -2.29595 0.985047 1.92343 -2.26556 
0.92697 1.93753 -2.22081 0.868087 1.95571 -2.16096 0.810883 1.95472 -2.06521 
0.754762 1.94279 -1.95529 0.698955 1.92952 -1.85287 0.6436 1.9185 -1.78743 
0.588682 1.90982 -1.75894 0.534027 1.90255 -1.75262 0.479372 1.89528 -1.74631 
0.424556 1.88697 -1.72522 0.369704 1.87544 -1.68207 0.316008 1.85355 -1.63212 
0.264215 1.81655 -1.58313 0.210849 1.79321 -1.54071 0.157396 1.76939 -1.4909 
0.105615 1.73229 -1.4419 0.0522629 1.70884 -1.39949 -0.000586247 1.68489 -1.37937 
-0.0501292 1.63699 -1.37557 -0.0984251 1.57918 -1.37239 -0.147901 1.52842 -1.35394 
-0.199515 1.49116 -1.31238 -0.249415 1.43794 -1.25697 -0.298158 1.37436 -1.19478 
-0.346674 1.30898 -1.13269 -0.395175 1.24349 -1.07063 -0.443901 1.17727 -0.996228 
-0.494506 1.10983 -0.884829 -0.55464 1.0453 -0.711489 2.12043 1.06034 -2.76715 
2.12491 1.00078 -2.77459 2.15594 0.947488 -2.76276 2.17591 0.892083 -2.72522 
2.19591 0.836043 -2.67658 2.22919 0.782117 -2.63508 2.24764 0.727261 -2.60865 
2.25799 0.670938 -2.57499 2.27792 0.613972 -2.51157 2.32148 1.90847 -2.47336 
2.3789 1.88443 -2.42225 2.43829 1.8462 -2.38686 2.49712 1.79786 -2.35212 
2.54626 1.74648 -2.31769 2.58001 1.6917 -2.26139 2.62681 1.63762 -2.19003 
2.67324 1.58212 -2.09652 2.70453 1.52474 -2.00329 2.73924 1.46778 -1.91001 
2.75898 1.40987 -1.83179 2.77874 1.35178 -1.75112 2.81408 1.2936 -1.64801 
2.84983 1.22847 -1.49585 2.28835 0.498669 -2.42227 2.2676 0.440762 -2.4262 
2.23172 0.380971 -2.43042 2.18592 0.319944 -2.43484 2.13823 0.258222 -2.4319 
2.09023 0.195657 -2.41417 2.04175 0.133486 -2.37416 1.99193 0.0808462 -2.32613 
1.94006 0.0455915 -2.28445 1.88896 0.00891633 -2.27253 1.83622 -0.0112375 -2.28186 
1.78364 -0.0303539 -2.30597 1.73255 -0.0635899 -2.31611 1.67938 -0.0826729 -2.31052 
1.62472 -0.0933701 -2.28216 1.56996 -0.104536 -2.24641 1.51627 -0.126426 -2.19648 
1.46446 -0.16333 -2.14747 1.41086 -0.18475 -2.10493 1.35618 -0.195339 -2.07656 
1.30127 -0.204125 -2.04808 1.24628 -0.213381 -2.0122 1.19152 -0.224438 -1.97644 
1.13818 -0.24446 -1.95607 1.08682 -0.279105 -1.94404 1.0338 -0.300569 -1.93118 
0.980699 -0.322502 -1.91093 0.929342 -0.357146 -1.8989 0.876174 -0.376229 -1.89332 
0.821867 -0.385098 -1.89452 0.767654 -0.394719 -1.89578 0.714853 -0.416724 -1.89037 
2.37584 0.562814 -2.35035 2.42814 0.577192 -2.28202 2.47854 0.606583 -2.21275 
2.53084 0.62096 -2.14441 2.58445 0.626023 -2.08407 2.63814 0.631665 -2.03111 
2.69044 0.649471 -1.98483 2.73917 0.693612 -1.92949 2.78461 0.749332 -1.87345 
2.81988 0.806185 -1.82488 2.83846 0.861986 -1.79143 2.86198 0.917943 -1.75048 
2.8781 0.971063 -1.67764 2.89927 1.02382 -1.56764 2.90629 1.08151 -1.43771 
0.60319 -0.420713 -1.82515 0.542528 -0.387235 -1.77177 0.484198 -0.36995 -1.73426 
0.425741 -0.345842 -1.73342 0.368299 -0.325134 -1.76248 0.308968 -0.289413 -1.7906 
0.249287 -0.25557 -1.78916 0.191056 -0.239087 -1.75168 0.13192 -0.218894 -1.69172 
0.0735054 -0.206769 -1.61742 0.0146016 -0.191926 -1.53551 -0.0410281 -0.204259 -1.44789 
-0.0934276 -0.24111 -1.36919 -0.147486 -0.264779 -1.28968 -0.202862 -0.279124 -1.20217 
1.35938 2.33243 -1.3444 1.41495 2.33821 -1.38791 1.46841 2.36081 -1.43038 
1.52515 2.35381 -1.45242 1.58095 2.34738 -1.4299 1.6367 2.33775 -1.38531 
1.69414 2.31471 -1.34156 1.75017 2.30638 -1.31916 1.80639 2.29888 -1.31155 
1.86459 2.27684 -1.31226 1.92214 2.25992 -1.31265 1.98056 2.23608 -1.31347 
2.03812 2.21916 -1.31387 2.09631 2.19713 -1.31458 2.15262 2.1901 -1.31436 
2.20883 2.1827 -1.30673 2.26643 2.16071 -1.27776 2.32169 2.15148 -1.21089 
2.98211 1.18636 -1.03674 3.04437 1.16875 -0.799586 3.10068 1.14264 -0.610061 
3.15763 1.11054 -0.480282 3.21453 1.08712 -0.406872 3.27382 1.05377 -0.386012 
3.3344 1.03262 -0.408914 3.40415 1.04025 -0.474403 3.58596 1.09491 -0.535587 
3.63451 1.15807 -0.486467 3.65685 1.21123 -0.423442 3.69354 1.25494 -0.353423 
3.74208 1.28254 -0.27687 3.7917 1.31502 -0.192559 3.84191 1.34125 -0.0938083 
3.89048 1.38055 0.00576453 3.94043 1.4078 0.112003 3.99525 1.39743 0.208494 
4.04808 1.4017 0.313308 4.09655 1.44065 0.420282 4.14337 1.49036 0.542751 
4.1912 1.53209 0.664735 4.2413 1.55806 0.770904 4.29112 1.59091 0.847805 
4.3421 1.61814 0.902097 4.39245 1.65027 0.956692 4.44506 1.66332 1.01753 
4.50008 1.656 1.08452 4.55714 1.63139 1.15786 4.61223 1.62122 1.23953 
4.666 1.62037 1.32917 4.71996 1.62034 1.40405 4.77574 1.6105 1.44861 
4.83551 1.57712 1.43979 4.89737 1.53523 1.37847 3.55332 0.947397 -0.649259 
3.57751 0.888549 -0.697254 3.59866 0.835871 -0.722615 3.63266 0.785635 -0.740255 
3.6516 0.73405 -0.765573 3.66055 0.68076 -0.783693 3.6676 0.626777 -0.794464 
3.67445 0.57231 -0.797843 3.6813 0.517844 -0.801221 3.68816 0.463377 -0.8046 
3.69501 0.40891 -0.807978 3.70186 0.354444 -0.811357 3.70874 0.299521 -0.807339 
3.71724 0.243884 -0.788506 3.73542 0.187618 -0.739906 3.77026 0.132163 -0.668781 
3.80151 0.0771742 -0.582839 3.84855 0.0346586 -0.503322 3.90381 0.00886496 -0.430082 
3.96284 -0.0312283 -0.365121 4.02332 -0.0807411 -0.308166 4.08412 -0.131586 -0.258717 
4.14501 -0.182071 -0.21667 4.20581 -0.232916 -0.167222 4.26627 -0.28232 -0.11026 
4.32509 -0.320958 -0.0377836 4.38059 -0.335539 0.0510229 4.43567 -0.349148 0.154727 
4.49245 -0.375681 0.25763 4.54838 -0.383929 0.354269 4.60891 -0.365712 0.452644 
0.553627 -0.691015 -0.41771 0.501658 -0.728956 -0.353937 0.448226 -0.749437 -0.326179 
-0.677966 0.903245 -0.462172 -0.700385 0.834462 -0.44454 -0.723035 0.774339 -0.438727 
-0.728177 0.718154 -0.439881 -0.723348 0.663436 -0.4433 -0.718606 0.608247 -0.439324 
-0.723842 0.550898 -0.420762 -0.744381 0.490267 -0.380324 -0.749967 0.43104 -0.332184 
-0.745641 0.373048 -0.283858 -0.739423 0.315751 -0.242892 -0.73327 0.257528 -0.187134 
-0.727379 0.197896 -0.109202 -0.721927 0.135917 0.00569329 -0.716824 0.0720595 0.150156 
-0.620585 1.04805 -0.240745 -0.624822 1.09648 -0.0113178 2.63458 1.24956 -0.136196 
2.58147 1.2242 -0.0939028 2.5282 1.19779 -0.0368277 2.47797 1.14603 0.0260983 
2.42932 1.08257 0.0883006 2.38281 1.01789 0.143025 2.34639 0.955284 0.18315 
2.32519 0.895487 0.208792 2.28896 0.833818 0.234138 2.24263 0.769973 0.274066 
2.1944 0.705543 0.321371 2.14584 0.642902 0.368775 2.09611 0.590624 0.409398 
2.04441 0.552889 0.458347 1.9946 0.500141 0.506375 1.94612 0.437969 0.546385 
1.89813 0.375404 0.564109 1.85022 0.313308 0.574448 1.80199 0.252654 0.59229 
1.75203 0.202297 0.633032 1.69883 0.176465 0.68273 1.64547 0.153015 0.725141 
1.59404 0.117792 0.744561 1.54112 0.0967975 0.750026 1.48819 0.075803 0.755491 
1.43676 0.0405803 0.774911 1.38339 0.0172385 0.817329 1.32994 -0.00657302 0.867152 
1.27823 -0.0431056 0.908752 1.22489 -0.0631174 0.929115 1.17049 -0.0724062 0.935306 
1.11617 -0.0812254 0.934103 1.0631 -0.0999378 0.932286 1.01224 -0.134996 0.922031 
0.960804 -0.164366 0.904716 0.909873 -0.196564 0.879801 0.855317 -0.203462 0.878717 
0.797356 -0.186783 0.901356 0.740703 -0.185163 0.952747 0.68537 -0.192868 0.996134 
0.630263 -0.202375 1.03942 0.575332 -0.210944 1.06792 0.520086 -0.218179 1.10392 
0.463596 -0.215521 1.14053 0.405129 -0.19832 1.18547 0.348653 -0.195172 1.21469 
0.29241 -0.199544 1.21375 0.228524 -0.200463 1.17582 6.03537 0.767586 -0.052313 
6.01748 0.824805 -0.115689 6.02067 0.882358 -0.141688 6.03864 0.940376 -0.145215 
6.02986 0.994603 -0.141875 5.98624 1.04449 -0.139222 5.94081 1.09415 -0.136606 
5.9201 1.14689 -0.133501 5.90931 1.20086 -0.130201 5.89043 1.25337 -0.119664 
5.85636 1.30261 -0.0872473 5.83681 1.35091 -0.0101866 5.82653 1.39761 0.111425 
5.81589 1.44279 0.255202 5.79394 1.48563 0.383856 5.74681 1.51759 0.474403 
5.69008 1.53493 0.534207 5.62982 1.56846 0.57274 5.56813 1.61129 0.619273 
5.50636 1.65355 0.673183 5.4458 1.68269 0.748542 5.38862 1.68502 0.822247 
5.33293 1.67555 0.895211 5.27756 1.66463 0.96067 5.2222 1.65361 1.02611 
5.16686 1.64247 1.09156 5.11176 1.62943 1.15689 5.05823 1.60505 1.21409 
5.00825 1.55479 1.25484 0.928635 1.96044 0.3564 0.982385 1.96237 0.423957 
1.03848 1.93573 0.460047 1.08713 1.88853 0.487317 1.11913 1.8342 0.536203 
1.15592 1.77887 0.607359 1.18548 1.72174 0.693145 1.22035 1.66617 0.764263 
1.24044 1.61014 0.8129 1.2608 1.5557 0.835667 1.29526 1.50238 0.854954 
1.31719 1.44317 0.877427 -0.579586 1.13459 0.33804 -0.521603 1.11631 0.474891 
-0.462682 1.07286 0.613862 -0.403252 1.01753 0.763218 -0.343596 0.960581 0.908766 
-0.283959 0.904436 1.03951 -0.227713 0.849703 1.14062 -0.192876 0.794596 1.20434 
-0.201372 0.735923 1.23763 -0.216508 0.676882 1.26339 -0.238765 0.616496 1.2964 
-0.244285 0.558194 1.32975 -0.239718 0.502067 1.34851 -0.234976 0.446878 1.35248 
-0.239949 0.390938 1.34887 -0.259964 0.333124 1.34496 -0.264937 0.277183 1.34135 
-0.259998 0.222478 1.33793 -0.761694 -0.0386172 0.31332 -0.814534 -0.059142 0.311391 
-0.660732 0.0189659 0.451782 -0.611456 0.0456815 0.595095 -0.56161 0.0666984 0.74548 
-0.512408 0.0928357 0.896182 -0.46074 0.104035 1.01627 -0.40739 0.10769 1.09879 
-0.35379 0.112861 1.15913 -0.301825 0.128691 1.23498 5.17376 -0.240763 0.660261 
5.14185 -0.302631 0.496362 5.09237 -0.321246 0.405518 5.03849 -0.328607 0.378428 
4.98376 -0.336455 0.392133 4.92867 -0.34607 0.435402 4.87343 -0.356023 0.486084 
4.81732 -0.363029 0.529507 4.75562 -0.353506 0.551648 4.73757 -0.229897 0.685478 
4.78781 -0.166926 0.786564 4.83683 -0.119899 0.849515 4.88798 -0.0901681 0.892834 
4.94352 -0.0591903 0.910311 5.02913 -0.0654638 0.907218 5.50441 -0.129011 0.790043 
5.44941 -0.136909 0.807448 5.39042 -0.144254 0.835975 5.30787 -0.143592 0.861014 
1.27826 1.32749 0.873337 5.87816 1.06324 1.13 5.89797 1.00901 1.14906 
5.915 0.957186 1.1237 5.92602 0.905532 1.08343 5.94498 0.853492 1.0655 
5.97861 0.801903 1.07005 5.99703 0.747501 1.08908 6.00582 0.692817 1.09313 
6.01479 0.639073 1.0824 6.03381 0.587957 1.04969 6.06795 0.539642 1.00249 
6.08559 0.491105 0.92539 6.08376 0.441977 0.818321 6.06516 0.391677 0.696139 
6.05937 0.342057 0.589002 6.05114 0.289489 0.526182 6.01693 0.231848 0.522116 
5.96913 0.179461 0.57018 5.91685 0.141403 0.656219 5.86467 0.0993113 0.756853 
5.80995 0.075107 0.873425 5.7525 0.0722527 0.998756 5.69348 0.0982701 1.1259 
5.64667 0.138827 1.23927 5.63483 0.187058 1.33126 5.6401 0.238451 1.40882 
5.61743 0.286818 1.47843 5.60188 0.336532 1.54079 5.60442 0.389417 1.58871 
5.62213 0.445569 1.61475 5.61519 0.499566 1.62552 5.58351 0.550939 1.62841 
5.56685 0.604184 1.6316 5.5698 0.659872 1.63517 5.58768 0.717421 1.63904 
5.5789 0.771647 1.64238 5.11503 0.000777169 0.942135 5.09059 0.0788831 1.00247 
5.09019 0.134789 1.0654 5.09756 0.187819 1.12453 5.07515 0.237596 1.17196 
5.05812 0.289419 1.19732 -0.331885 -0.464429 0.885189 -0.275187 -0.472229 0.870524 
-0.218959 -0.476295 0.856081 -0.162922 -0.483517 0.871136 -0.11258 -0.451286 0.925738 
-0.0650043 -0.400569 1.00375 -0.0164435 -0.355037 1.0666 0.0348839 -0.321699 1.09902 
0.0880038 -0.267561 1.11051 4.94986 1.43124 1.37249 4.91713 1.36772 1.43487 
4.88495 1.30655 1.46029 4.87797 1.2499 1.46404 4.88279 1.19518 1.46062 
0.107239 -0.123321 1.2164 0.0530462 -0.0695859 1.28597 -0.00763179 -0.0227508 1.32534 
-0.069255 0.0235863 1.34982 -0.13085 0.0703145 1.36691 -0.192184 0.118452 1.36182 
5.32494 1.18899 1.56196 5.08069 0.609938 1.44805 5.10044 0.666342 1.47414 
5.10341 0.721574 1.48511 5.08673 0.775276 1.48089 5.05328 0.827805 1.46157 

LINES 26 527
16 34 95 96 97 98 99 100 101 102 103 104 105 106 107 108 29 
17 32 141 142 143 144 145 146 147 148 149 150 151 152 153 154 155 29 
20 30 171 172 173 174 175 176 177 178 179 180 181 182 183 184 185 186 187 188 28 
10 29 189 190 191 192 193 194 195 196 26 
29 26 197 198 199 200 201 202 203 204 205 206 207 208 209 210 211 212 213 214 215 216 217 218 219 220 221 222 223 9 
33 26 224 225 226 227 228 229 230 231 232 233 234 235 236 237 238 239 240 241 242 243 244 245 246 247 248 249 250 251 252 253 254 16 
5 25 255 256 257 22 
17 24 258 259 260 261 262 263 264 265 266 267 268 269 270 271 272 18 
50 23 275 276 277 278 279 280 281 282 283 284 285 286 287 288 289 290 291 292 293 294 295 296 297 298 299 300 301 302 303 304 305 306 307 308 309 310 311 312 313 314 315 316 317 318 319 320 321 322 7 
31 21 323 324 325 326 327 328 329 330 331 332 333 334 335 336 337 338 339 340 341 342 343 344 345 346 347 348 349 350 351 9 
4 18 382 383 17 
10 18 384 385 386 387 388 389 390 391 2 
11 12 392 393 394 395 396 397 398 399 400 16 
8 16 401 402 403 404 405 406 12 
6 15 407 408 409 410 12 
38 13 412 413 414 415 416 417 418 419 420 421 422 423 424 425 426 427 428 429 430 431 432 433 434 435 436 437 438 439 440 441 442 443 444 445 446 447 1 
8 12 448 449 450 451 452 453 8 
11 10 454 455 456 457 458 459 460 461 462 7 
7 9 463 464 465 466 467 3 
8 7 468 469 470 471 472 473 2 
3 6 474 0 
7 5 475 476 477 478 479 4 
63 24 85 84 83 82 81 80 79 78 77 76 75 74 73 72 71 70 69 68 67 66 65 64 63 62 61 60 59 58 57 56 55 54 53 52 51 50 49 48 47 46 45 44 43 42 41 40 39 38 37 36 35 33 86 87 88 89 90 91 92 93 94 32 
50 32 109 110 111 112 113 114 115 116 117 118 119 120 121 122 123 124 125 126 127 128 129 130 131 132 133 134 135 136 137 138 139 140 31 156 157 158 159 160 161 162 163 164 165 166 167 168 169 170 27 
23 24 273 274 19 364 365 366 367 368 369 370 371 372 373 374 375 376 377 378 379 380 381 2 
16 20 352 353 354 355 356 357 358 359 360 361 362 363 11 411 14 

POINT_DATA 480
SCALARS DY_raw double
LOOKUP_TABLE default
1355.31 1263.61 855.764 935.474 925.827 1198.48 1043.01 906.388 1299.6 
920.008 775.052 938.418 1106.25 984.326 899.55 956.94 983.061 925 
824.868 745.511 878.205 1032 808.263 979.872 851.935 504.191 952.704 
821.911 1158.91 822.973 1907.45 681.019 832.586 751.437 1065.55 665.877 
655.762 666.254 657.507 659.94 673.317 681.66 667.836 659.695 724.18 
701.608 779.236 828.875 814.496 758.042 810.535 810.983 859.357 828.062 
780.733 793.751 804.967 776.933 811.345 742.483 800.851 909.012 872.211 
843.029 843.029 788.537 846.379 858.882 835.994 835.994 871.167 830.684 
936.517 978.947 996.019 932.237 932.237 782.117 781.992 804.849 832.837 
820.886 803.616 927.576 949.171 937.572 713.287 748.745 906.725 924.923 
944.54 923.439 1024.26 802.474 759.484 1023.73 788.896 751.048 703.158 
723.561 753.691 768.927 870.183 885.872 884.387 839.23 810.32 755.207 
737.865 690.322 741.859 861.853 865.126 769.558 1063.89 1091.65 1109.98 
1018.1 1139.11 1193.94 901.207 901.207 859.596 752.205 752.205 742.87 
804.534 854.168 972.412 972.412 947.698 944.613 1038.52 990.152 971.352 
949.636 816.911 748.018 663.454 632.419 632.419 926.236 835.561 938.235 
782.041 786.489 957.705 830.126 1007.67 1036.53 981.839 790.299 849.755 
657.154 660.537 638.959 764.645 893.102 941.227 876.286 874.372 683.987 
530.244 556.443 616.209 645.183 617.802 638.823 643.339 636.822 675.876 
1302.57 996.227 925.309 842.276 790.661 851.201 1055.16 1037.66 1147.64 
1269.87 1162.4 1207.88 1122.75 1122.75 1039.78 1052.62 1052.62 1110.48 
937.996 1045.37 918.683 1027.45 1094.21 1233.08 1230.97 1183.47 944.497 
871.21 838.538 870.575 888.641 882.435 870.379 938.325 858.731 863.711 
947.892 760.252 963.345 863.484 810.021 878.731 918.444 852.051 956.388 
987.691 1075.4 1198.82 1305.59 1474.64 1513.95 1492.36 1242.54 884.183 
911.591 905.449 1022.18 1136.04 1172.01 1087.69 1151.31 1118.71 1118.71 
1056.82 1065 1032.72 984.656 1089.56 1127.12 1139.06 1031.57 1068.49 
985.618 957.299 1067.15 915.462 939.099 984.695 869.99 965.456 751.381 
716.058 771.845 842.577 542.298 666.564 808.263 885.334 948.017 968.593 
887.835 887.835 882.358 814.292 870.29 835.124 834.24 960.593 839.469 
867.572 864.465 759.684 969.069 946.313 1040.81 1123.7 1093.06 1030 
990.273 1040.03 1007.53 1052.34 1076.19 1035.09 1125.41 1239.21 1211.62 
1095.22 1136.21 1063.95 1094.81 1108.68 1014.37 1011.65 1088.53 1017.26 
1006.73 1059.4 960.516 1049.38 998.528 1080.32 1268.05 1268.05 1199.79 
1234.46 1234.46 1204.36 984.209 911.375 790.847 795.495 880.029 904.922 
1116.55 1184.8 1124.3 1124.3 1100.89 1009.9 1004.65 962.739 914.426 
836.818 704.649 704.649 718.425 779.731 779.731 759.966 830.14 819.439 
839.157 902.215 955.554 943.941 880.276 899.669 1015.62 1166.24 1303.38 
1373.71 1069.94 1082.7 1059.61 1133.95 1249.91 1110.62 1073.01 1081.87 
966.036 866.313 1140.87 982.049 943.8 952.259 1044.54 1179.24 1111.93 
1251.4 991.751 1017.34 869.302 962.901 969.256 906.416 756.71 843.324 
830.178 850.663 825.722 860.502 969.873 969.873 1017.45 968.945 1080.76 
944.487 884.597 884.597 800.486 805.891 805.891 690.72 663.835 833.714 
767.158 754.177 880.206 723.904 758.78 1087.11 1016.34 880.265 790.054 
980.986 1080.53 1082.16 988.358 954.163 1035.95 1036.53 1072.5 1099.59 
1114.94 1088.51 916.781 1024.65 1060.75 1094 833.531 1026.98 1058.09 
1031.21 1029.91 1012 1017.13 998.224 1001.65 956.616 831.593 809.378 
758.603 877.465 927.343 1090.99 1008.48 1076.43 1075.29 1094.87 1171.72 
1184.06 1178.46 1161.92 1112.52 1230.03 1185.62 1188.69 1232.56 1294.68 
1294.68 1266.49 1217.12 1217.12 1179.36 1110.54 1110.54 994.006 1004.36 
984.916 1063.99 1163.39 1218.22 751.958 679.645 645.5 683.674 777.841 
794.26 835.304 901.077 903.361 1055.5 1118.86 931.485 931.485 876.27 
962.7 926.853 815.843 792.939 792.939 789.553 1255.25 1180.78 971.136 
971.136 988.252 993.202 
FIELD FieldData 7
DY_minmax 1 480 double
0.606527 0.541184 0.25054 0.307343 0.300468 0.494765 0.383978 0.286616 0.56683 
0.296322 0.193022 0.309442 0.42904 0.342157 0.281743 0.32264 0.341255 0.299879 
0.228523 0.171971 0.266532 0.376128 0.21669 0.338982 0.247811 0 0.319622 
0.226416 0.466568 0.227173 1 0.126012 0.234023 0.176194 0.400039 0.115222 
0.108014 0.11549 0.109257 0.110991 0.120524 0.126469 0.116618 0.110816 0.15677 
0.140685 0.196004 0.231378 0.221131 0.180901 0.218309 0.218628 0.2531 0.230799 
0.197071 0.206348 0.214341 0.194363 0.218886 0.169813 0.211408 0.288486 0.26226 
0.241465 0.241465 0.202632 0.243852 0.252762 0.236452 0.236452 0.261516 0.232668 
0.308086 0.338324 0.350489 0.305036 0.305036 0.198057 0.197968 0.214257 0.234202 
0.225685 0.213378 0.301715 0.317104 0.308838 0.149007 0.174276 0.286856 0.299824 
0.313804 0.298767 0.370618 0.212564 0.181928 0.370235 0.202888 0.175917 0.141789 
0.156329 0.1778 0.188658 0.260815 0.271996 0.270938 0.238758 0.218156 0.178881 
0.166522 0.132642 0.169369 0.254879 0.257212 0.189107 0.398857 0.418641 0.431702 
0.366228 0.45246 0.491535 0.282924 0.282924 0.253271 0.176741 0.176741 0.170089 
0.214032 0.249403 0.333666 0.333666 0.316054 0.313856 0.380778 0.346309 0.332911 
0.317436 0.222852 0.173757 0.113495 0.091379 0.091379 0.30076 0.236143 0.309311 
0.198003 0.201173 0.323186 0.23227 0.358792 0.37936 0.340384 0.203888 0.246258 
0.109006 0.111417 0.096039 0.185606 0.277148 0.311443 0.265164 0.263801 0.128128 
0.0185661 0.0372362 0.079827 0.100475 0.0809623 0.0959425 0.0991607 0.0945166 0.122347 
0.568948 0.350637 0.300099 0.240928 0.204146 0.247288 0.392637 0.380163 0.458539 
0.545642 0.469059 0.501465 0.440798 0.440798 0.381675 0.390828 0.390828 0.432054 
0.309141 0.38566 0.295377 0.372887 0.420462 0.519423 0.517919 0.484068 0.313774 
0.261547 0.238264 0.261095 0.273969 0.269547 0.260955 0.309375 0.252654 0.256203 
0.316193 0.182476 0.327205 0.256041 0.217942 0.266907 0.295207 0.247894 0.322247 
0.344555 0.40706 0.495011 0.5711 0.691566 0.71958 0.704193 0.526163 0.270792 
0.290323 0.285947 0.369132 0.45027 0.475904 0.415814 0.461155 0.437922 0.437922 
0.39382 0.399646 0.376644 0.342391 0.417151 0.443917 0.452421 0.37582 0.402135 
0.343077 0.322896 0.401177 0.293082 0.309926 0.34242 0.260678 0.32871 0.176154 
0.150982 0.190737 0.241143 0.0271562 0.115711 0.21669 0.271612 0.316282 0.330945 
0.273395 0.273395 0.269492 0.220986 0.260892 0.235831 0.235202 0.325244 0.238927 
0.258955 0.25674 0.182071 0.331284 0.315068 0.382406 0.441481 0.41964 0.374705 
0.346395 0.381852 0.358693 0.390623 0.40762 0.378331 0.442694 0.523793 0.50413 
0.421182 0.45039 0.398897 0.420887 0.430775 0.363568 0.361628 0.416412 0.365629 
0.358121 0.395655 0.325189 0.388518 0.352277 0.410562 0.544345 0.544345 0.495705 
0.520409 0.520409 0.498961 0.342073 0.29017 0.204278 0.207591 0.267832 0.285571 
0.436381 0.485021 0.441907 0.441907 0.425225 0.360378 0.356639 0.326773 0.292344 
0.237038 0.142852 0.142852 0.152669 0.196357 0.196357 0.182272 0.23228 0.224654 
0.238705 0.283642 0.321653 0.313377 0.268008 0.281828 0.364455 0.471793 0.569525 
0.619639 0.40317 0.412263 0.395803 0.448785 0.531417 0.43216 0.405357 0.411668 
0.329123 0.258058 0.453715 0.340534 0.313277 0.319305 0.385066 0.481054 0.433087 
0.532483 0.347448 0.365682 0.260188 0.326889 0.331417 0.286636 0.179951 0.241675 
0.232307 0.246905 0.229131 0.253916 0.331857 0.331857 0.36576 0.331196 0.410878 
0.313766 0.271087 0.271087 0.211148 0.214999 0.214999 0.132925 0.113767 0.234827 
0.187397 0.178147 0.267958 0.156573 0.181426 0.415403 0.36497 0.268 0.203713 
0.339776 0.410716 0.411877 0.34503 0.320662 0.378946 0.37936 0.404989 0.4243 
0.435233 0.416398 0.294022 0.370891 0.396617 0.420315 0.234696 0.372551 0.394724 
0.375569 0.374641 0.361881 0.365534 0.352061 0.354503 0.32241 0.233315 0.217484 
0.181301 0.266004 0.301549 0.418171 0.359368 0.407792 0.406978 0.420936 0.475698 
0.484491 0.480503 0.468716 0.433512 0.51725 0.485607 0.487789 0.519053 0.563322 
0.563322 0.543236 0.508049 0.508049 0.481142 0.432099 0.432099 0.349055 0.356434 
0.342577 0.398929 0.469762 0.508838 0.176565 0.125033 0.100701 0.127905 0.19501 
0.206711 0.23596 0.282831 0.284459 0.392878 0.438027 0.304501 0.304501 0.265153 
0.326745 0.301199 0.222092 0.205769 0.205769 0.203356 0.535221 0.482156 0.332757 
0.332757 0.344954 0.348482 
WidthEq 1 480 double
1.10801 1.16551 2.5066 1.19575 1.21658 1.08262 1.31525 2.20099 1.02601 
1.54525 2.64248 2.48029 2.13611 1.97667 2.03016 1.36043 2.49657 1.75833 
3.33676 4.13383 3.1945 1.30787 3.55919 2.27375 4.62895 5.23113 2.02209 
3.61905 1.31305 3.883 1.15887 3.21337 4.21636 3.62928 2.20803 3.74812 
4.02181 4.12772 4.22759 4.22666 4.28313 4.3927 4.50855 4.59147 4.34984 
4.44735 4.08642 4.00353 4.09101 4.26835 4.10968 4.22759 4.09692 4.05221 
4.22911 3.99191 4.10559 4.06167 4.0429 4.02805 3.88397 3.59699 3.64171 
3.67254 3.67254 3.56713 3.4446 3.36683 3.43444 3.43444 3.26347 3.53859 
3.33723 3.33972 3.31902 3.53234 3.53234 3.84433 3.82267 3.61367 3.50965 
3.73938 3.63181 3.68138 3.76075 3.89181 3.67663 3.56802 3.20085 3.13929 
3.1459 3.47537 3.31121 3.8842 4.383 2.61703 3.77108 3.91533 4.09676 
3.89812 3.56948 3.29909 3.06666 3.04756 3.1069 3.06334 3.2051 3.60224 
3.9337 4.40582 3.94297 3.45899 2.87507 2.86956 2.32414 2.34953 2.46813 
2.73899 2.54202 2.46192 2.63361 2.63361 2.38162 2.52152 2.52152 2.50242 
2.42949 2.43411 2.63454 2.63454 3.01135 3.28314 3.1066 3.18743 3.03696 
3.18062 3.13533 3.11131 3.33613 3.19856 3.19856 3.90151 3.77251 3.54513 
3.6354 3.52769 3.13301 3.24474 2.89185 2.70869 2.75866 2.66999 2.69793 
3.13391 3.73812 4.07297 2.98643 2.86919 2.65437 2.76145 2.75853 3.29939 
4.06652 4.12423 3.92998 3.81334 4.21669 4.11729 4.10486 4.374 4.20642 
1.98528 2.81228 2.90424 3.03484 3.16085 3.0844 2.50879 2.45122 2.24262 
2.01043 2.14209 2.14278 2.44909 2.44909 2.57418 2.43969 2.43969 1.78963 
3.55683 2.88995 2.71633 1.96501 1.70402 1.54701 1.6095 1.73488 2.13016 
2.24265 2.27876 2.20551 2.15926 2.20009 2.25507 2.27195 2.55374 2.58906 
2.52245 2.51683 2.22697 1.98538 2.03986 1.98956 1.85538 1.87926 1.82445 
1.70139 1.30352 1.15279 1.1106 1 1.03565 1.09634 1.24561 1.99524 
1.68358 1.47887 1.28973 1.16801 1.19751 1.21904 1.28319 1.34691 1.34691 
1.39226 1.3294 1.3879 1.39159 1.39262 1.40741 1.50741 1.72903 1.85312 
2.04441 2.05724 1.89192 2.07474 2.03401 2.10557 2.36208 2.33534 2.96823 
3.15327 3.09533 2.96178 5.25499 4.74217 3.55919 4.44685 3.83493 3.52836 
3.09779 3.09779 2.89753 2.95982 2.95231 2.91929 2.97178 2.84547 3.0868 
3.11135 3.15523 3.41105 3.73088 3.21915 2.26076 2.27325 2.28105 2.43012 
2.46281 2.43896 2.60305 2.46923 2.43693 2.32607 2.20351 2.05986 2.10694 
2.30943 2.19508 2.32627 2.30451 2.22498 2.44358 2.45235 2.23843 2.3862 
2.24544 2.05939 2.35215 2.06551 2.27846 2.15325 1.8485 1.8485 1.90302 
1.81265 1.81265 1.71757 1.87521 1.89893 2.07461 2.1871 2.10242 2.07361 
1.81166 1.80362 1.98215 1.98215 2.06265 2.21717 2.19634 2.22614 1.43724 
1.45701 1.67923 1.67923 1.79182 1.81754 1.81754 1.8877 1.79395 1.85225 
1.87358 1.91734 1.99368 2.25976 2.39893 2.62736 2.42049 2.00116 1.80408 
1.29777 1.3301 1.34767 1.50212 1.4887 1.43618 1.61076 1.44279 1.38325 
1.57279 3.36626 2.74783 2.86873 2.4857 2.16032 2.09438 2.02405 2.34733 
2.23737 2.61155 2.5754 2.61863 3.27494 3.47101 3.45819 3.28769 3.21098 
3.15769 3.02404 2.78603 2.7373 2.58577 2.58577 2.19783 2.20936 2.15444 
2.25434 2.33999 2.33999 2.51587 3.12666 3.12666 3.47553 3.35809 2.8078 
2.62394 2.60371 2.34288 2.73663 2.74906 1.96548 1.9179 1.89465 1.77993 
1.87219 1.87591 2.08066 2.3264 2.56843 2.30398 2.32458 2.16627 2.03335 
2.04837 2.1281 1.75561 1.82019 2.01318 2.06544 2.34899 1.93943 2.01896 
2.05694 2.06464 2.04106 2.03577 2.07096 2.11042 2.1974 2.52175 2.52016 
2.58587 2.2989 2.03039 1.92189 2.23122 2.2575 2.12062 1.81209 1.59249 
1.64408 1.64993 1.64707 1.70528 1.58305 1.49588 1.43319 1.36568 1.22807 
1.22807 1.25807 1.31681 1.31681 1.38099 1.42817 1.42817 2.04102 1.95119 
1.88368 1.52903 1.33143 1.30076 2.64112 3.06145 2.97464 2.96025 2.42534 
2.15876 1.9674 1.9477 2.12145 1.44518 1.33375 1.3481 1.3481 1.24166 
2.15707 2.16773 2.39182 2.49972 2.49972 2.43006 1.18372 1.14784 1.31003 
1.31003 1.22684 1.23568 
rRFP 1 480 double
2576.79 2594.1 2997.77 2603.2 2609.47 2569.15 2639.17 2905.78 2552.11 
2708.4 3038.67 2989.85 2886.25 2838.26 2854.36 2652.77 2994.75 2772.54 
3247.65 3487.57 3204.83 2636.95 3314.6 2927.68 3636.6 3817.86 2851.93 
3332.62 2638.51 3412.07 2592.1 3210.51 3512.41 3335.7 2907.9 3371.47 
3453.85 3485.73 3515.79 3515.51 3532.51 3565.49 3600.36 3625.32 3552.59 
3581.94 3473.3 3448.35 3474.68 3528.06 3480.3 3515.79 3476.46 3463 
3516.25 3444.85 3479.07 3465.85 3460.2 3455.73 3412.36 3325.98 3339.44 
3348.72 3348.72 3316.99 3280.11 3256.7 3277.05 3277.05 3225.59 3308.4 
3247.79 3248.54 3242.31 3306.52 3306.52 3400.43 3393.91 3331 3299.69 
3368.84 3336.46 3351.38 3375.27 3414.72 3349.95 3317.26 3206.74 3188.21 
3190.2 3289.37 3239.96 3412.43 3562.57 3031.01 3378.38 3421.8 3476.41 
3416.62 3317.7 3236.31 3166.35 3160.6 3178.46 3165.35 3208.02 3327.56 
3427.33 3569.44 3430.12 3284.44 3108.68 3107.02 2942.85 2950.49 2986.19 
3067.72 3008.43 2984.32 3036 3036 2960.15 3002.26 3002.26 2996.51 
2974.56 2975.95 3036.28 3036.28 3149.7 3231.51 3178.37 3202.7 3157.41 
3200.65 3187.02 3179.79 3247.46 3206.05 3206.05 3417.64 3378.81 3310.37 
3337.54 3305.12 3186.32 3219.95 3113.73 3058.6 3073.64 3046.95 3055.36 
3186.59 3368.46 3469.25 3142.2 3106.91 3042.25 3074.48 3073.6 3236.4 
3467.31 3484.68 3426.21 3391.1 3512.51 3482.59 3478.85 3559.86 3509.42 
2840.85 3089.78 3117.46 3156.77 3194.7 3171.69 2998.43 2981.1 2918.31 
2848.42 2888.05 2888.26 2980.46 2980.46 3018.11 2977.63 2977.63 2781.96 
3313.89 3113.16 3060.9 2834.75 2756.19 2708.93 2727.74 2765.48 2884.46 
2918.32 2929.19 2907.14 2893.22 2905.51 2922.06 2927.14 3011.96 3022.59 
3002.54 3000.85 2913.6 2840.88 2857.28 2842.14 2801.75 2808.94 2792.44 
2755.4 2635.64 2590.27 2577.57 2544.28 2555.01 2573.28 2618.21 2843.85 
2750.04 2688.42 2631.49 2594.85 2603.73 2610.21 2629.52 2648.7 2648.7 
2662.35 2643.43 2661.04 2662.15 2662.46 2666.91 2697.01 2763.72 2801.07 
2858.65 2862.51 2812.75 2867.78 2855.52 2877.06 2954.27 2946.22 3136.72 
3192.42 3174.98 3134.78 3825.04 3670.68 3314.6 3581.79 3397.6 3305.32 
3175.72 3175.72 3115.44 3134.19 3131.93 3121.99 3137.79 3099.77 3172.41 
3179.8 3193.01 3270.01 3366.28 3212.25 2923.77 2927.53 2929.88 2974.75 
2984.59 2977.41 3026.8 2986.52 2976.8 2943.43 2906.54 2863.3 2877.47 
2938.42 2904 2943.49 2936.94 2913 2978.8 2981.44 2917.05 2961.53 
2919.16 2863.16 2951.28 2865 2929.1 2891.41 2799.68 2799.68 2816.09 
2788.89 2788.89 2760.27 2807.72 2814.86 2867.74 2901.6 2876.11 2867.44 
2788.59 2786.17 2839.91 2839.91 2864.14 2910.65 2904.38 2913.35 2675.89 
2681.84 2748.73 2748.73 2782.62 2790.36 2790.36 2811.48 2783.26 2800.81 
2807.23 2820.4 2843.38 2923.47 2965.36 3034.12 2971.85 2845.63 2786.31 
2633.91 2643.64 2648.93 2695.42 2691.38 2675.57 2728.12 2677.56 2659.64 
2716.69 3256.53 3070.38 3106.77 2991.48 2893.54 2873.69 2852.52 2949.83 
2916.73 3029.36 3018.48 3031.49 3229.04 3288.06 3284.2 3232.88 3209.79 
3193.75 3153.52 3081.88 3067.21 3021.6 3021.6 2904.83 2908.3 2891.77 
2921.84 2947.62 2947.62 3000.56 3184.41 3184.41 3289.42 3254.07 3088.43 