# vtk DataFile Version 3.0
vtk output
ASCII
DATASET POLYDATA
POINTS 374 float
-0.341952 0.933324 0.414594 -0.781002 0.450279 1.46628e-005 0.838973 -1.43182 0.282454 
0.411187 1.22985 -0.192045 -0.642568 -0.0264482 -0.123614 -0.360905 1.05634 -0.217036 
0.0273733 -0.936074 -0.195838 5.78078 0.137515 -0.040729 -0.633498 -0.0194166 -0.86941 
-0.511716 0.626701 -0.76557 3.4994 -0.32757 -0.529027 5.94107 -0.24491 -0.643156 
3.2256 -0.241295 -0.765831 0.866636 -1.72363 -0.886382 2.68337 -0.384955 -1.18624 
0.0350435 -0.666506 -1.5276 -0.316161 -0.0219433 -1.45656 6.16113 -0.414307 -1.14148 
5.29516 0.69674 -1.3876 4.62608 0.697194 -1.54361 2.1896 -1.17518 -1.22991 
1.20384 -1.60154 -1.49296 5.77973 -0.606216 -1.54259 4.6995 0.261364 -1.83077 
5.8825 -0.521844 -1.75275 5.99963 -0.211519 -1.7964 5.47494 -0.356414 -1.80888 
5.44215 -0.0874881 -1.85609 5.68912 0.338114 -1.90992 4.67044 0.362846 -1.78702 
4.64391 0.454516 -1.73268 4.61984 0.542077 -1.6712 4.60624 0.628162 -1.60498 
5.65647 0.409185 -1.85632 5.61123 0.458554 -1.79998 5.55918 0.496197 -1.74215 
5.50124 0.523676 -1.68304 5.4366 0.539616 -1.62247 5.38399 0.578382 -1.55734 
5.34295 0.641283 -1.48038 5.41415 -0.0272799 -1.8681 5.37451 0.0128861 -1.87758 
5.33396 0.0514874 -1.88687 5.29995 0.101352 -1.89757 5.25742 0.136531 -1.90642 
5.20492 0.154532 -1.9131 5.14395 0.157933 -1.91793 5.08992 0.175397 -1.91709 
5.0389 0.202226 -1.90256 4.98136 0.224109 -1.86507 4.91091 0.225292 -1.82001 
4.84005 0.224112 -1.78963 4.77533 0.23928 -1.79669 5.4915 -0.417487 -1.72977 
5.51446 -0.469623 -1.65923 5.55196 -0.50091 -1.60622 5.597 -0.52561 -1.57636 
5.64547 -0.551141 -1.56118 5.70327 -0.578234 -1.55261 5.97135 -0.122444 -1.70787 
5.93824 -0.0458715 -1.63264 5.89371 0.00660554 -1.56924 5.85187 0.0557149 -1.52014 
5.83338 0.11945 -1.47938 5.84459 0.179092 -1.4434 5.86498 0.236728 -1.39891 
5.87785 0.299627 -1.34829 5.87499 0.373071 -1.28547 5.87293 0.445733 -1.20742 
5.84864 0.520055 -1.10861 5.80161 0.577195 -1.001 5.74705 0.624965 -0.892355 
5.69291 0.667383 -0.80536 5.63934 0.704488 -0.740028 5.58384 0.725699 -0.717339 
5.52327 0.727703 -0.729428 5.47241 0.733854 -0.786704 5.42409 0.733916 -0.880428 
5.37219 0.715221 -1.01644 5.33045 0.703559 -1.19055 5.83857 -0.559857 -1.65161 
1.11046 -1.55304 -1.60545 1.05999 -1.50485 -1.68478 1.01735 -1.47152 -1.72344 
0.971146 -1.44442 -1.73872 0.923685 -1.41774 -1.7465 0.87617 -1.39115 -1.75426 
0.828654 -1.36456 -1.76202 0.781139 -1.33797 -1.76979 0.733624 -1.31138 -1.77755 
0.686108 -1.28479 -1.78531 0.638593 -1.2582 -1.79308 0.591132 -1.23151 -1.80085 
0.54458 -1.20326 -1.80882 0.503011 -1.16643 -1.81788 0.469007 -1.11655 -1.82859 
0.427493 -1.07962 -1.83766 0.381904 -1.04971 -1.84585 0.340395 -1.01277 -1.85492 
0.305926 -0.961601 -1.85835 0.263797 -0.919441 -1.84575 0.219544 -0.872342 -1.80402 
0.178477 -0.807566 -1.7349 0.119023 -0.742781 -1.63696 4.63688 0.205391 -1.81576 
4.58641 0.159532 -1.81916 4.55967 0.10875 -1.82509 4.50786 0.0734639 -1.83537 
4.44562 0.0475129 -1.82033 4.39447 0.0162911 -1.7961 4.33984 -0.0120545 -1.76508 
4.30089 -0.0510392 -1.74623 4.2691 -0.0940275 -1.72622 4.22964 -0.131795 -1.70008 
4.17399 -0.157706 -1.65448 4.12062 -0.183956 -1.60113 4.05259 -0.202001 -1.55018 
3.97791 -0.217262 -1.50768 3.90983 -0.23516 -1.45676 3.85572 -0.258673 -1.40391 
3.79492 -0.265914 -1.36179 3.73961 -0.250276 -1.34569 3.6842 -0.233315 -1.33733 
3.6216 -0.226443 -1.32027 3.56508 -0.202797 -1.28301 3.51298 -0.169437 -1.23952 
3.46143 -0.137445 -1.20331 3.40667 -0.118974 -1.18011 3.3482 -0.128411 -1.14498 
3.30452 -0.156516 -1.06806 3.26609 -0.192204 -0.93681 5.79007 -0.661702 -1.32935 
5.79399 -0.688395 -1.12136 5.79306 -0.664407 -0.929713 5.80248 -0.603859 -0.766027 
5.8186 -0.536836 -0.648118 5.8306 -0.471704 -0.582884 5.83284 -0.406818 -0.565964 
5.85142 -0.353331 -0.57611 5.88732 -0.303046 -0.604581 0.0338013 -0.606273 -1.70336 
0.0130485 -0.569188 -1.83898 -0.0131169 -0.526761 -1.92317 -0.0465503 -0.484286 -1.96272 
-0.0785746 -0.430999 -1.97386 -0.114707 -0.378505 -1.96257 -0.145368 -0.308201 -1.92376 
-0.178926 -0.234506 -1.85561 -0.226661 -0.174765 -1.74848 -0.276434 -0.110154 -1.61219 
1.14837 -1.67657 -1.41655 1.08869 -1.71584 -1.34642 1.04355 -1.74649 -1.26917 
0.99673 -1.76863 -1.17089 0.931491 -1.7622 -1.04102 1.30839 -1.60481 -1.48511 
1.37301 -1.58096 -1.48457 1.42955 -1.55033 -1.48574 1.4795 -1.51579 -1.48801 
1.5431 -1.49094 -1.48772 1.61035 -1.4795 -1.48493 1.66952 -1.47988 -1.4732 
1.72671 -1.46002 -1.44994 1.77416 -1.42053 -1.40805 1.83352 -1.3847 -1.35718 
1.89335 -1.34994 -1.31365 1.94163 -1.31152 -1.29411 1.99568 -1.27842 -1.29021 
2.04647 -1.24361 -1.28871 2.11555 -1.21533 -1.27167 4.68614 0.724589 -1.48752 
4.75878 0.745098 -1.452 4.83244 0.768267 -1.42814 4.90558 0.793066 -1.40081 
4.97646 0.819316 -1.35508 5.04139 0.835318 -1.30804 5.09429 0.824289 -1.27992 
5.14344 0.794236 -1.29405 5.18914 0.751931 -1.32896 5.23307 0.706585 -1.36347 
2.22901 -1.09699 -1.18564 2.25374 -1.02738 -1.1372 2.27835 -0.971179 -1.10346 
2.30528 -0.919516 -1.07822 2.34251 -0.876771 -1.07523 2.39385 -0.843792 -1.08468 
2.43312 -0.805918 -1.11084 2.46324 -0.761996 -1.13112 2.49129 -0.715978 -1.14438 
2.51873 -0.668689 -1.15036 2.54617 -0.6214 -1.15634 2.5731 -0.572893 -1.15503 
2.59952 -0.52317 -1.14644 2.62594 -0.473445 -1.13783 2.65389 -0.427373 -1.15111 
6.11165 -0.335187 -0.967454 6.03492 -0.290429 -0.799623 -0.336512 0.0558197 -1.44086 
-0.349346 0.13124 -1.40919 -0.350102 0.201768 -1.3608 -0.36503 0.281965 -1.29996 
-0.391024 0.369078 -1.21847 -0.426124 0.454571 -1.0997 -0.471478 0.533083 -0.942841 
-0.404833 -0.015971 -1.29062 -0.506448 -0.0123641 -1.09507 0.0018473 -0.690326 -1.29258 
0.00142977 -0.715604 -1.08513 0.0287542 -0.726864 -0.915729 0.0654058 -0.732143 -0.769256 
0.102581 -0.738612 -0.630068 0.132708 -0.755521 -0.49717 0.140315 -0.793237 -0.382432 
0.11943 -0.833786 -0.299334 0.0816393 -0.879156 -0.241704 -0.0732443 -0.627932 -1.39858 
-0.134893 -0.569025 -1.30734 -0.183119 -0.520774 -1.25102 -0.226887 -0.474935 -1.21657 
-0.26344 -0.414785 -1.17647 -0.303138 -0.357957 -1.12852 -0.340201 -0.29659 -1.08114 
-0.383808 -0.250693 -1.04669 -0.426585 -0.207239 -1.02683 -0.465732 -0.149712 -1.00153 
-0.529846 -0.0918658 -0.947929 2.75374 -0.353297 -1.11886 2.82411 -0.321641 -1.05148 
2.89443 -0.290079 -0.984085 2.96378 -0.260175 -0.916478 3.0278 -0.241638 -0.854875 
3.08117 -0.246902 -0.805102 3.14137 -0.254434 -0.777054 2.65078 -0.313788 -1.13266 
2.60763 -0.265006 -1.09113 2.56652 -0.221093 -1.07875 2.53953 -0.163319 -1.10534 
2.513 -0.106859 -1.13922 2.47245 -0.0682576 -1.1485 2.42493 -0.0332899 -1.12755 
2.38184 0.0113994 -1.10039 2.35225 0.0751651 -1.09053 2.32367 0.136496 -1.09524 
2.28313 0.175098 -1.10452 2.23708 0.206319 -1.10542 2.19404 0.246904 -1.09263 
2.15698 0.304082 -1.05961 2.1119 0.349539 -1.01765 2.06325 0.386752 -0.982103 
2.02022 0.427346 -0.969311 1.9857 0.478429 -0.972726 1.94418 0.515362 -0.981798 
1.89859 0.545271 -0.98998 1.85657 0.583422 -0.99176 1.82103 0.636939 -0.980602 
1.77641 0.681091 -0.945934 1.72629 0.717864 -0.902876 1.67583 0.751947 -0.866935 
1.62724 0.785066 -0.845752 1.58363 0.826775 -0.825655 1.54657 0.883953 -0.792634 
1.50144 0.929315 -0.750663 1.45183 0.964869 -0.714907 1.40227 0.996329 -0.693514 
1.35227 1.02491 -0.679203 1.29677 1.04612 -0.656514 1.23365 1.05421 -0.632165 
1.17667 1.07497 -0.601974 1.12021 1.09452 -0.579074 1.05653 1.10374 -0.547423 
0.999554 1.1245 -0.517242 0.941557 1.14769 -0.472477 0.876864 1.15935 -0.426244 
0.819377 1.18133 -0.388771 0.763418 1.19966 -0.373162 0.701782 1.20401 -0.370667 
0.646738 1.2198 -0.369622 0.588325 1.23733 -0.346522 0.509402 1.23777 -0.284368 
5.90686 -0.131346 -0.526498 5.87338 -0.027448 -0.388114 5.83375 0.0650542 -0.223155 
3.28864 -0.290319 -0.745705 3.34127 -0.320028 -0.714481 3.39251 -0.330307 -0.66402 
3.44955 -0.323856 -0.600886 -0.5894 0.61592 -0.701446 -0.656881 0.599428 -0.635664 
-0.70176 0.571797 -0.553525 -0.737502 0.542287 -0.431724 -0.767029 0.507666 -0.244113 
-0.537067 0.716584 -0.67697 -0.551101 0.798272 -0.60126 -0.539658 0.864769 -0.528763 
-0.509193 0.920622 -0.453147 -0.462812 0.9685 -0.367577 -0.418706 1.01672 -0.289733 
-0.724401 0.137866 -0.574038 -0.771735 0.286856 -0.282833 -0.659971 -0.0413273 -0.493718 
-0.0652617 -0.945043 -0.233437 -0.121481 -0.921516 -0.263879 -0.150434 -0.863048 -0.285709 
-0.172505 -0.793169 -0.301435 -0.199599 -0.731388 -0.313648 -0.24015 -0.692796 -0.322929 
-0.286593 -0.664357 -0.330926 -0.333545 -0.634701 -0.331632 -0.375624 -0.592456 -0.319048 
-0.405776 -0.52337 -0.287533 -0.431454 -0.444475 -0.249803 -0.461556 -0.375303 -0.218299 
-0.503122 -0.330078 -0.198647 -0.544563 -0.285199 -0.181439 -0.574767 -0.216313 -0.159925 
-0.604085 -0.12966 -0.138806 0.0493512 -1.01623 -0.123199 0.0759895 -1.07953 -0.0806521 
0.115431 -1.11997 -0.0661282 0.153669 -1.15704 -0.0371824 0.178111 -1.20873 0.0258528 
0.200568 -1.25545 0.118032 0.235564 -1.28056 0.207478 0.277021 -1.29664 0.288346 
0.321368 -1.31192 0.354223 0.371774 -1.32096 0.404418 0.431217 -1.32071 0.431113 
0.483261 -1.33739 0.445069 0.526811 -1.37082 0.453697 0.56784 -1.40859 0.462873 
0.630334 -1.41146 0.460191 0.704329 -1.4008 0.433472 0.776845 -1.40316 0.371192 
-0.354587 1.01534 -0.00649291 -0.34827 0.97433 0.204051 -0.331607 1.10259 -0.222714 
-0.292193 1.14318 -0.226738 -0.231164 1.17167 -0.227231 -0.171612 1.20099 -0.227966 
-0.140788 1.24626 -0.233373 -0.123929 1.29715 -0.240694 -0.0776502 1.31718 -0.248335 
-0.0240571 1.30262 -0.264739 0.0342666 1.2825 -0.302464 0.104402 1.28232 -0.342703 
0.174376 1.28605 -0.368547 0.234284 1.28278 -0.356281 0.295121 1.28484 -0.322262 
0.350749 1.26868 -0.26298 -0.659289 0.0941262 0.00814564 -0.662903 0.183071 0.103808 
-0.677967 0.261195 0.128771 -0.713267 0.345166 0.0879072 0.373249 1.17467 -0.0575025 
0.335839 1.13655 0.0591672 0.291597 1.10956 0.143386 0.231177 1.10075 0.193328 
0.171633 1.10507 0.211025 0.112507 1.09002 0.216936 0.0619094 1.05789 0.218766 
-0.00320347 1.03274 0.225946 -0.0779251 1.01471 0.246316 -0.154175 1.00033 0.288551 
-0.222401 0.982389 0.339481 -0.276932 0.955854 0.385264 -0.678452 0.502852 0.124225 
-0.607968 0.548119 0.208695 -0.569613 0.596678 0.249505 -0.542485 0.64823 0.275057 
-0.518007 0.70277 0.31282 -0.493529 0.757312 0.350594 -0.466459 0.808538 0.374041 
-0.429231 0.851282 0.377034 -0.379328 0.887865 0.389463 
LINES 32 443
9 28 33 34 35 36 37 38 39 18 
15 27 40 41 42 43 44 45 46 47 48 49 50 51 52 23 
8 26 53 54 55 56 57 58 22 
23 25 59 60 61 62 63 64 65 66 67 68 69 70 71 72 73 74 75 76 77 78 79 18 
3 24 80 22 
25 21 81 82 83 84 85 86 87 88 89 90 91 92 93 94 95 96 97 98 99 100 101 102 103 15 
29 23 104 105 106 107 108 109 110 111 112 113 114 115 116 117 118 119 120 121 122 123 124 125 126 127 128 129 130 12 
11 22 131 132 133 134 135 136 137 138 139 11 
12 15 140 141 142 143 144 145 146 147 148 149 16 
7 21 150 151 152 153 154 13 
4 17 195 196 11 
9 16 197 198 199 200 201 202 203 9 
4 16 204 205 8 
11 15 206 207 208 209 210 211 212 213 214 6 
13 15 215 216 217 218 219 220 221 222 223 224 225 8 
9 14 226 227 228 229 230 231 232 12 
48 14 233 234 235 236 237 238 239 240 241 242 243 244 245 246 247 248 249 250 251 252 253 254 255 256 257 258 259 260 261 262 263 264 265 266 267 268 269 270 271 272 273 274 275 276 277 278 3 
5 11 279 280 281 7 
6 12 282 283 284 285 10 
7 9 286 287 288 289 290 1 
8 9 291 292 293 294 295 296 5 
4 8 297 298 1 
3 8 299 4 
18 6 300 301 302 303 304 305 306 307 308 309 310 311 312 313 314 315 4 
19 6 316 317 318 319 320 321 322 323 324 325 326 327 328 329 330 331 332 2 
4 5 333 334 0 
16 5 335 336 337 338 339 340 341 342 343 344 345 346 347 348 3 
6 4 349 350 351 352 1 
14 3 353 354 355 356 357 358 359 360 361 362 363 364 0 
11 1 365 366 367 368 369 370 371 372 373 0 
17 23 29 30 31 32 19 170 171 172 173 174 175 176 177 178 179 18 
33 21 155 156 157 158 159 160 161 162 163 164 165 166 167 168 169 20 180 181 182 183 184 185 186 187 188 189 190 191 192 193 194 14 

POINT_DATA 374
SCALARS DY_raw double
LOOKUP_TABLE default
225.65 162.46 171.225 153.118 150.329 138.689 131.037 208.927 112.529 
189.786 400.573 183.585 216.55 214.487 135.378 127.894 166.903 195.318 
163.094 149.622 147.197 136.018 164.836 223.003 166.113 194.048 196.015 
236.052 164.897 205.548 198.016 168.696 143.595 192.206 200.745 186.838 
202.872 200.619 184.587 196.443 242.213 239.451 252.192 252.192 260.754 
286.71 286.71 260.515 275.807 292.332 309.879 277.522 266.331 153.546 
147.63 154.625 154.597 164.486 161.93 184.819 191.986 193.094 191.393 
181.021 189.762 193.969 175.183 184.755 173.432 166.659 170.942 188.481 
186.832 204.215 225.643 231.034 256.178 224.656 229.893 203.72 159.454 
141.431 149.653 154.581 196.57 183.961 183.961 182.956 182.685 182.685 
171.994 171.994 175.601 181.558 181.558 189.996 186.904 172.514 153.594 
118.77 115.494 131.833 141.916 136.574 210.922 250.563 280.778 225.048 
288.578 283.214 302.705 299.564 209.607 216.901 195.132 166.99 135.528 
163.596 142.508 146.685 159.272 138.718 140.415 161.417 160.864 138.173 
152.764 151.663 158.389 170.886 180.831 167.077 151.952 151.931 167.141 
176.447 186.8 194.903 195.34 193.253 121.886 135.018 128.387 121.241 
114.886 111.906 121.675 111.13 127.307 152.038 138.541 151.038 146.982 
154.8 157.777 145.965 163.959 153.237 170.31 175.158 153.846 153.587 
154.013 171.695 160.655 180.808 172.538 141.14 134.102 137.967 156.096 
169.285 164.84 186.908 173.243 162.414 172.447 166.426 180.395 173.804 
156.773 161.809 166.647 170.873 170.873 171.723 152.596 152.596 156.938 
155.055 155.055 156.156 147.932 163.553 141.733 218.429 196.579 156.5 
152.225 139.305 150.076 121.874 126.037 154.103 142.811 111.908 149.625 
157.012 140.315 144.875 156.081 158.383 147.024 140.378 134.846 119.933 
122.882 128.611 144.254 155.626 151.354 156.416 148.249 139.145 133.93 
126.869 155.503 147.155 186.668 187.349 181.753 194.234 211.58 148.682 
160.535 186.476 163.308 191.389 200.798 191.549 186.59 181.921 168.452 
141.542 128.294 129.732 146.367 165.434 159.811 150.902 150.902 146.566 
130.147 130.147 148.691 164.391 180.965 152.779 167.833 125.383 120.1 
135.873 139.465 139.535 139.535 130.254 124.992 120.925 140.954 136.025 
115.93 120.527 142.892 139.899 141.479 141.479 120.949 106.933 133.04 
171.664 183.101 217.947 230.247 251.829 290.696 410.678 179.078 171.424 
182.73 175.413 155.254 166.801 131.22 148.145 151.769 117.022 139.486 
152.116 162.742 194.821 134.71 135.249 148.224 163.727 171.656 155.726 
147.453 154.706 156.439 142.512 139.828 148.25 147.571 132.768 137.642 
151.638 146.689 166.112 162.174 154.654 144.133 153.268 146.588 143.051 
157.577 154.683 154.683 147.729 156.459 156.459 159.093 190.463 152.659 
147.702 162.366 134.528 134.528 119.572 132.715 132.715 128.365 142.157 
146.439 143.915 111.93 127.649 139.161 143.195 148.038 175.048 178.448 
169.291 157.544 174.981 181.568 180.788 163.273 170.753 172.166 177.53 
180.238 174.729 194.338 207.17 213.297 160.998 179.943 187.645 175.774 
164.204 180.859 180.859 195.493 195.493 
FIELD FieldData 7
DY_minmax 1 374 double
0.390846 0.182809 0.211664 0.152054 0.142869 0.104548 0.0793556 0.33579 0.0184248 
0.272773 0.966731 0.252357 0.360886 0.354095 0.0936497 0.0690101 0.197435 0.290984 
0.184894 0.140542 0.13256 0.095754 0.190633 0.382131 0.194835 0.286805 0.293279 
0.425091 0.190833 0.324663 0.299866 0.203337 0.1207 0.280739 0.308851 0.263067 
0.315856 0.308438 0.255656 0.29469 0.445376 0.43628 0.478226 0.478226 0.506415 
0.591869 0.591869 0.505628 0.555975 0.610376 0.668145 0.561618 0.524775 0.153462 
0.133986 0.157014 0.156921 0.18948 0.181063 0.256421 0.280014 0.283664 0.278061 
0.243916 0.272693 0.286543 0.224696 0.25621 0.218931 0.196633 0.210734 0.268477 
0.263046 0.320277 0.390823 0.408569 0.491349 0.387571 0.404814 0.318647 0.172911 
0.113577 0.140646 0.15687 0.295106 0.253594 0.253594 0.250286 0.249393 0.249393 
0.214196 0.214196 0.226071 0.245683 0.245683 0.273462 0.263286 0.21591 0.153619 
0.0389713 0.0281852 0.0819777 0.115173 0.0975856 0.342356 0.472865 0.572339 0.388863 
0.598018 0.580358 0.644528 0.634186 0.338028 0.362042 0.290372 0.197722 0.0941424 
0.18655 0.117122 0.130874 0.172313 0.104646 0.110232 0.179375 0.177553 0.102849 
0.150887 0.147263 0.169405 0.210548 0.24329 0.198009 0.148215 0.148143 0.19822 
0.228858 0.26294 0.289618 0.291057 0.284188 0.0492306 0.0924617 0.0706324 0.0471065 
0.0261851 0.0163738 0.048536 0.0138183 0.0670769 0.148496 0.104061 0.145206 0.131851 
0.157589 0.167392 0.128502 0.187745 0.152443 0.208653 0.224615 0.154448 0.153597 
0.155 0.213212 0.176866 0.243216 0.215989 0.112619 0.0894482 0.102171 0.161856 
0.205279 0.190643 0.263298 0.21831 0.182656 0.215688 0.195866 0.241856 0.220157 
0.164087 0.180667 0.196592 0.210505 0.210505 0.213305 0.150335 0.150335 0.164629 
0.158429 0.158429 0.162055 0.134979 0.186408 0.11457 0.36707 0.295136 0.163186 
0.149112 0.106578 0.142037 0.0491903 0.0628963 0.155295 0.118118 0.0163802 0.140554 
0.164872 0.109902 0.124915 0.161807 0.169385 0.131989 0.11011 0.0918977 0.0427998 
0.0525079 0.0713692 0.122871 0.160309 0.146245 0.16291 0.136023 0.106051 0.0888809 
0.0656346 0.159903 0.132421 0.262508 0.26475 0.246325 0.287416 0.344524 0.137448 
0.176473 0.261874 0.185601 0.278051 0.309027 0.278577 0.262251 0.24688 0.202535 
0.113941 0.0703272 0.0750592 0.129825 0.192599 0.174088 0.144759 0.144759 0.130482 
0.0764273 0.0764273 0.137479 0.189167 0.243731 0.150935 0.200497 0.0607433 0.0433482 
0.095279 0.107103 0.107334 0.107334 0.0767795 0.0594543 0.0460672 0.112005 0.0957782 
0.0296197 0.0447571 0.118386 0.108534 0.113735 0.113735 0.0461441 0 0.085951 
0.21311 0.250764 0.365486 0.40598 0.477031 0.604992 1 0.237521 0.212321 
0.249542 0.225454 0.159086 0.1971 0.0799603 0.135681 0.147613 0.0332147 0.107172 
0.148754 0.183737 0.289348 0.0914482 0.0932241 0.135942 0.186978 0.213083 0.16064 
0.133402 0.157281 0.162987 0.117134 0.108297 0.136027 0.133791 0.0850554 0.101102 
0.147181 0.130887 0.194831 0.181866 0.157109 0.122471 0.152547 0.130555 0.11891 
0.166733 0.157203 0.157203 0.134312 0.163052 0.163052 0.171724 0.275001 0.150543 
0.134222 0.182501 0.0908493 0.0908493 0.0416107 0.0848813 0.0848813 0.0705605 0.115967 
0.130065 0.121754 0.0164507 0.0682018 0.106102 0.119384 0.135329 0.224251 0.235446 
0.205299 0.166622 0.224031 0.245718 0.243149 0.185485 0.210111 0.214763 0.232423 
0.241339 0.2232 0.287757 0.330005 0.350177 0.177997 0.240367 0.265723 0.226643 
0.188551 0.243383 0.243383 0.29156 0.29156 
WidthEq 1 374 double
2.18594 4.62488 2.7955 3.25022 4.50026 3.23962 5.1519 1.98451 6.24245 
4.24819 1.10886 4.31407 2.34753 3.19249 3.43621 4.69089 4.55036 2.73497 
4.37122 3.05309 2.82022 3.57805 4.40126 2.45727 3.66352 2.23175 1.67486 
1.72211 3.22921 2.6316 2.73831 2.90113 3.07698 2.9936 2.96904 3.39218 
3.30995 3.57976 4.01002 3.94403 2.00562 1.92795 2.01429 2.01429 1.92349 
1.95385 1.95385 2.11292 2.02082 1.82641 1.78163 2.09504 2.12021 2.07936 
1.86593 2.23999 3.3542 3.8566 4.21274 3.01628 3.29893 3.36793 3.632 
3.82115 3.747 3.69084 4.09354 4.03831 4.40408 4.5098 4.24692 4.01927 
3.58391 3.38406 2.99423 2.7576 2.69808 2.97828 3.32202 3.42056 4.36797 
3.29127 2.96223 2.67204 2.27048 2.35457 2.35457 2.59422 2.80176 2.80176 
3.08103 3.08103 3.16615 3.17408 3.17408 3.18327 3.18424 3.4157 3.61049 
3.83757 4.04998 3.9782 4.04068 4.34115 2.42591 2.13474 1.85527 2.0037 
1.70206 1.80439 1.66452 1.744 2.3074 2.18052 2.57476 2.97472 3.11395 
3.05867 3.28801 3.24156 3.00849 3.17671 3.07366 2.92459 2.89828 3.15727 
2.99703 3.09856 2.85095 2.59535 2.51201 4.23552 4.77879 5.23363 4.91482 
4.41638 4.11397 3.73554 3.74607 3.93441 4.34805 3.79897 3.73564 3.6593 
3.93544 4.25435 4.23494 4.52783 4.39361 4.27274 3.86578 3.87331 4.1422 
4.2801 4.15629 3.19234 2.86131 2.79364 2.70318 2.61454 2.71869 2.74266 
2.80689 2.81568 2.78988 2.79179 2.84799 3.00069 3.11306 3.02796 2.92903 
2.69668 2.564 2.56408 2.78809 3.78816 3.66813 4.06149 4.2312 4.35632 
2.7657 2.64724 2.51489 2.43619 2.43619 2.49604 2.63701 2.63701 2.60777 
2.47969 2.47969 2.50575 2.67182 2.60721 3.19635 3.04941 3.68375 4.56869 
4.69785 4.25072 4.27922 4.14853 4.19978 4.32203 4.91762 5.86917 4.53605 
3.90702 4.17082 4.45597 4.55711 4.69526 4.72596 4.87304 5.11841 4.92857 
4.8636 4.83885 4.26142 3.99823 4.28022 4.42102 4.82147 5.03285 5.22122 
5.37947 3.07723 3.19703 2.75745 2.50067 2.41629 2.32399 2.26164 3.38762 
3.15256 2.54128 2.70249 2.33084 2.23861 2.3113 2.36592 2.44621 2.47227 
2.81357 2.90884 3.01367 2.9758 2.81477 2.76838 2.95753 2.95753 2.92891 
3.28719 3.28719 3.10413 2.96669 2.83524 3.02044 2.93481 3.02017 3.01357 
2.89835 2.73286 2.77943 2.77943 2.91644 3.12627 3.22958 3.14669 3.30151 
3.64677 3.66894 3.40263 3.34174 3.47802 3.47802 3.57596 3.67874 3.56951 
4.75795 4.26064 2.94116 2.257 1.98233 1.63524 1 4.46948 4.0367 
3.80336 3.97312 4.36894 4.62442 4.48565 4.35382 4.04573 3.93738 3.57053 
5.12673 4.34957 3.8388 4.486 4.1107 3.90481 3.33427 3.67869 3.61119 
3.4307 3.85594 3.60401 3.75252 3.60836 3.87034 3.50718 3.96887 4.08631 
4.14914 5.17004 4.83198 4.775 3.80397 3.29792 3.39358 3.33327 3.41422 
3.30688 3.48092 3.48092 3.66649 3.64931 3.64931 3.90915 3.37671 3.94026 
2.99094 2.92763 3.06589 3.06589 2.69393 2.61875 2.61875 2.6264 2.60485 
2.61629 2.65885 2.84356 2.72081 2.86976 2.94995 3.14627 4.03917 3.89165 
4.50902 4.83021 2.88939 2.5815 2.37902 2.52429 2.32463 2.4345 2.45912 
2.4963 2.76593 2.34503 2.333 2.35065 4.77668 4.33253 4.05169 3.90807 
3.36896 2.85984 2.85984 2.421 2.421 
rRFP 1 374 double
3536.7 4982.04 3897.93 4167.4 4908.19 4161.12 5294.36 3417.33 5940.63 
4758.81 2898.41 4797.85 3632.46 4133.19 4277.62 5021.16 4937.88 3862.06 
4831.72 4050.58 3912.58 4361.68 4849.52 3697.49 4412.33 3563.85 3233.83 
3261.83 4154.95 3800.8 3864.04 3960.53 4064.74 4015.33 4000.77 4251.53 
4202.8 4362.69 4617.67 4578.56 3429.84 3383.81 3434.98 3434.98 3381.17 
3399.16 3399.16 3493.43 3438.85 3323.64 3297.1 3482.83 3497.75 3473.54 
3347.06 3568.73 4229.02 4526.75 4737.8 4028.77 4196.27 4237.16 4393.65 
4505.74 4461.8 4428.52 4667.16 4634.43 4851.19 4913.84 4758.06 4623.15 
4365.15 4246.72 4015.7 3875.47 3840.2 4006.25 4209.95 4268.35 4829.79 
4191.73 3996.74 3824.77 3586.8 3636.63 3636.63 3778.65 3901.64 3901.64 
4067.14 4067.14 4117.58 4122.28 4122.28 4127.73 4128.3 4265.47 4380.9 
4515.47 4641.35 4598.81 4635.84 4813.9 3678.91 3506.36 3340.74 3428.7 
3249.95 3310.59 3227.7 3274.8 3608.68 3533.49 3767.12 4004.14 4086.65 
4053.89 4189.8 4162.27 4024.15 4123.84 4062.77 3974.43 3958.84 4112.32 
4017.36 4077.53 3930.79 3779.32 3729.93 4751.3 5073.25 5342.79 5153.86 
4858.48 4679.27 4455.01 4461.25 4572.86 4817.99 4492.6 4455.07 4409.83 
4573.47 4762.46 4750.96 4924.53 4844.99 4773.36 4532.19 4536.65 4696 
4777.72 4704.35 4133.1 3936.93 3896.83 3843.22 3790.69 3852.41 3866.62 
3904.68 3909.89 3894.6 3895.73 3929.04 4019.53 4086.12 4035.69 3977.06 
3839.37 3760.74 3760.79 3893.54 4486.19 4415.06 4648.17 4748.74 4822.89 
3880.27 3810.07 3731.64 3685 3685 3720.47 3804.01 3804.01 3786.68 
3710.78 3710.78 3726.22 3824.64 3786.35 4135.48 4048.4 4424.32 4948.74 
5025.28 4760.31 4777.2 4699.75 4730.12 4802.57 5155.52 5719.42 4929.4 
4556.63 4712.96 4881.94 4941.88 5023.75 5041.94 5129.1 5274.51 5162.01 
5123.51 5108.84 4766.65 4610.68 4777.79 4861.23 5098.54 5223.81 5335.44 
5429.22 4064.89 4135.88 3875.38 3723.21 3673.21 3618.51 3581.56 4248.83 
4109.53 3747.28 3842.81 3622.57 3567.91 3610.99 3643.36 3690.94 3706.38 
3908.64 3965.1 4027.22 4004.78 3909.35 3881.86 3993.95 3993.95 3976.99 
4189.31 4189.31 4080.83 3999.38 3921.48 4031.23 3980.49 4031.07 4027.16 
3958.88 3860.81 3888.41 3888.41 3969.6 4093.95 4155.17 4106.05 4197.8 
4402.4 4415.54 4257.72 4221.64 4302.4 4302.4 4360.44 4421.35 4356.62 
5060.9 4766.19 3984.25 3578.81 3416.04 3210.35 2833.9 4889.95 4633.48 
4495.2 4595.8 4830.37 4981.77 4899.53 4821.41 4638.83 4574.62 4357.22 
5279.44 4818.89 4516.2 4899.74 4677.33 4555.32 4217.21 4421.32 4381.32 
4274.36 4526.36 4377.06 4465.07 4379.64 4534.89 4319.68 4593.28 4662.88 
4700.11 5305.11 5104.77 5071 4495.56 4195.67 4252.36 4216.62 4264.59 
4200.98 4304.12 4304.12 4414.09 4403.91 4403.91 4557.89 4242.36 4576.33 
4013.75 3976.23 4058.17 4058.17 3837.74 3793.19 3793.19 3797.72 3784.95 
3791.73 3816.95 3926.41 3853.67 3941.94 3989.46 4105.8 4634.94 4547.52 
4913.38 5103.72 3953.57 3771.11 3651.12 3737.21 3618.89 3684 3698.59 
3720.62 3880.41 3630.98 3623.85 3634.31 5072 4808.79 4642.36 4557.25 
4237.77 3936.06 3936.06 3676 3676 
rGFP 1 374 double
2805.07 3063.17 2790.47 2809.48 2988.33 2761.11 2986.9 2726.43 3014.27 
3118.06 2755.99 3103.81 2820.17 2996.56 2777 2911.75 3071.28 2846 
3024.73 2768.62 2726.94 2798.49 3037.3 2859.79 2920.37 2744.88 2640.11 
2718.32 2844.3 2852.73 2854.04 2801.22 2753.65 2887.2 2907.83 2945.6 
2983.31 3029.98 3052.01 3086.59 2797.6 2773.46 2819.8 2819.8 2813.37 
2872 2872 2862.26 2869.17 2845.73 2863.9 2893.23 2876.49 2631.09 
2587.28 2658.17 2830.36 2946.17 2993.98 2869.28 2945.16 2962.14 3006.95 
3003.52 3022.85 3027.72 3028.93 3057.91 3075.62 3063.41 3037.79 3069.37 
2981.4 3002.89 2987.44 2948.91 3003 2980.9 3075.52 3008.65 3008.3 
2777.3 2755.12 2724.86 2758.12 2744.96 2744.96 2786.44 2823.65 2823.65 
2841.73 2841.73 2867.79 2888.09 2888.09 2916.62 2906.96 2901.07 2866.36 
2767.6 2779.56 2836.27 2885.25 2904.7 2823.49 2846.7 2832.73 2762.74 
2802.99 2822.84 2815.67 2834.25 2795.46 2784.77 2814.23 2808.56 2733.84 
2812.2 2780.38 2787.3 2790.98 2752.48 2743.4 2783.89 2778.04 2748.06 
2769.65 2781.75 2763.37 2755.32 2766.06 3019.47 3037.96 3106.96 3133.28 
3091.07 3080.3 3039.88 3043.57 3072.15 2841.78 2824.74 2791.42 2755.47 
2763.94 2787.9 2827.1 2814.99 2871.15 2961.43 2847.38 2896.83 2920.64 
2974.37 2967.58 2777.78 2780.95 2739.9 2772.19 2769.77 2730.07 2733.05 
2744.11 2795.25 2760.02 2816.59 2803.2 2735.33 2729.28 2729.57 2769.02 
2768.32 2734.46 2791.06 2794.83 2927.06 2944.37 2987.75 3075.1 3068.96 
2745.4 2740.16 2730.91 2728.09 2728.09 2740.44 2714.21 2714.21 2721.07 
2696.3 2696.3 2703.1 2707.06 2738.23 2764.84 2977.89 3035.96 3026.81 
3026.94 2903.96 2954.02 2817.41 2841.14 2977.85 3014.1 2968.62 2990.52 
2925.26 2897.04 2957.37 3023.09 3055.46 3006.64 2995.88 3002.01 2902.91 
2909.46 2934.14 2926.54 2934.04 2959.64 3003.33 3026.59 3012.11 3011.09 
2994.3 2790.33 2782.27 2826.54 2780.31 2750.98 2763.21 2790.33 2815.49 
2817.91 2785.7 2753.15 2757.91 2761.32 2754.54 2753.27 2756.83 2728.27 
2710.05 2685 2702.78 2747.37 2777.47 2754.23 2758.11 2758.11 2741.09 
2739.63 2739.63 2773.37 2799.51 2824.89 2773.27 2804.37 2690.49 2673.74 
2705.62 2692.95 2699.64 2699.64 2691.69 2702.57 2702.35 2755.35 2760.9 
2734.58 2754.02 2798.02 2779.32 2803.88 2803.88 2744.32 2705.19 2786.7 
3128.58 3091.94 2952.83 2831.48 2811.02 2787.17 2722.49 3112.2 3003.8 
3006.8 3008.75 2990.11 3083.17 2900.42 2956.81 2925.83 2772.57 2809.85 
3091.67 3019.67 3059.69 2916.12 2867.78 2890.6 2857.72 2943.28 2874.17 
2817.68 2908.35 2875.62 2846.59 2816.36 2885.59 2829.37 2838.75 2874.26 
2940.98 3070.2 3114.46 3086.19 2900.11 2787.15 2831.94 2800.43 2800.22 
2832.9 2850.25 2850.25 2853.46 2882.78 2882.78 2933.73 2954.95 2913.33 
2753.58 2787.16 2724.26 2724.26 2633.93 2659.36 2659.36 2648.95 2682.11 
2694.94 2694.46 2630.09 2659.12 2711.17 2734.23 2777.58 3018.86 3006.27 
3075.15 3072.78 2817.4 2780.53 2741.91 2723.96 2708.75 2730.95 2748.38 
2761.74 2795.1 2767.54 2795.14 2813.2 3080.85 3091.42 3072.09 2998.75 
2865.01 2829.04 2829.04 2785.1 2785.1 
bkstRFP 1 374 double
1295.41 2740.75 1656.64 1926.11 2666.9 1919.83 3053.07 1176.04 3699.34 
2517.52 657.12 2556.56 1391.17 1891.9 2036.33 2779.87 2696.59 1620.77 
2590.43 1809.29 1671.29 2120.39 2608.23 1456.2 2171.04 1322.56 992.54 
1020.54 1913.66 1559.51 1622.75 1719.24 1823.45 1774.04 1759.48 2010.24 
1961.51 2121.4 2376.38 2337.27 1188.55 1142.52 1193.69 1193.69 1139.88 
1157.87 1157.87 1252.14 1197.56 1082.35 1055.81 1241.54 1256.46 1232.25 
1105.77 1327.44 1987.73 2285.46 2496.51 1787.48 1954.98 1995.87 2152.36 
2264.45 2220.51 2187.23 2425.87 2393.14 2609.9 2672.55 2516.77 2381.86 
2123.86 2005.43 1774.41 1634.18 1598.91 1764.96 1968.66 2027.06 2588.5 
1950.44 1755.45 1583.48 1345.51 1395.34 1395.34 1537.36 1660.35 1660.35 
1825.85 1825.85 1876.29 1880.99 1880.99 1886.44 1887.01 2024.18 2139.61 
2274.18 2400.06 2357.52 2394.55 2572.61 1437.62 1265.07 1099.45 1187.41 
1008.66 1069.3 986.41 1033.51 1367.39 1292.2 1525.83 1762.85 1845.36 
1812.6 1948.51 1920.98 1782.86 1882.55 1821.48 1733.14 1717.55 1871.03 
1776.07 1836.24 1689.5 1538.03 1488.64 2510.01 2831.96 3101.5 2912.57 
2617.19 2437.98 2213.72 2219.96 2331.57 2576.7 2251.31 2213.78 2168.54 
2332.18 2521.17 2509.67 2683.24 2603.7 2532.07 2290.9 2295.36 2454.71 
2536.43 2463.06 1891.81 1695.64 1655.54 1601.93 1549.4 1611.12 1625.33 
1663.39 1668.6 1653.31 1654.44 1687.75 1778.24 1844.83 1794.4 1735.77 
1598.08 1519.45 1519.5 1652.25 2244.9 2173.77 2406.88 2507.45 2581.6 
1638.98 1568.78 1490.35 1443.71 1443.71 1479.18 1562.72 1562.72 1545.39 
1469.49 1469.49 1484.93 1583.35 1545.06 1894.19 1807.11 2183.03 2707.45 
2783.99 2519.02 2535.91 2458.46 2488.83 2561.28 2914.23 3478.13 2688.11 
2315.34 2471.67 2640.65 2700.59 2782.46 2800.65 2887.81 3033.22 2920.72 
2882.22 2867.55 2525.36 2369.39 2536.5 2619.94 2857.25 2982.52 3094.15 
3187.93 1823.6 1894.59 1634.09 1481.92 1431.92 1377.22 1340.27 2007.54 
1868.24 1505.99 1601.52 1381.28 1326.62 1369.7 1402.07 1449.65 1465.09 
1667.35 1723.81 1785.93 1763.49 1668.06 1640.57 1752.66 1752.66 1735.7 
1948.02 1948.02 1839.54 1758.09 1680.19 1789.94 1739.2 1789.78 1785.87 
1717.59 1619.52 1647.12 1647.12 1728.31 1852.66 1913.88 1864.76 1956.51 
2161.11 2174.25 2016.43 1980.35 2061.11 2061.11 2119.15 2180.06 2115.33 
2819.61 2524.9 1742.96 1337.52 1174.75 969.06 592.61 2648.66 2392.19 
2253.91 2354.51 2589.08 2740.48 2658.24 2580.12 2397.54 2333.33 2115.93 
3038.15 2577.6 2274.91 2658.45 2436.04 2314.03 1975.92 2180.03 2140.03 