# vtk DataFile Version 3.0
vtk output
ASCII
DATASET POLYDATA
POINTS 580 float
0.87235 0.243458 1.59663 0.758036 0.282418 1.43839 0.390342 -0.299221 1.36682 
0.249671 -0.363444 1.30512 -0.157831 -0.503969 0.967562 0.119547 -1.32014 1.00947 
-0.431122 0.978676 0.18284 0.120337 -1.22528 0.774523 -0.354958 -0.784925 0.476717 
-0.750063 -0.223641 0.150746 5.64287 0.469229 0.286989 -0.102791 -1.18811 -0.154976 
-0.709651 -0.329408 -0.510817 5.65191 0.679346 -0.396399 2.27465 0.934652 -0.716678 
1.70687 1.08891 -1.06224 5.42818 -0.639032 -0.249939 5.68801 0.815398 -0.640348 
3.64008 -0.586336 -0.639299 4.31192 0.937485 -0.775934 5.33743 -0.102656 -0.615936 
4.92517 -0.144878 -0.634369 4.37938 0.28769 -0.796308 4.09018 0.032626 -0.745761 
3.7055 -0.138 -0.795447 5.92816 0.954405 -1.07842 4.8501 -0.00142537 -0.888579 
4.44882 0.051414 -0.93297 4.01169 -0.293949 -0.867878 3.99613 -0.1202 -0.917944 
3.27598 0.0815942 -1.02773 5.42587 0.133535 -1.09253 3.54867 -0.246588 -1.12356 
4.85294 -0.769716 -1.08864 3.45931 -0.8874 -1.158 5.11825 0.29159 -1.57625 
5.12152 0.393245 -1.88236 5.9222 -0.638887 -1.67172 5.57768 -0.711745 -1.67655 
5.58191 0.146918 -1.98744 5.74537 0.479876 -2.20417 5.71506 0.0358654 -2.08524 
5.74373 0.409619 -2.24237 5.72881 0.34504 -2.29086 5.69853 0.289896 -2.33157 
5.65678 0.250904 -2.3378 5.60858 0.228071 -2.2912 5.5882 0.193047 -2.16712 
5.79001 0.531944 -2.17312 5.85871 0.563276 -2.12674 5.9288 0.593804 -2.05304 
5.98602 0.639752 -1.94219 6.01248 0.702161 -1.80352 6.00897 0.760613 -1.63508 
5.98767 0.821353 -1.45317 5.95287 0.891949 -1.26731 5.72434 -0.0486132 -2.09935 
5.73205 -0.127084 -2.09211 5.7382 -0.199547 -2.06354 5.74343 -0.267847 -2.02078 
5.75161 -0.335327 -1.98575 5.7743 -0.388483 -1.9614 5.82398 -0.415394 -1.95789 
5.86563 -0.454284 -1.9593 5.89114 -0.511995 -1.95661 5.915 -0.558569 -1.91859 
5.92364 -0.601996 -1.82087 5.79045 0.0441745 -2.07432 5.85676 0.0497213 -2.04015 
5.90372 0.0483811 -1.95917 5.9469 0.0556827 -1.84233 5.99861 0.0781798 -1.71371 
6.04839 0.0853462 -1.61949 6.0982 0.0768778 -1.56716 6.13151 0.0282606 -1.56644 
6.16891 -0.0260406 -1.5947 6.20589 -0.0911066 -1.6508 6.22461 -0.171983 -1.69609 
6.22567 -0.250553 -1.72789 6.20413 -0.307288 -1.73664 6.18 -0.358934 -1.73159 
6.16543 -0.416569 -1.71643 6.13921 -0.464971 -1.70473 6.10537 -0.50733 -1.69529 
6.07005 -0.548522 -1.68629 6.03318 -0.588479 -1.67775 5.98728 -0.621285 -1.67189 
5.65704 0.0889394 -2.03759 5.08511 0.428346 -2.0235 5.04887 0.448178 -2.13204 
5.01204 0.469469 -2.19989 4.98154 0.503881 -2.24783 4.96851 0.562652 -2.28076 
4.97164 0.625202 -2.30586 4.99483 0.67587 -2.31842 5.02096 0.724339 -2.33014 
5.04411 0.776759 -2.33549 5.0895 0.814732 -2.3197 5.13079 0.860578 -2.28328 
5.17267 0.906703 -2.23147 5.22565 0.930491 -2.16484 5.26902 0.925403 -2.09078 
5.29856 0.901289 -2.01239 5.30956 0.855385 -1.92922 5.31274 0.800538 -1.84411 
5.31374 0.74341 -1.76623 5.30609 0.691408 -1.69815 5.27881 0.651782 -1.65044 
5.24359 0.614665 -1.622 5.20922 0.564128 -1.64372 5.17177 0.49077 -1.73383 
5.47737 0.130141 -1.98012 5.38931 0.12964 -1.94788 5.31411 0.152189 -1.88004 
5.25479 0.200148 -1.79504 5.19423 0.253554 -1.69111 5.62765 0.243253 -1.76948 
5.64832 0.331929 -1.56148 5.64395 0.39882 -1.36205 5.63112 0.454999 -1.16795 
5.61861 0.508067 -0.975512 5.6149 0.556448 -0.78111 5.63042 0.60446 -0.585191 
5.63797 -0.689702 -1.57802 5.6859 -0.694981 -1.5113 5.73608 -0.71303 -1.49482 
5.79644 -0.717059 -1.52781 5.84477 -0.699861 -1.58311 5.88471 -0.672001 -1.6343 
5.12053 0.336518 -1.73017 5.082 0.286071 -1.40764 5.05862 0.262421 -1.27155 
5.02812 0.234873 -1.18117 4.99973 0.199314 -1.11925 4.98143 0.155581 -1.05428 
4.95055 0.119005 -0.992243 4.90672 0.0737571 -0.936442 3.37004 -0.906978 -1.26706 
3.30652 -0.916358 -1.36167 3.24187 -0.933609 -1.43872 3.17765 -0.947072 -1.50137 
3.12218 -0.945202 -1.55226 3.06228 -0.943274 -1.58806 3.00576 -0.9374 -1.62473 
2.94117 -0.94879 -1.68028 2.87871 -0.962905 -1.75033 2.8313 -0.959479 -1.82422 
2.78244 -0.944678 -1.86284 2.72293 -0.931834 -1.87083 2.67048 -0.902932 -1.85968 
2.61855 -0.876032 -1.85564 2.55853 -0.861186 -1.85653 2.50764 -0.838292 -1.86671 
2.45676 -0.815398 -1.8769 2.39726 -0.802554 -1.8849 2.34638 -0.77966 -1.89508 
2.29595 -0.758843 -1.91237 2.23632 -0.751382 -1.93428 2.18104 -0.744056 -1.97127 
2.12129 -0.741963 -2.00711 2.06654 -0.736639 -2.05121 2.00795 -0.733184 -2.08735 
1.95909 -0.718375 -2.12598 1.90926 -0.699486 -2.15039 1.85028 -0.688644 -2.16549 
1.79939 -0.66575 -2.17568 1.74851 -0.642856 -2.18587 1.68901 -0.630012 -2.19387 
1.63806 -0.6072 -2.20404 1.58593 -0.585752 -2.21391 1.51832 -0.579758 -2.21285 
1.44973 -0.569676 -2.19759 1.39564 -0.534849 -2.16509 1.34737 -0.490612 -2.12709 
1.29321 -0.455859 -2.09457 1.22338 -0.44723 -2.07899 1.14818 -0.450089 -2.07601 
1.07985 -0.447543 -2.08175 1.02758 -0.426259 -2.09159 0.975317 -0.404975 -2.10142 
0.906916 -0.402512 -2.10715 0.830486 -0.406964 -2.1038 0.75316 -0.409959 -2.0855 
0.68182 -0.413072 -2.04359 0.621529 -0.423352 -1.99111 0.550189 -0.426466 -1.9492 
0.472876 -0.429609 -1.93086 0.39661 -0.436757 -1.92674 0.328492 -0.451952 -1.92747 
0.272889 -0.475476 -1.91722 0.213698 -0.492983 -1.8935 0.164503 -0.513647 -1.84502 
0.112948 -0.529264 -1.78269 0.042469 -0.526706 -1.71145 -0.0304449 -0.519043 -1.62639 
-0.0947679 -0.513425 -1.51698 -0.169859 -0.497685 -1.4035 -0.244872 -0.482008 -1.29001 
-0.307268 -0.479504 -1.18729 -0.373694 -0.473808 -1.08577 -0.436375 -0.4705 -0.980742 
-0.514685 -0.447647 -0.851492 -0.60663 -0.401621 -0.693776 3.51476 -0.797905 -1.03897 
3.56567 -0.699534 -0.866198 3.46599 -0.978226 -1.13194 3.46351 -1.04966 -1.10429 
3.44656 -1.10149 -1.0678 3.43128 -1.1475 -1.00197 3.4091 -1.18322 -0.916389 
3.39112 -1.2191 -0.815042 3.36885 -1.25475 -0.729487 3.35202 -1.29948 -0.664132 
3.32432 -1.34194 -0.631072 3.28987 -1.38223 -0.614542 3.25316 -1.42232 -0.605956 
3.20866 -1.45623 -0.59968 3.1512 -1.47987 -0.59725 3.09768 -1.50664 -0.593648 
3.04022 -1.53028 -0.591218 2.99564 -1.56413 -0.584967 2.95729 -1.60292 -0.576866 
2.91131 -1.63566 -0.571029 2.84623 -1.65326 -0.570859 2.78107 -1.67079 -0.570715 
2.73361 -1.70237 -0.565315 2.6866 -1.73587 -0.567056 2.62152 -1.7581 -0.588726 
2.55015 -1.77782 -0.634706 2.48425 -1.7909 -0.689882 2.42748 -1.79055 -0.74044 
2.3594 -1.79554 -0.767182 2.28386 -1.80402 -0.778069 2.20663 -1.81185 -0.781543 
2.12889 -1.81783 -0.777859 2.0515 -1.82091 -0.759544 1.98016 -1.82402 -0.71763 
1.91987 -1.8343 -0.665159 1.84853 -1.83742 -0.623245 1.7712 -1.84041 -0.604948 
1.6947 -1.84495 -0.60158 1.62512 -1.84385 -0.607005 1.56645 -1.83004 -0.615209 
1.50394 -1.8181 -0.615452 1.44369 -1.79829 -0.60232 1.37053 -1.78309 -0.557978 
1.29047 -1.76809 -0.490937 1.21469 -1.74289 -0.41104 1.15079 -1.70905 -0.348115 
1.08513 -1.68509 -0.305688 1.02496 -1.66519 -0.292574 0.956103 -1.66065 -0.2912 
0.887767 -1.65811 -0.296941 0.829752 -1.64615 -0.312294 0.770645 -1.64069 -0.341322 
0.724075 -1.62843 -0.39448 0.684514 -1.61063 -0.456415 0.645598 -1.58945 -0.511524 
0.605113 -1.56226 -0.545298 0.562866 -1.53452 -0.571651 0.513098 -1.51555 -0.596077 
0.448817 -1.51612 -0.623786 0.388211 -1.50457 -0.631497 0.344892 -1.4624 -0.615698 
0.285995 -1.42534 -0.561039 0.226402 -1.38909 -0.506193 0.169266 -1.35258 -0.458956 
0.132087 -1.29623 -0.426129 0.0815406 -1.24666 -0.369222 0.000570459 -1.21539 -0.275981 
4.77029 -0.749905 -1 4.6955 -0.715867 -0.899366 4.64618 -0.649784 -0.790456 
4.63004 -0.557764 -0.670974 4.64442 -0.47092 -0.540074 4.67769 -0.3949 -0.397018 
4.7332 -0.341124 -0.269216 4.79053 -0.298322 -0.184474 4.82628 -0.254301 -0.178815 
4.84607 -0.211918 -0.243294 4.87813 -0.190377 -0.355003 4.91028 -0.173679 -0.488494 
3.62157 -0.192517 -0.958563 5.43193 0.0611397 -1.06398 5.43493 -0.00415781 -1.01452 
5.42535 -0.0515769 -0.924726 5.3894 -0.0768896 -0.789089 3.234 0.114869 -1.04019 
3.19201 0.148143 -1.05264 3.14957 0.183503 -1.058 3.10674 0.226233 -1.04233 
3.06718 0.288468 -0.985615 3.03421 0.374058 -0.888703 2.98994 0.454309 -0.767976 
2.94077 0.520996 -0.666933 2.89238 0.572925 -0.607971 2.84065 0.605282 -0.590027 
2.78076 0.620287 -0.59094 2.73111 0.644626 -0.601444 2.68789 0.676456 -0.613585 
2.64583 0.709647 -0.626024 2.60378 0.74284 -0.638463 2.56056 0.774669 -0.650604 
2.51092 0.799016 -0.66111 2.45155 0.812009 -0.669135 2.40191 0.836357 -0.679642 
2.35869 0.868186 -0.691783 2.31663 0.901377 -0.704221 3.88643 -0.108944 -0.872608 
3.79357 -0.112422 -0.832165 4.05133 -0.0413328 -0.835796 4.00438 -0.212307 -0.891403 
4.50109 0.0301296 -0.923133 4.56958 0.0275665 -0.917374 4.64743 0.0320553 -0.912912 
4.73728 0.0269796 -0.904874 4.3821 0.0351123 -0.933287 4.32502 0.0127548 -0.923473 
4.25473 0.00563741 -0.89578 4.1742 0.0145742 -0.834794 4.43397 0.150304 -0.861612 
4.4137 0.232411 -0.816796 4.90337 -0.0823995 -0.753859 1.64012 1.01053 -1.22831 
1.59018 0.944884 -1.35814 1.53584 0.911966 -1.45316 1.48318 0.907039 -1.52316 
1.42448 0.904978 -1.57318 1.36862 0.914226 -1.60303 1.30677 0.924329 -1.61043 
1.24836 0.94367 -1.60475 1.18618 0.961225 -1.59112 1.13535 0.989415 -1.58736 
1.08985 1.0238 -1.58497 1.0385 1.05399 -1.57409 0.974682 1.07748 -1.53911 
0.91196 1.10747 -1.49045 0.838915 1.12803 -1.43218 0.766413 1.14645 -1.38098 
0.7049 1.16974 -1.34578 0.642868 1.16948 -1.32712 0.588428 1.14746 -1.31721 
0.529396 1.1252 -1.31528 0.474324 1.09967 -1.31215 0.407679 1.0833 -1.31244 
0.341035 1.06694 -1.31273 0.286039 1.04135 -1.30957 0.228502 1.01777 -1.30717 
0.184002 0.983854 -1.30089 0.147212 0.94383 -1.29233 0.111727 0.902772 -1.28338 
0.0748532 0.862815 -1.27484 0.0283569 0.832073 -1.26188 -0.04038 0.823721 -1.23373 
-0.121219 0.834752 -1.16564 -0.204773 0.863795 -1.04881 -0.277467 0.921179 -0.892872 
-0.323863 1.01157 -0.728875 -0.370371 1.0814 -0.566802 -0.416584 1.10047 -0.421273 
-0.459412 1.09493 -0.29172 -0.491441 1.07421 -0.177657 -0.500143 1.03811 -0.0575574 
-0.483437 1.00116 0.0620759 1.78428 0.992281 -1.16628 1.856 0.942256 -1.23757 
1.90818 0.909986 -1.24778 1.95151 0.884005 -1.21992 1.99972 0.86583 -1.18812 
2.05981 0.856285 -1.17329 2.11508 0.848958 -1.1363 2.17125 0.860966 -1.05069 
2.21939 0.887124 -0.900232 3.72194 -0.236022 -0.764066 3.72515 -0.318328 -0.763796 
3.71414 -0.387449 -0.782429 3.71008 -0.459737 -0.780381 3.69344 -0.526017 -0.72822 
4.08053 0.123749 -0.702692 4.08189 0.204556 -0.663626 4.11451 0.255825 -0.637097 
4.17811 0.274595 -0.637703 4.24729 0.281013 -0.672989 4.30795 0.289412 -0.732611 
4.37858 0.371795 -0.750612 4.38795 0.447844 -0.701911 4.38568 0.533117 -0.656652 
4.37578 0.624439 -0.613658 4.36501 0.714859 -0.578191 4.35566 0.799254 -0.564075 
4.34821 0.870191 -0.592304 4.33682 0.918255 -0.668393 5.00247 -0.136961 -0.630913 
5.07983 -0.129039 -0.627454 5.15808 -0.121024 -0.623955 5.24188 -0.112442 -0.620208 
5.3645 -0.192207 -0.58873 5.39271 -0.255367 -0.568872 5.40763 -0.322238 -0.548946 
5.41505 -0.393319 -0.520669 5.42022 -0.461695 -0.477895 5.42374 -0.524146 -0.413767 
5.42623 -0.582591 -0.335411 3.57056 -0.533317 -0.334043 3.48598 -0.475078 -0.0750755 
3.40297 -0.417811 0.123853 3.33337 -0.361604 0.266203 3.26425 -0.318171 0.372327 
3.20696 -0.271403 0.447522 3.14909 -0.228075 0.515926 3.07589 -0.202747 0.595989 
3.00168 -0.188312 0.694468 2.93786 -0.184412 0.796678 2.86522 -0.175981 0.873832 
2.79411 -0.158667 0.925434 2.73938 -0.127353 0.951169 2.68574 -0.09461 0.976581 
2.62297 -0.0751265 0.997338 2.56299 -0.049775 1.02436 2.49846 -0.0297439 1.05254 
2.43619 -0.00183378 1.09411 2.36367 0.0167255 1.14527 2.29056 0.0372131 1.20356 
2.22659 0.0657485 1.25254 2.15505 0.0802262 1.28948 2.08508 0.0886994 1.3051 
2.02367 0.107146 1.31853 1.95141 0.11817 1.34869 1.87064 0.12972 1.40892 
1.7887 0.139911 1.46946 1.70781 0.146094 1.51577 1.63018 0.14563 1.53334 
1.56008 0.148726 1.53503 1.5014 0.162536 1.52682 1.43941 0.172474 1.51946 
1.38081 0.186366 1.51124 1.31195 0.190907 1.51262 1.24204 0.199453 1.52821 
1.1803 0.225359 1.56266 1.11475 0.248622 1.60273 1.05224 0.271168 1.62777 
0.973215 0.26813 1.62282 5.6773 0.775353 -0.529565 5.65844 0.735413 -0.450282 
-0.717223 -0.193467 -0.413361 -0.719707 -0.0884621 -0.335108 -0.710329 -0.00965043 -0.282028 
-0.709889 0.0698568 -0.252954 -0.709561 0.149894 -0.221465 -0.698185 0.222764 -0.179427 
-0.691278 0.300764 -0.131446 -0.678951 0.374469 -0.0818567 -0.669964 0.449232 -0.0405279 
-0.647052 0.509782 -0.0096084 -0.616775 0.561319 0.00896678 -0.592733 0.617799 0.0256913 
-0.581226 0.687388 0.0532273 -0.558587 0.749744 0.0913461 -0.526664 0.803732 0.127349 
-0.486238 0.848612 0.151117 -0.443406 0.89601 0.171781 1.73926 1.18962 -0.8317 
1.77034 1.23294 -0.639105 1.80509 1.23869 -0.507015 1.84887 1.23707 -0.416551 
1.90405 1.24009 -0.351624 1.95114 1.22584 -0.305571 1.9956 1.19545 -0.293746 
2.04793 1.16118 -0.318823 2.112 1.13015 -0.37481 2.16845 1.07978 -0.45676 
2.22109 1.0119 -0.572648 1.62441 1.20926 -0.868829 1.55185 1.28359 -0.677153 
1.49993 1.33316 -0.502057 1.42889 1.36778 -0.360808 1.34725 1.39372 -0.250677 
1.27324 1.41822 -0.17816 1.21688 1.45546 -0.131073 1.16295 1.48759 -0.0978027 
1.09955 1.4988 -0.043903 1.04047 1.49489 0.0300068 0.975161 1.49666 0.117272 
0.914774 1.49122 0.191515 0.842556 1.49198 0.247708 0.765147 1.49367 0.287821 
0.694849 1.49132 0.337313 0.643649 1.47384 0.392482 0.592972 1.45435 0.440526 
0.524767 1.44399 0.461569 0.449973 1.43567 0.466127 0.381856 1.42048 0.465395 
0.325227 1.39618 0.468072 0.257025 1.38105 0.467316 0.181197 1.37196 0.464296 
0.104665 1.36185 0.453798 0.0318871 1.34558 0.429883 -0.0239854 1.31116 0.389184 
-0.054739 1.25523 0.348657 -0.10004 1.21243 0.311094 -0.141573 1.1714 0.29645 
-0.179321 1.13055 0.297459 -0.225021 1.09644 0.298557 -0.290105 1.07289 0.27983 
-0.361589 1.03922 0.237761 5.6068 0.680993 -0.230461 5.57396 0.66885 -0.090585 
5.57089 0.637872 0.0181964 5.5894 0.606395 0.105574 5.60711 0.565871 0.180005 
5.62933 0.525229 0.239366 -0.757025 -0.279307 -0.18125 -0.193138 -1.11304 -0.00789302 
-0.259599 -1.0315 0.14427 -0.31194 -0.928262 0.306798 -0.111889 -1.24205 0.0318453 
-0.101996 -1.26478 0.200976 -0.0615447 -1.25296 0.342057 -0.0211815 -1.24812 0.461955 
0.0164869 -1.25246 0.566243 0.06064 -1.24924 0.668878 -0.711086 -0.110827 0.325011 
-0.662043 -0.0355448 0.469424 -0.614107 0.0201162 0.567851 -0.551451 0.0560007 0.642081 
-0.481641 0.081579 0.709439 -0.418097 0.0971314 0.77917 -0.371857 0.0923363 0.853356 
-0.332678 0.0766931 0.922361 -0.292522 0.0569608 0.977154 -0.244977 0.040624 1.01611 
-0.187697 0.0356413 1.05258 -0.141197 0.0233084 1.10576 -0.101636 0.00550004 1.1677 
-0.0626497 -0.0155953 1.22279 -0.0209956 -0.0414169 1.25626 0.028119 -0.0637609 1.27388 
0.0874207 -0.0768366 1.28193 0.13602 -0.103506 1.29044 0.172876 -0.150822 1.29618 
0.203056 -0.236788 1.29946 -0.717083 -0.328935 0.115967 -0.676315 -0.395736 0.0837625 
-0.633385 -0.444745 0.0570081 -0.596857 -0.501904 0.0243606 -0.576318 -0.578482 -0.00657845 
-0.558001 -0.652421 -0.0229786 -0.532571 -0.705003 -0.00630296 -0.511895 -0.750068 0.0464728 
-0.481939 -0.775657 0.120172 -0.446173 -0.787591 0.213595 -0.405615 -0.790231 0.333041 
-0.296441 -0.688658 0.651922 -0.257565 -0.605315 0.793328 -0.217437 -0.542937 0.891862 
0.119681 -1.27171 0.89555 0.142505 -1.13873 0.921505 0.157825 -1.0531 1.03739 
0.156495 -0.962225 1.11199 0.155337 -0.876243 1.16485 0.16679 -0.803434 1.20691 
0.176671 -0.732557 1.23396 0.1994 -0.67534 1.24781 0.222066 -0.614023 1.2605 
0.232383 -0.514433 1.27951 0.338802 -0.390726 1.35279 0.382479 -0.363019 1.37135 
0.332871 -0.30722 1.33142 0.462934 -0.273279 1.43429 0.53605 -0.249342 1.49465 
0.610212 -0.22941 1.54078 0.685943 -0.215487 1.56557 0.763084 -0.207443 1.56898 
0.838831 -0.203059 1.55017 0.89795 -0.190259 1.50463 0.916266 -0.146711 1.4397 
0.914982 -0.0833415 1.38835 0.906475 -0.000739618 1.39275 0.891932 0.10801 1.46906 
0.806981 0.264057 1.51403 
LINES 49 686
13 41 56 57 58 59 60 61 62 63 64 65 66 37 
22 41 67 68 69 70 71 72 73 74 75 76 77 78 79 80 81 82 83 84 85 86 37 
3 41 87 39 
25 36 88 89 90 91 92 93 94 95 96 97 98 99 100 101 102 103 104 105 106 107 108 109 110 36 
7 39 111 112 113 114 115 35 
9 39 116 117 118 119 120 121 122 13 
8 38 123 124 125 126 127 128 37 
3 36 129 35 
9 35 130 131 132 133 134 135 136 26 
68 34 137 138 139 140 141 142 143 144 145 146 147 148 149 150 151 152 153 154 155 156 157 158 159 160 161 162 163 164 165 166 167 168 169 170 171 172 173 174 175 176 177 178 179 180 181 182 183 184 185 186 187 188 189 190 191 192 193 194 195 196 197 198 199 200 201 202 12 
4 34 203 204 18 
67 34 205 206 207 208 209 210 211 212 213 214 215 216 217 218 219 220 221 222 223 224 225 226 227 228 229 230 231 232 233 234 235 236 237 238 239 240 241 242 243 244 245 246 247 248 249 250 251 252 253 254 255 256 257 258 259 260 261 262 263 264 265 266 267 268 269 11 
14 33 270 271 272 273 274 275 276 277 278 279 280 281 21 
3 32 282 24 
6 31 283 284 285 286 20 
23 30 287 288 289 290 291 292 293 294 295 296 297 298 299 300 301 302 303 304 305 306 307 14 
4 29 308 309 24 
3 29 310 23 
3 29 311 28 
6 27 312 313 314 315 26 
6 27 316 317 318 319 23 
4 27 320 321 22 
3 26 322 21 
43 15 323 324 325 326 327 328 329 330 331 332 333 334 335 336 337 338 339 340 341 342 343 344 345 346 347 348 349 350 351 352 353 354 355 356 357 358 359 360 361 362 363 6 
11 15 364 365 366 367 368 369 370 371 372 14 
7 24 373 374 375 376 377 18 
8 23 378 379 380 381 382 383 22 
10 22 384 385 386 387 388 389 390 391 19 
6 21 392 393 394 395 20 
9 20 396 397 398 399 400 401 402 16 
41 18 403 404 405 406 407 408 409 410 411 412 413 414 415 416 417 418 419 420 421 422 423 424 425 426 427 428 429 430 431 432 433 434 435 436 437 438 439 440 441 0 
4 17 442 443 13 
19 12 444 445 446 447 448 449 450 451 452 453 454 455 456 457 458 459 460 6 
13 15 461 462 463 464 465 466 467 468 469 470 471 14 
35 15 472 473 474 475 476 477 478 479 480 481 482 483 484 485 486 487 488 489 490 491 492 493 494 495 496 497 498 499 500 501 502 503 504 6 
8 13 505 506 507 508 509 510 10 
3 12 511 9 
5 11 512 513 514 8 
8 11 515 516 517 518 519 520 7 
22 9 521 522 523 524 525 526 527 528 529 530 531 532 533 534 535 536 537 538 539 540 3 
13 9 541 542 543 544 545 546 547 548 549 550 551 8 
5 8 552 553 554 4 
3 7 555 5 
11 7 556 557 558 559 560 561 562 563 564 3 
4 3 565 566 2 
3 3 567 2 
13 2 568 569 570 571 572 573 574 575 576 577 578 0 
3 1 579 0 
17 39 47 46 45 44 43 42 40 48 49 50 51 52 53 54 55 25 

POINT_DATA 580
SCALARS DY_raw double
LOOKUP_TABLE default
229.758 179.243 216.911 199.728 143.995 313.507 192.466 198.457 189.062 
240.87 468.03 173.404 202.649 267.753 134.711 148.059 352.097 234.11 
252.403 109.932 286.812 211.032 181.341 330.509 232.701 235.427 235.829 
190.143 345.728 200.793 207.224 241.063 132.31 135.841 176.064 289.628 
245.218 277.095 164.892 184.073 189.749 231.033 195.366 204.247 199.012 
191.107 170.76 173.47 201.343 237.141 234.896 242.857 205.347 194.174 
216.766 232.32 245.124 277.89 277.89 274.309 269.866 274.169 277.524 
317.23 310.472 332.096 300.909 231.033 233.753 234.556 216.161 219.526 
222.731 205.831 194.093 189.01 150.468 163.763 193.984 193.984 281.296 
311.044 311.044 324.383 334.635 323.072 323.072 190.457 262.194 246.9 
223.672 204.487 203.597 220.323 228.768 229.991 229.665 235.425 236.617 
230.154 199.304 192.737 186.404 199.595 243.186 219.539 230.913 258.561 
281.155 270.311 258.639 187.743 195.821 233.554 252.497 282.981 226.445 
248.376 243.279 227.07 222.41 224.671 215.646 176.064 235.168 240.855 
237.518 239.945 239.495 262.926 279.97 288.599 292.455 294.558 275.506 
254.038 245.133 172.048 168.777 164.991 172.335 180.518 168.49 206.78 
185.003 192.169 156.48 180.436 176.342 176.342 196.333 185.915 222.478 
202.888 195.492 236.984 199.815 176.96 194.081 167.099 179.084 150.856 
127.588 139.47 129.917 128.194 148.549 147.525 171.003 158.765 134.141 
172.026 159.174 164.063 185.676 219.016 202.593 230.967 174.966 151.826 
161.04 160.27 174.851 172.849 194.351 213.533 213.533 201.491 187.314 
168.113 143.374 135.502 150.001 134.434 159.621 159.321 171.787 195.316 
170.194 166.763 157.883 146.809 167.94 205.316 220.387 193.548 200.763 
205.229 202.941 198.572 218.901 261.803 258.052 269.63 269.63 238.586 
238.586 232.538 206.035 206.035 220.273 226.462 226.462 273.639 264.935 
245.531 354.964 290.538 290.137 217.104 196.877 135.624 133.657 149.165 
138.528 176.215 207.481 205.76 247.647 250.848 288.433 251.716 280.624 
233.81 234.913 284.14 258.656 264.534 389.813 312.876 352.728 333.998 
233.521 254.517 204.283 183.415 174.175 158.626 208.192 198.117 224.752 
224.752 248.271 189.992 203.837 231.474 179.705 179.614 170.923 176.019 
178.716 211.539 233.592 168.789 138.795 180.58 196.492 204.967 204.967 
225.054 215.057 206.247 165.427 247.132 286.287 299.644 266.828 207.224 
149.594 123.492 133.089 105.857 110.656 152.632 141.352 162.893 174.22 
169.956 169.956 181.971 188.073 188.073 170.74 163.868 163.868 154.877 
154.877 147.165 225.654 241.435 248.557 259.345 245.439 242.355 269.304 
242.022 201.192 223.035 202.772 233.05 237.507 215.817 178.374 147.847 
167.437 160.078 157.614 141.287 144.39 145.301 178.052 175.036 166.224 
184.692 184.692 176.982 174.412 180.242 224.339 241.719 242.865 261.155 
252.619 215.277 198.877 180.449 158.595 197.438 197.438 216.225 203.468 
203.468 202.002 161.683 156.713 133.18 163.577 176.404 170.51 207.67 
228.764 239.568 224.08 191.166 144.537 145.312 159.591 160.871 195.14 
206.9 193.401 189.524 138.901 280.815 314.827 257.21 234.045 243.199 
286.167 260.213 260.213 318.099 298.059 265.112 200.335 196.29 201.329 
261.094 299.273 280.985 220.093 164.908 223.264 294.527 297.814 286.354 
298.391 305.088 253.851 202.504 186.136 186.004 232.684 234.216 180.209 
155.943 146.589 175.381 176.3 194.266 219.672 227.631 227.487 235.304 
232.648 214.678 245.231 229.018 196.73 218.06 200.435 204.092 253.579 
244.156 224.845 224.845 180.558 221.543 241.924 234.687 267.421 241.924 
238.722 259.155 210.922 207.043 207.043 216.263 240.597 209.812 219.14 
224.999 224.165 254.658 177.134 161.025 163.384 129.177 123.751 132.035 
127.527 125.486 134.547 144.887 135.7 160.137 179.056 203.655 181.595 
192.22 201.394 174.872 211.7 184.791 193.562 220.84 240.807 218.671 
229.147 217.951 218.538 187.416 169.054 165.215 179.721 222.81 210.163 
186.944 203.516 190.753 178.72 161.608 192.006 161.696 149.643 205.84 
203.635 268.005 323.388 286.703 305.816 284.608 238.021 251.459 218.169 
230.765 263.737 210.164 199.416 203.184 203.184 210.589 213.411 209.909 
198.296 248.001 240.287 258.034 283.57 346.782 382.205 222.413 183.58 
193.42 208.017 228.068 233.305 211.44 207.189 190.129 189.871 244.278 
229.856 232.759 246.578 246.82 221.958 236.702 207.079 158.082 155.2 
155.2 183.991 196.645 190.801 201.689 237.201 237.201 218.007 188.361 
198.379 241.73 231.417 235.454 225.7 226.102 200.392 196.03 196.03 
172.252 172.879 176.4 170.265 186.203 178.97 240.715 183.577 176.941 
195.631 178.029 174.374 192.243 215.815 209.402 203.537 218.639 210.472 
188.26 222.496 250.598 245.783 245.783 234.894 263.304 287.238 281.769 
247.899 237.439 217.055 212.159 
FIELD FieldData 7
DY_minmax 1 580 double
0.342105 0.202628 0.306632 0.259189 0.105304 0.573345 0.239137 0.255681 0.22974 
0.372786 1 0.186505 0.267254 0.447015 0.0796689 0.116524 0.679897 0.354122 
0.40463 0.0112528 0.499637 0.2904 0.20842 0.620289 0.350231 0.357758 0.358867 
0.232724 0.662311 0.26213 0.279886 0.373319 0.0730422 0.0827915 0.193851 0.507412 
0.384792 0.472807 0.163002 0.215965 0.231636 0.345627 0.247145 0.271665 0.257213 
0.235386 0.179204 0.186688 0.263649 0.362491 0.356292 0.378274 0.274704 0.243854 
0.306233 0.349178 0.384532 0.475002 0.475002 0.465114 0.452848 0.464729 0.473994 
0.583625 0.564966 0.624671 0.53856 0.345627 0.353136 0.355352 0.304562 0.313853 
0.322704 0.276039 0.243629 0.229595 0.123178 0.159885 0.243328 0.243328 0.484406 
0.566545 0.566545 0.603376 0.631681 0.599756 0.599756 0.233591 0.431665 0.389437 
0.3253 0.27233 0.269871 0.316054 0.339371 0.342749 0.341847 0.357751 0.361044 
0.343199 0.258019 0.239886 0.222399 0.258821 0.379181 0.31389 0.345295 0.421634 
0.484019 0.454077 0.421848 0.226098 0.2484 0.352587 0.404891 0.489059 0.332959 
0.393512 0.379438 0.334683 0.321816 0.32806 0.303139 0.193851 0.357044 0.372744 
0.36353 0.370232 0.368991 0.433686 0.480746 0.504572 0.515218 0.521025 0.468419 
0.409146 0.384557 0.182761 0.173729 0.163275 0.183553 0.206147 0.172937 0.27866 
0.218531 0.238319 0.139777 0.205922 0.194619 0.194619 0.249815 0.22105 0.322003 
0.267914 0.247492 0.362057 0.259429 0.196324 0.243596 0.169096 0.20219 0.124248 
0.0600035 0.0928112 0.0664329 0.0616764 0.11788 0.11505 0.179876 0.146086 0.0780977 
0.182701 0.147216 0.160714 0.220391 0.312445 0.2671 0.345444 0.190818 0.126927 
0.152367 0.150241 0.190501 0.184973 0.244344 0.297306 0.297306 0.264058 0.224912 
0.171896 0.103588 0.0818536 0.121889 0.0789065 0.148449 0.147621 0.182041 0.247008 
0.177644 0.168171 0.143652 0.113073 0.171418 0.274617 0.316232 0.242126 0.262046 
0.274378 0.26806 0.255999 0.312127 0.430584 0.420227 0.452196 0.452196 0.366481 
0.366481 0.34978 0.276602 0.276602 0.315917 0.333004 0.333004 0.463266 0.439232 
0.385656 0.687813 0.509925 0.508819 0.307166 0.251318 0.0821902 0.0767604 0.11958 
0.090208 0.194268 0.280596 0.275845 0.3915 0.400337 0.504114 0.402734 0.482551 
0.353294 0.35634 0.492259 0.421895 0.438126 0.784035 0.571603 0.68164 0.629922 
0.352496 0.410467 0.271766 0.214148 0.188634 0.145702 0.28256 0.254742 0.328283 
0.328283 0.393223 0.232308 0.270534 0.346843 0.203904 0.203654 0.179655 0.193726 
0.201174 0.291802 0.352692 0.173763 0.0909454 0.20632 0.250253 0.273654 0.273654 
0.329116 0.301514 0.277188 0.164481 0.390077 0.498187 0.535069 0.444458 0.279886 
0.120765 0.0486929 0.0751906 0 0.0132517 0.129151 0.0980064 0.157485 0.188759 
0.176987 0.176987 0.21016 0.227009 0.227009 0.179151 0.160177 0.160177 0.13535 
0.13535 0.114058 0.330773 0.374348 0.394011 0.423797 0.385401 0.376886 0.451297 
0.375966 0.263232 0.323541 0.267593 0.351194 0.363502 0.303613 0.200228 0.115939 
0.17003 0.149712 0.142907 0.0978273 0.106394 0.108911 0.199339 0.191011 0.16668 
0.217672 0.217672 0.196385 0.18929 0.205387 0.327143 0.37513 0.378296 0.428797 
0.405228 0.302123 0.25684 0.205957 0.145616 0.252866 0.252866 0.304738 0.269516 
0.269516 0.265468 0.154142 0.14042 0.0754439 0.159373 0.194788 0.178516 0.281118 
0.33936 0.369191 0.326427 0.235548 0.106802 0.108941 0.148365 0.151902 0.246521 
0.278993 0.24172 0.231014 0.0912405 0.483079 0.576989 0.417903 0.353943 0.379217 
0.497856 0.426196 0.426196 0.586025 0.530693 0.439723 0.260865 0.249697 0.263609 
0.428628 0.534042 0.483549 0.315419 0.163047 0.324175 0.520938 0.530015 0.498373 
0.531608 0.550098 0.40863 0.266854 0.221662 0.221297 0.350185 0.354415 0.205295 
0.138295 0.112465 0.191965 0.194502 0.244107 0.314255 0.336233 0.335835 0.357418 
0.350086 0.300466 0.384828 0.340061 0.250912 0.309806 0.26114 0.271239 0.407878 
0.381859 0.32854 0.32854 0.206258 0.319422 0.375696 0.355713 0.446096 0.375697 
0.366855 0.423274 0.290097 0.279386 0.279386 0.304843 0.372034 0.287033 0.312789 
0.328964 0.326663 0.410856 0.196803 0.152326 0.158838 0.0643892 0.0494074 0.0722818 
0.0598353 0.0541988 0.0792175 0.107768 0.0824007 0.149874 0.20211 0.270032 0.209121 
0.238459 0.26379 0.190558 0.292245 0.217948 0.242165 0.317482 0.372612 0.311494 
0.340419 0.309504 0.311124 0.225195 0.174496 0.163896 0.203948 0.322921 0.288002 
0.223892 0.269649 0.234409 0.201185 0.153937 0.237869 0.154178 0.120898 0.276065 
0.269977 0.447709 0.600628 0.499337 0.55211 0.493551 0.36492 0.402023 0.310107 
0.344885 0.435926 0.288004 0.258327 0.268732 0.268732 0.289178 0.29697 0.2873 
0.255235 0.392476 0.371178 0.420178 0.490685 0.665221 0.763029 0.321825 0.214604 
0.241772 0.282076 0.337438 0.351898 0.291529 0.279791 0.232686 0.231973 0.382197 
0.342376 0.350391 0.388547 0.389215 0.320568 0.361278 0.279486 0.144199 0.136243 
0.136243 0.215738 0.250677 0.23454 0.264603 0.362655 0.362655 0.30966 0.227802 
0.255464 0.375161 0.346687 0.357834 0.3309 0.33201 0.261022 0.248978 0.248978 
0.183325 0.185056 0.194777 0.177839 0.221845 0.201873 0.372358 0.214595 0.196271 
0.247878 0.199275 0.189185 0.238522 0.303606 0.285901 0.269706 0.311403 0.288854 
0.227523 0.322055 0.399647 0.386353 0.386353 0.356286 0.434729 0.500813 0.485714 
0.392195 0.363314 0.30703 0.293513 
WidthEq 1 580 double
2.23361 1.54829 1.92379 2.0195 3.61069 2.19695 2.50886 3.65328 3.68503 
3.25869 1 4.01894 3.83289 3.50879 3.41072 5.01106 1.94679 3.31344 
3.29517 1.77018 2.14196 2.90857 2.01257 2.17928 2.85921 3.52156 2.74534 
2.25472 1.78377 2.64407 1.96256 3.67311 2.12598 2.30372 4.46644 3.19186 
3.8467 3.04012 2.85569 4.17431 3.93172 4.12317 3.65811 3.52417 3.51541 
3.59197 3.71446 4.09662 4.16706 4.04586 4.05456 3.76727 3.98672 4.22106 
4.06341 3.93905 4.00218 3.63709 3.63709 3.63951 3.76127 3.61799 3.58826 
3.2507 3.29373 2.99926 2.93119 4.12317 3.74626 3.71963 3.43332 3.08096 
3.09305 3.20657 3.28503 3.37554 3.71002 3.6639 3.29703 3.29703 2.70541 
2.55192 2.55192 2.47907 2.56408 2.73583 2.73583 4.32496 3.65657 3.70546 
3.94462 3.82053 3.70556 3.30488 3.16941 2.71515 2.42658 2.29318 2.56748 
2.53621 2.70225 2.70758 2.5499 2.51765 2.40754 2.51422 2.76571 3.12363 
2.99194 3.32021 3.70011 3.77095 3.44576 3.29358 3.59849 3.56537 3.78466 
3.81587 3.59357 3.62012 3.96503 4.04413 3.95014 2.80261 2.86365 3.30091 
3.46488 3.52035 3.49005 3.72983 2.68347 2.60358 2.34156 2.41311 2.48525 
2.5717 2.80346 4.65429 4.50584 4.55135 3.97842 3.68584 3.55725 3.20713 
3.31309 3.20322 3.4219 3.27545 3.45782 3.45782 3.20298 3.2155 2.89508 
3.1857 3.26004 2.90214 3.1325 3.41574 3.19146 3.80135 3.44581 4.07992 
4.38645 4.10345 4.33077 4.33943 4.0847 3.97425 3.59695 3.59399 3.64988 
3.29764 3.4635 3.33927 3.10013 2.92468 3.15183 3.00198 3.53429 3.74507 
3.63959 3.70962 3.68394 3.77318 3.71405 3.66698 3.66698 3.88438 3.90772 
3.86919 3.94034 4.06696 4.01803 3.90808 3.83403 3.96602 4.02225 3.99639 