# vtk DataFile Version 3.0
vtk output
ASCII
DATASET POLYDATA
POINTS 342 float
4.565 2.51167 3.86667 4.95 2.31 4 6.61353 2.35168 3.64815 
4.675 2.2 3.6 5.59167 2.05333 3.6 4.565 2.09 3.2 
5.885 1.595 3.2 5.005 1.76 3 5.775 1.705 3 
4.895 7.81 2.6 4.95 7.7 2.6 4.96418 7.48 2.73333 
4.895 7.04 2.6 4.98667 6.69167 2.4 5.08711 6.51936 2.38704 
5.58239 1.74775 2.44444 4.58333 9.22167 2.06667 4.675 9.075 2.2 
4.84 6.71 2.2 4.51 9.405 2 4.83083 9.09333 1.7 
4.44583 8.67167 1.76667 4.66813 8.91687 1.1 4.16167 8.81833 1.26667 
6.6 4.73 1 6.71 4.015 0.8 6.76081 4.07 0.962963 
6.78992 4.125 1.08889 6.77682 4.18 1.15556 6.76693 4.235 1.16296 
6.765 4.29 1.12593 6.76296 4.345 1.07407 6.75093 4.4 1.02963 
6.72182 4.455 1.00741 6.69604 4.51 1 6.65511 4.565 1 
6.61601 4.62 1 6.60215 4.675 1 4.54001 8.92575 0.985185 
4.45903 8.94926 0.937037 4.4002 8.94901 0.966667 4.34496 8.92368 1.04691 
4.28928 8.90846 1.13086 4.22966 8.88343 1.20494 4.72764 9.0297 1.21111 
4.78206 9.07416 1.41111 4.22975 8.7662 1.33704 4.29107 8.745 1.44321 
4.3583 8.7238 1.59259 4.61549 8.78045 1.28272 4.54606 8.70524 1.50494 
4.08089 8.75034 1.3679 4.02062 8.69072 1.48642 3.99015 8.63504 1.62469 
4.00329 8.58 1.77037 4.01521 8.52511 1.8963 4.0309 8.47204 2 
4.07 8.42896 2.0963 4.10899 8.40104 2.20741 4.12285 8.35796 2.32593 
4.12489 8.30489 2.43704 4.12511 8.25 2.52593 4.12715 8.195 2.59259 
4.14111 8.14011 2.64444 4.18215 8.08704 2.68148 4.23511 8.04407 2.71852 
4.29 8.01818 2.74815 4.345 7.98918 2.77778 4.4 7.97897 2.79259 
4.455 7.98703 2.8 4.51 8.00207 2.8 4.565 7.98692 2.8 
4.62 7.97693 2.8 4.675 7.975 2.8 4.73 7.97285 2.8 
4.78489 7.95889 2.79259 4.83785 7.91785 2.76296 4.87899 7.86489 2.6963 
4.80133 8.93087 1.38889 4.85575 8.98876 1.58889 4.78226 9.19728 1.66173 
4.72821 9.23355 1.70494 4.66431 9.23438 1.85309 4.46834 8.77866 1.9679 
4.51168 8.85214 2.12716 4.56305 8.90986 2.21358 4.60604 8.965 2.23704 
4.63386 9.02 2.22222 4.74325 9.0571 1.95926 4.6253 9.1406 2.1358 
4.51286 9.34928 2.01235 4.53134 9.28966 2.03457 5.46975 1.71852 2.37989 
5.39336 1.69346 2.38624 5.33517 1.66613 2.42751 5.28 1.66601 2.5037 
5.225 1.69114 2.6 5.17 1.70307 2.7037 5.115 1.70704 2.8 
5.06 1.72101 2.8963 4.78919 6.765 2.26667 4.76019 6.82 2.32593 
4.77533 6.875 2.37778 4.79918 6.93 2.42963 4.84204 6.985 2.5037 
4.9056 6.7047 2.3037 4.79886 6.655 2.2 4.77104 6.6 2.2 
4.72807 6.545 2.2 4.67704 6.49 2.2 4.63601 6.435 2.2 
4.62011 6.38 2.2 4.60604 6.325 2.2 4.57682 6.27 2.2 
4.55093 6.215 2.2 4.50796 6.16 2.2 4.455 6.105 2.2 
4.40204 6.05 2.2 4.35896 5.995 2.2 4.33114 5.94 2.20741 
4.29 5.885 2.22963 4.24896 5.83 2.27407 4.22318 5.775 2.32593 
4.19396 5.72 2.37037 4.17989 5.665 2.38519 4.16399 5.61 2.37037 
4.12285 5.555 2.32593 4.06989 5.5 2.27407 4.01511 5.445 2.23704 
3.96204 5.39 2.23704 3.91907 5.335 2.27407 3.89308 5.28 2.32593 
3.86203 5.225 2.37037 3.83808 5.17 2.39259 3.80918 5.115 2.40741 
3.79897 5.06 2.42963 3.80703 5.005 2.47407 3.82207 4.95 2.53333 
3.80692 4.895 2.60741 3.79693 4.84 2.6963 3.79511 4.785 2.8 
3.795 4.73 2.8963 3.795 4.675 2.96296 3.79489 4.62 2.99259 
3.79296 4.565 3 3.78104 4.51 3 3.75386 4.455 3 
3.74011 4.4 3 3.72829 4.345 3.00741 3.71497 4.29 3.02963 
3.74204 4.235 3.07407 3.7791 4.18 3.12593 3.79285 4.125 3.17778 
3.79489 4.07 3.22222 3.795 4.015 3.28148 3.795 3.96 3.35556 
3.79511 3.905 3.44444 3.79693 3.85 3.51111 3.80703 3.795 3.54074 
3.82422 3.74 3.52593 3.82293 3.685 3.5037 3.85204 3.63 3.51111 
3.89125 3.575 3.55556 3.91886 3.52 3.61481 3.96 3.465 3.64444 
4.00104 3.41 3.64444 4.02692 3.355 3.62963 4.05797 3.3 3.63704 
4.08192 3.245 3.66667 4.11104 3.19 3.6963 4.125 3.135 3.6963 
4.13896 3.08 3.66667 4.16797 3.025 3.62963 4.18978 2.97 3.6 
4.20503 2.915 3.57037 4.18011 2.86 3.53333 4.15701 2.80511 3.5037 
4.1843 2.75204 3.5037 4.23521 2.70907 3.54074 4.29 2.68308 3.6 
4.34511 2.65189 3.66914 4.40215 2.62521 3.73827 4.47101 2.57762 3.80494 
5.68288 1.7457 2.57989 5.73077 1.71903 2.77884 5.156 6.47815 2.38889 
5.2091 6.43307 2.39444 5.23886 6.38 2.39815 5.28204 6.32704 2.4 
5.33511 6.28396 2.4 5.39 6.25614 2.4 5.445 6.21511 2.4 
5.5 6.1759 2.4 5.555 6.16011 2.4 5.61 6.14604 2.4 
5.665 6.11682 2.4 5.72 6.09093 2.39259 5.775 6.04796 2.37037 
5.83 5.99489 2.33333 5.885 5.94 2.3037 5.94 5.885 2.3037 
5.995 5.83 2.33333 6.05 5.775 2.37037 6.10489 5.72 2.39259 
6.15796 5.665 2.4 6.20104 5.61 2.4 6.22886 5.555 2.4 
6.27 5.5 2.40741 6.31114 5.445 2.42963 6.33896 5.39 2.47407 
6.38193 5.335 2.52593 6.43307 5.28 2.57037 6.47604 5.225 2.59259 
6.50396 5.17 2.6 6.54704 5.115 2.6 6.6 5.06 2.60741 
6.65296 5.005 2.62963 6.69593 4.95 2.66667 6.72192 4.895 2.7037 
6.75308 4.84 2.72593 6.77896 4.785 2.74074 6.82 4.73 2.75556 
6.86114 4.675 2.77778 6.88886 4.62 2.79259 6.93 4.565 2.8 
6.97114 4.51011 2.80741 6.99896 4.45704 2.82963 7.04193 4.41396 2.87407 
7.09307 4.38603 2.92593 7.13593 4.34296 2.97037 7.16182 4.28989 2.99259 
7.19093 4.235 3 7.20296 4.18 3 7.20479 4.125 3 
7.20285 4.07 3 7.18899 4.015 3.00741 7.15 3.96 3.02963 
7.11101 3.905 3.07407 7.09715 3.85 3.12593 7.09511 3.795 3.17778 
7.095 3.74 3.22222 7.09489 3.685 3.26667 7.09296 3.63 3.2963 
7.08114 3.575 3.3037 7.0559 3.52 3.2963 7.05396 3.465 3.3037 
7.06718 3.41 3.33333 7.05192 3.355 3.37778 7.04193 3.3 3.42222 
7.04 3.245 3.46667 7.03796 3.19 3.5037 7.02604 3.135 3.52593 
6.99896 3.08 3.54074 6.98693 3.025 3.55556 6.98296 2.97 3.57778 
6.96899 2.915 3.59259 6.93 2.86 3.60741 6.89101 2.805 3.62963 
6.87715 2.75 3.67407 6.875 2.695 3.72593 6.87285 2.64 3.76296 
6.85889 2.585 3.76296 6.81785 2.53011 3.72593 6.76495 2.47699 3.67037 
6.71097 2.433 3.62593 6.66096 2.40018 3.61481 5.04285 6.59885 2.39074 
5.03855 6.75967 2.4 5.05499 6.81928 2.4 5.04374 6.87496 2.40741 
5.00285 6.93 2.43704 4.94989 6.985 2.5037 4.89511 7.095 2.6 
4.89704 7.15 2.6 4.90907 7.205 2.60741 4.93808 7.26 2.62963 
4.96176 7.315 2.66667 4.98803 7.37 2.7037 4.98507 7.425 2.72593 
4.98507 7.535 2.72593 4.98813 7.59 2.7037 4.9637 7.645 2.65926 
4.9109 7.755 2.59259 4.9341 7.755 2.60741 5.81389 1.76 3.0963 
5.8257 1.81489 3.2 5.81378 1.86796 3.2963 5.77282 1.91107 3.37037 
5.71918 1.93968 3.42963 5.65967 1.98738 3.5037 5.83 1.65 3.0963 
4.95 1.77386 3 4.895 1.80114 3 4.84 1.81511 3 
4.78511 1.83101 3.00741 4.73204 1.87215 3.02963 4.68896 1.92511 3.07407 
4.66104 1.98 3.12593 4.61796 2.035 3.17037 5.06 1.77396 3.19259 
5.115 1.80308 3.36296 5.17 1.82692 3.48889 5.225 1.85593 3.56296 
5.28 1.86807 3.59259 5.335 1.87204 3.6 5.39007 1.88615 3.6 
5.44643 1.92786 3.6 5.51067 1.98544 3.6 4.51215 2.145 3.26667 
4.47122 2.2 3.33333 4.45919 2.255 3.40741 4.46918 2.31007 3.49877 
4.49818 2.36643 3.61235 4.52396 2.43067 3.73827 4.62 2.145 3.4 
5.60671 2.13433 3.6 5.62325 2.19857 3.6 5.65111 2.25493 3.60741 
5.66511 2.31 3.62963 5.68101 2.36489 3.68148 5.72215 2.41785 3.75556 
5.77511 2.45889 3.85185 5.83 2.47274 3.94074 5.885 2.47285 4.01481 
5.94 2.46104 4.04444 5.995 2.43386 4.04444 6.05 2.42 4.02222 
6.105 2.40614 4.00741 6.16 2.37896 4 6.215 2.36704 3.99259 
6.27 2.36511 3.97037 6.325 2.36489 3.92593 6.38 2.36296 3.87407 
6.43505 2.35109 3.81852 6.49097 2.32515 3.76667 6.55096 2.32208 3.7037 
4.90886 2.36489 4.06667 4.88104 2.41785 4.12593 4.83796 2.45889 4.16296 
4.78479 2.47292 4.15802 4.72785 2.47633 4.10123 4.65899 2.48567 3.99753 

LINES 28 404
14 25 26 27 28 29 30 31 32 33 34 35 36 37 24 
8 22 38 39 40 41 42 43 23 
4 22 44 45 20 
5 23 46 47 48 21 
4 22 49 50 21 
29 23 51 52 53 54 55 56 57 58 59 60 61 62 63 64 65 66 67 68 69 70 71 72 73 74 75 76 77 9 
4 22 78 79 20 
5 20 80 81 82 16 
7 21 83 84 85 86 87 17 
3 20 88 17 
3 16 89 17 
4 19 90 91 16 
7 18 100 101 102 103 104 12 
3 18 105 13 
79 18 106 107 108 109 110 111 112 113 114 115 116 117 118 119 120 121 122 123 124 125 126 127 128 129 130 131 132 133 134 135 136 137 138 139 140 141 142 143 144 145 146 147 148 149 150 151 152 153 154 155 156 157 158 159 160 161 162 163 164 165 166 167 168 169 170 171 172 173 174 175 176 177 178 179 180 181 182 0 
7 13 267 268 269 270 271 12 
3 10 282 9 
3 10 283 9 
8 8 284 285 286 287 288 289 4 
3 8 290 6 
10 7 291 292 293 294 295 296 297 298 5 
11 7 299 300 301 302 303 304 305 306 307 4 
8 5 308 309 310 311 312 313 0 
3 5 314 3 
8 1 336 337 338 339 340 341 0 
13 7 99 98 97 96 95 94 93 92 15 183 184 8 
13 12 272 273 274 275 276 277 278 11 279 280 281 10 
107 4 315 316 317 318 319 320 321 322 323 324 325 326 327 328 329 330 331 332 333 334 335 2 265 264 263 262 261 260 259 258 257 256 255 254 253 252 251 250 249 248 247 246 245 244 243 242 241 240 239 238 237 236 235 234 233 232 231 230 229 228 227 226 225 224 223 222 221 220 219 218 217 216 215 214 213 212 211 210 209 208 207 206 205 204 203 202 201 200 199 198 197 196 195 194 193 192 191 190 189 188 187 186 185 14 266 13 

POINT_DATA 342
FIELD FieldData 8
rRFP 1 342 double
2430.4 2405.74 2422.64 2361.51 2411.47 2390.43 2395.73 2528.95 2531.07 
2383.46 2427.3 2511.7 2358.15 2474.75 2439.09 2629.89 2749.46 2605.86 
2463.85 2647.75 2661.98 2933.05 2762.85 2780.14 2311.26 2263.72 2349.51 
2361.56 2424.96 2440.91 2449.26 2436.43 2405.94 2405.94 2408.81 2388.7 
2425.72 2364.96 2804.81 2776.69 2737.36 2672.42 2815.59 2833.79 2747.69 
2633.68 2800.1 2867.12 2969.26 2749.46 2879.35 2739.64 2675.22 2707.57 
2802.52 2731.9 2746.04 2732.98 2761.2 2759.49 2726.98 2654.32 2679.91 
2664.38 2667.48 2608.31 2596.79 2525.99 2410.86 2410.86 2365.21 2359.31 
2359.31 2393.8 2389.84 2389.84 2389.09 2399.86 2498.7 2529.84 2627.16 
2668.74 2687.4 2740.26 2732.19 2756.57 2743.17 2693.37 2688.68 2655.42 
2752.57 2809.17 2581.68 2568.14 2544.57 2528.43 2516.21 2509.81 2544.56 
2554 2461.84 2432.99 2428.98 2420.49 2392.01 2491.28 2479.32 2454.75 
2458.47 2403.15 2415.25 2415.25 2421.73 2411.4 2431.53 2409.25 2396.36 
2388.21 2362.42 2374.88 2371.65 2384.38 2390.22 2479.07 2557.04 2557.04 
2641.23 2646.06 2653.9 2619.06 2582.43 2585.68 2656.78 2695.8 2706.46 
2638.42 2638.42 2511.44 2487.26 2446.83 2434.1 2430.65 2436.78 2474.4 
2474.4 2469.91 2464.56 2464.56 2477.31 2463.62 2454.14 2441.99 2455.48 
2447.72 2414.38 2412.77 2447.74 2470.12 2462.38 2488.04 2506.31 2489.86 
2460.58 2395.21 2367.44 2367.44 2370.23 2411.14 2397.42 2398.91 2416.86 
2388.11 2382.04 2366.96 2376.44 2381.38 2375.3 2393.81 2425.31 2464 
2479.05 2485.44 2466.17 2662.8 2633.22 2408.23 2377.07 2354.94 2343.63 
2319.88 2312.84 2326.42 2342.83 2361.72 2394.2 2394.2 2404.41 2423.14 
2411.8 2406.88 2433.25 2492.74 2476.68 2503.11 2509.79 2484.85 2487.53 
2504.88 2478.44 2481.8 2417.28 2421.1 2426.12 2388.14 2421.21 2439.02 
2419.84 2468.05 2491.3 2491.3 2555.32 2515.96 2561.06 2619 2619 
2635.27 2621.98 2618.78 2629.98 2604.67 2581.69 2581.69 2598.15 2607.53 
2607.53 2566.3 2550.58 2540.62 2534.56 2514.9 2500.12 2460.17 2460.17 
2448.47 2479.36 2441.91 2441.91 2416.74 2401.81 2423.94 2423.94 2389.9 
2383.98 2383.98 2378.54 2385.1 2389.85 2389.85 2384.15 2410.94 2412.36 
2421.05 2419.8 2406.42 2412.75 2405.8 2474.83 2437.99 2413.23 2372.77 
2375.2 2371.65 2357.26 2391.85 2391.85 2426.77 2431.14 2410.38 2510.31 
2511.7 2448.21 2457.74 2371.44 2371.44 2532.44 2477.95 2417.26 2378.02 
2382.06 2401.25 2538.38 2561.7 2569.12 2545.68 2551.81 2506.11 2453.59 
2409.95 2384.01 2509.59 2492.14 2466.98 2454.84 2417.23 2384.79 2386.88 
2386.8 2408.26 2403.85 2436.28 2462.17 2469.27 2477.05 2441.43 2405.31 
2410.78 2396.84 2412.16 2394.6 2409.12 2364.57 2368 2371.84 2364.9 
2337.79 2337.79 2332.09 2354.6 2354.6 2343.21 2343.21 2363.09 2424.78 
2442.05 2450.28 2450.56 2435.06 2427.9 2405.95 2404.74 2407.68 2429.32 

rGFP 1 342 double
2891.95 2799.67 2746.74 2894.17 2752.99 2939.02 2809.47 3157.53 3128.04 
3122.56 3100.26 3186.32 3147.98 3177.1 3243.3 3072.85 3700.27 3875.81 
3024.75 3466.21 3898.44 3776.01 3473.54 3589.47 2896.9 2673.22 2771.4 
2777.4 2834.85 2877.41 2856.72 2894.56 2979.46 2979.46 3067.3 3077.72 
3054.62 2996.2 3311.96 3313.86 3314.56 3442.31 3523.83 3573.59 3477.37 
3568.84 3564.74 3544.06 3707.98 3457.64 3680.19 3553.89 3527.73 3522.96 
3529.93 3648.93 3606.63 3566.38 3476.21 3453.85 3432.88 3426.8 3450.35 
3464.7 3497.63 3562.09 3473.72 3553.28 3564.1 3564.1 3455.6 3412.77 
3412.77 3343.05 3350.47 3350.47 3297.37 3269.43 3377.58 3373.99 4078.89 
3897.96 3734.51 3835.69 3661.86 3641.99 3762.46 3866.12 3810.05 3832.07 
3549.9 3557.86 3072.7 3017.9 3034.44 3011.68 2959.99 3021.12 3048.41 
3107.15 3053.65 2982.83 3011.17 3072.26 3162.95 3090.74 3012.32 3001.53 
3007.28 2999.48 3034.01 3034.01 3100.38 3061.96 3083.37 3089.23 3083.07 
3091.53 3078.27 3041.15 3022.62 2996.9 2971.84 2994.98 3051.56 3051.56 
3102.22 3159.37 3120.96 3308.42 3396.16 3403.2 3345.98 3327.19 3215.49 
3150.54 3150.54 3037.96 3047.3 3161.98 3072.38 3150.01 3090.25 3044.04 
3044.04 3033.74 3027.23 3027.23 2909.9 2911.74 2945.96 2928.46 2923.26 
2955.37 2891.07 2975.51 2927.74 2903.51 2906.6 2869.83 2828.36 2850.11 
2838.58 2836.16 2851.09 2851.09 2838.75 2920.64 2947.79 2978.94 3077.32 
3022.32 2982.91 2968.49 2998.86 3013.01 2949.19 2939.63 2948.88 2969.56 
2962.35 2934.44 2934.88 3112.22 3205.43 3236.93 3217.93 3213.05 3240.94 
3250.67 3198.75 3258.77 3187.38 3232.56 3281.81 3281.81 3262.51 3235.98 
3157.6 3182.23 3220.7 3217.78 3404.88 3291.38 3307.47 3342.99 3245.02 
3199.57 3257.16 3148.41 3162.99 3164.53 3151.38 3156.88 3112.52 3104.1 
3107.96 3130.78 3121.3 3121.3 3014.85 3007.09 2977.33 2953.67 2953.67 
3050.12 3071.16 3098.84 3088.99 3081.48 3095.42 3095.42 3106.33 3098.96 
3098.96 3079.57 3129.44 3085.88 3106.12 3141.57 3120.36 3127.75 3127.75 
3160.64 3059.62 3041.78 3041.78 3048.19 2988.47 3034.77 3034.77 3052.23 
3009.59 3009.59 2997.49 2877.58 2849.85 2849.85 2794.17 2792.91 2816.62 
2814.09 2799.23 2792.67 2756.91 2757.85 3228.17 3139.95 3120.32 3108.06 
3160.49 3179.21 3200.14 3239.68 3239.68 3201.09 3166.88 3197.67 3165.88 
3186.32 3184.75 3153.35 3164.65 3164.65 3057.27 2956.23 2863.02 2809.37 
2774.72 2742.6 2964.95 3090.36 3055.16 3058.81 3057.75 3034.78 2990.01 
2929.35 2912.2 3158.11 3054.58 2881.96 2892.12 2812.16 2756.1 2739.09 
2708.05 2701.11 2930.78 2834.94 2829.4 2862.96 2932.47 2906.02 2978.16 
2735.94 2748.33 2753.37 2715.42 2738.41 2766.11 2784.72 2792.79 2807.31 
2844.37 2844.37 2911.93 2816.75 2816.75 2876.49 2876.49 2816.79 2838.59 
2824.75 2810.68 2768.33 2820.69 2856.48 2857.56 2875.16 2863.16 2874.67 

TubeWidth 1 342 double
0.136564 0.135818 0.213645 0.0152949 0.150577 0.13676 0.198876 0.162492 0.252556 
0.0779168 0.0921699 0.254654 0.134505 0.189528 0.228041 0.167713 0.235182 0.113976 
0.131562 0.203833 0.212043 0.267264 0.225644 0.264208 0.143616 0.0544429 0.101707 
0.202785 0.185004 0.242707 0.243406 0.21722 0.164324 0.197928 0.1727 0.202768 
0.226749 0.217899 0.0849817 0.125181 0.125393 0.146974 0.178266 0.219005 0.164489 
0.0966359 0.135663 0.140911 0.172427 0.186691 0.238656 0.135028 0.214279 0.171038 
0.213904 0.256845 0.210624 0.251854 0.202464 0.239085 0.209407 0.185088 0.204969 
0.231845 0.25787 0.267757 0.274642 0.17704 0.118378 0.137307 0.157918 0.130207 
0.108818 0.145722 0.172047 0.19428 0.186969 0.223592 0.0566662 0.108421 0.173273 
0.0872587 0.122557 0.183931 0.164378 0.210974 0.236001 0.215361 0.127339 0.144327 
0.281093 0.289036 0.236658 0.194271 0.179076 0.21827 0.16955 0.231386 0.200815 
0.231081 0.152957 0.163271 0.151193 0.170142 0.222996 0.145664 0.173487 0.153286 
0.146513 0.152614 0.18525 0.205087 0.214782 0.203345 0.177365 0.168154 0.163488 
0.187942 0.212426 0.182911 0.171571 0.179817 0.19149 0.176428 0.221263 0.188306 
0.246921 0.253522 0.232367 0.196466 0.199465 0.2365 0.222538 0.239443 0.269643 
0.232714 0.216581 0.216625 0.193983 0.262908 0.229391 0.269206 0.218297 0.213874 
0.197422 0.18171 0.198937 0.211068 0.226671 0.247502 0.245017 0.277486 0.226526 
0.212874 0.22832 0.240084 0.240148 0.267593 0.259093 0.27645 0.264995 0.271874 
0.245586 0.18199 0.173606 0.185423 0.202968 0.200478 0.227207 0.207749 0.176763 
0.122903 0.110367 0.12443 0.131373 0.133357 0.0937595 0.137862 0.194622 0.215465 
0.230022 0.23128 0.143957 0.152814 0.272365 0.185565 0.176496 0.153086 0.130243 
0.12031 0.0852838 0.0993974 0.125442 0.151711 0.170347 0.187793 0.204543 0.188311 
0.185891 0.207786 0.246473 0.249923 0.236756 0.23739 0.234547 0.221121 0.209747 
0.219177 0.241089 0.247835 0.253357 0.220781 0.18324 0.211822 0.208544 0.216804 
0.221412 0.241965 0.245893 0.236611 0.24476 0.237527 0.239233 0.248396 0.229321 
0.221129 0.212512 0.238438 0.243126 0.223002 0.240527 0.242423 0.224105 0.220339 
0.244134 0.266855 0.268113 0.263205 0.249621 0.220894 0.216401 0.25178 0.255913 
0.257968 0.251008 0.232984 0.220339 0.201147 0.218142 0.236824 0.256244 0.228577 
0.226814 0.219285 0.205331 0.164856 0.143552 0.187615 0.229524 0.216108 0.190114 
0.177878 0.233887 0.221176 0.212174 0.21234 0.205746 0.181736 0.171554 0.143737 
0.114834 0.148754 0.18209 0.175819 0.178697 0.194298 0.204563 0.202504 0.24615 
0.297726 0.247975 0.194498 0.0759451 0.0741905 0.21645 0.157374 0.196677 0.0735184 
0.125708 0.17309 0.284572 0.212947 0.244808 0.239111 0.22056 0.223485 0.224171 
0.208817 0.183404 0.0821163 0.129471 0.186369 0.192158 0.188228 0.174323 0.131795 
0.0402146 0.0875292 0.184514 0.180372 0.19601 0.219456 0.159749 0.162679 0.101325 
0.204187 0.18469 0.160039 0.190412 0.238687 0.168659 0.178635 0.147676 0.128349 
0.129615 0.0898831 0.10906 0.12243 0.127666 0.108227 0.118201 0.180053 0.238888 
0.221302 0.195031 0.194819 0.19411 0.150127 0.152354 0.181466 0.247918 0.207309 

DY_minmax 1 342 double
0.141035 0.0946552 0.0495655 0.232576 0.0575588 0.221075 0.109127 0.200915 0.187241 
0.393643 0.280235 0.227027 0.515629 0.260027 0.35045 0.121434 0.236984 0.390278 
0.190769 0.230069 0.343123 0.185806 0.17982 0.199123 0.437089 0 0.116133 
0.109604 0.107502 0.124304 0.106967 0.138028 0.228949 0.228949 0.289196 0.340701 
0.252567 0.329511 0.13261 0.140142 0.151676 0.210024 0.173215 0.177608 0.186213 
0.269441 0.186684 0.162465 0.165534 0.180999 0.184197 0.207302 0.231804 0.214123 
0.178605 0.233382 0.21687 0.213161 0.181006 0.176558 0.183592 0.215061 0.208497 
0.220358 0.227811 0.286481 0.266633 0.36905 0.645315 0.645315 0.796464 0.794483 
0.794483 0.543818 0.565717 0.565717 0.52424 0.464126 0.328113 0.28978 0.430245 
0.337412 0.279837 0.27329 0.236337 0.220381 0.254552 0.310277 0.298873 0.329818 
0.201029 0.182224 0.139172 0.125233 0.141838 0.140673 0.124714 0.155063 0.147326 
0.165054 0.208439 0.196762 0.219662 0.272469 0.402704 0.20054 0.171467 0.186185 
0.186029 0.248441 0.2543 0.2543 0.289543 0.280647 0.262782 0.304453 0.326835 
0.35362 0.422814 0.344941 0.336432 0.28157 0.248747 0.162874 0.142472 0.142472 
0.126553 0.141652 0.127912 0.198717 0.251282 0.251255 0.190827 0.169164 0.13698 
0.141835 0.141835 0.161546 0.182754 0.288484 0.252124 0.306984 0.259577 0.191669 
0.191669 0.190189 0.191478 0.191478 0.12075 0.129583 0.155146 0.154501 0.141288 
0.165778 0.154371 0.216363 0.149525 0.121368 0.127539 0.0957342 0.0701013 0.0854705 
0.0911481 0.13098 0.177543 0.177543 0.161313 0.178914 0.217348 0.239534 0.282022 
0.295328 0.274284 0.295979 0.301433 0.30247 0.257838 0.216271 0.182974 0.160702 
0.146372 0.128615 0.140452 0.122694 0.160304 0.415223 0.50166 0.604694 0.714926 
0.983872 1 0.909254 0.653241 0.58763 0.492724 0.492724 0.445007 0.378304 
0.348799 0.378237 0.34744 0.259971 0.374327 0.282894 0.282718 0.330606 0.279032 
0.23919 0.296418 0.237679 0.340938 0.334269 0.315904 0.409084 0.298685 0.264967 
0.298009 0.243469 0.215205 0.215205 0.129379 0.145333 0.113027 0.0877499 0.0877499 
0.112916 0.12351 0.133255 0.126308 0.132943 0.14708 0.14708 0.143696 0.137517 
0.137517 0.148504 0.175526 0.164255 0.176019 0.204699 0.207096 0.251037 0.251037 
0.285286 0.195351 0.223184 0.223184 0.261885 0.2422 0.241905 0.241905 0.316454 
0.293517 0.293517 0.295163 0.176811 0.147529 0.147529 0.105403 0.086659 0.102898 
0.0958672 0.086399 0.0890204 0.0599077 0.0633275 0.286288 0.288619 0.319082 0.414835 
0.455634 0.487215 0.577141 0.466335 0.466335 0.347456 0.316985 0.381045 0.219161 
0.227027 0.299795 0.268315 0.474035 0.474035 0.157334 0.143977 0.132146 0.124439 
0.0898727 0.0535094 0.117029 0.154713 0.138338 0.150833 0.147333 0.163504 0.180691 
0.186603 0.208472 0.216307 0.18252 0.111629 0.124087 0.0967473 0.0718725 0.0562316 
0.0297501 0.0205396 0.195212 0.100931 0.085431 0.100393 0.132416 0.141336 0.22892 
0.0454538 0.0596971 0.0575844 0.0340656 0.0477426 0.0951028 0.110757 0.114953 0.136875 
0.230299 0.230299 0.344247 0.161303 0.161303 0.257166 0.257166 0.14896 0.110108 
0.0916959 0.0797146 0.0550816 0.0926553 0.119845 0.137802 0.152163 0.140409 0.130679 

DY_raw 1 342 double
13.6891 9.18743 4.81093 22.5743 5.58678 21.458 10.5921 19.5012 18.174 
38.2078 27.2001 22.0357 50.048 25.2387 34.0154 11.7866 23.0022 37.8812 
18.5164 22.3309 33.3042 18.0347 17.4537 19.3272 42.4247 0 11.2721 
10.6384 10.4344 12.0652 10.3824 13.3973 22.2223 22.2223 28.0699 33.0691 
24.5147 31.983 12.8714 13.6025 14.722 20.3854 16.8126 17.239 18.0742 
26.1525 18.1199 15.7692 16.067 17.5681 17.8786 20.1212 22.4993 20.7832 
17.3357 22.6526 21.0498 20.6898 17.5689 17.1371 17.8198 20.8743 20.2372 
21.3884 22.1118 27.8064 25.88 35.8207 62.6356 62.6356 77.3064 77.1142 
77.1142 52.784 54.9097 54.9097 50.8837 45.0491 31.8473 28.1266 41.7605 
32.7499 27.1615 26.5261 22.9394 21.3907 24.7074 30.1161 29.0092 32.0128 
19.5122 17.687 13.5083 12.1554 13.767 13.654 12.105 15.0508 14.2998 
16.0204 20.2315 19.0981 21.3209 26.4464 39.0873 19.4648 16.643 18.0715 
18.0563 24.1141 24.6829 24.6829 28.1037 27.2401 25.5062 29.5509 31.7232 
34.3231 41.0392 33.4806 32.6548 27.3297 24.1439 15.8088 13.8286 13.8286 
12.2835 13.749 12.4154 19.2879 24.39 24.3873 18.5221 16.4194 13.2955 
13.7668 13.7668 15.6799 17.7385 28.0009 24.4717 29.7964 25.1951 18.6038 
18.6038 18.4602 18.5852 18.5852 11.7202 12.5776 15.0588 14.9961 13.7137 
16.0908 14.9836 21.0007 14.5132 11.7802 12.3792 9.29216 6.80417 8.29594 
8.84702 12.7132 17.2327 17.2327 15.6574 17.3657 21.0962 23.2497 27.3736 
28.6651 26.6225 28.7283 29.2577 29.3584 25.0263 20.9917 17.7599 15.598 
14.2072 12.4836 13.6325 11.9089 15.5594 40.3024 48.6921 58.6928 69.3921 
95.4966 97.062 88.2541 63.4049 57.0366 47.8248 47.8248 43.1933 36.719 
33.8552 36.7125 33.7232 25.2333 36.3329 27.4582 27.4412 32.0893 27.0834 
23.2163 28.7709 23.0696 33.0921 32.4449 30.6623 39.7065 28.991 25.7182 
28.9254 23.6316 20.8882 20.8882 12.5578 14.1063 10.9707 8.51719 8.51719 
10.9599 11.9882 12.934 12.2597 12.9037 14.2759 14.2759 13.9474 13.3477 
13.3477 14.4141 17.0369 15.943 17.0848 19.8685 20.1012 24.3661 24.3661 
27.6904 18.9612 21.6627 21.6627 25.419 23.5084 23.4798 23.4798 30.7157 
28.4894 28.4894 28.6492 17.1617 14.3195 14.3195 10.2306 8.4113 9.98753 
9.30506 8.38607 8.6405 5.81476 6.1467 27.7877 28.0139 30.9707 40.2648 
44.2248 47.2901 56.0184 45.2634 45.2634 33.7248 30.7672 36.985 21.2722 
22.0357 29.0987 26.0432 46.0108 46.0108 15.2711 13.9747 12.8264 12.0783 
8.72322 5.19373 11.3591 15.0167 13.4273 14.6401 14.3005 15.87 17.5382 
18.112 20.2347 20.9952 17.7158 10.835 12.0441 9.39049 6.97609 5.45795 
2.8876 1.99362 18.9476 9.79654 8.2921 9.74437 12.8526 13.7184 22.2194 
4.41184 5.79433 5.58926 3.30648 4.63399 9.23087 10.7503 11.1576 13.2853 
22.3533 22.3533 33.4133 15.6564 15.6564 24.961 24.961 14.4584 10.6873 
8.90019 7.73726 5.34634 8.99332 11.6324 13.3753 14.7692 13.6284 12.684 

WidthEq 1 342 double
15.9783 13.7628 15.2816 9.78771 14.2775 12.3871 12.863 24.8348 25.0256 
11.7603 15.6998 23.2849 9.48595 19.9644 16.7593 33.9054 44.6501 31.7465 
18.9848 35.5107 36.7888 61.1483 45.8538 47.407 5.27238 1 8.70936 
9.79215 15.4901 16.9235 17.6735 16.5208 13.7805 13.7805 14.039 12.2318 
15.5578 10.0984 49.6248 47.0975 43.5629 37.7273 50.5933 52.2286 44.4915 
34.246 49.201 55.224 64.4022 44.6501 56.3223 43.7681 37.9792 40.8859 
49.4184 43.0725 44.3428 43.169 45.7052 45.5521 42.6299 36.1009 38.4008 
37.0051 37.2836 31.9661 30.931 24.5685 14.2232 14.2232 10.1205 9.59024 
9.59024 12.69 12.3338 12.3338 12.2662 13.2347 22.1167 24.9147 33.6602 
37.3967 39.0731 43.8236 43.098 45.2892 44.0854 39.61 39.1885 36.1997 
44.9297 50.0164 29.5731 28.3561 26.2382 24.7882 23.6899 23.1152 26.2371 
27.0858 18.804 16.2113 15.8507 15.0885 12.5291 21.4499 20.3749 18.1672 
18.5011 13.5298 14.617 14.617 15.1995 14.2709 16.0803 14.0778 12.9196 
12.1874 9.86981 10.9892 10.6997 11.8435 12.3682 20.3527 27.3587 27.3587 
34.9249 35.3587 36.0632 32.9324 29.6408 29.9326 36.3217 39.8286 40.786 
34.672 34.672 23.2616 21.0883 17.4549 16.3111 16.0016 16.5518 19.9322 
19.9322 19.5295 19.048 19.048 20.1941 18.9637 18.1117 17.02 18.2326 
17.5348 14.5394 14.394 17.537 19.5484 18.8528 21.1582 22.8001 21.3224 
18.6908 12.8164 10.3213 10.3213 10.5721 14.2476 13.015 13.1493 14.7624 
12.1785 11.6327 10.2781 11.1301 11.5739 11.0269 12.6911 15.5212 18.9981 
20.3505 20.9252 19.1934 36.8631 34.2049 13.9869 11.1867 9.1975 8.18127 
6.04675 5.41438 6.63474 8.10916 9.80657 12.7255 12.7255 13.6429 15.3259 
14.3075 13.8648 16.2346 21.5808 20.1375 22.5128 23.113 20.8719 21.1127 
22.6714 20.2961 20.5979 14.8001 15.1429 15.5944 12.1807 15.1529 16.7538 
15.0297 19.362 21.451 21.451 27.2045 23.6677 27.7204 32.9269 32.9269 
34.3891 33.1943 32.9069 33.9132 31.6388 29.5742 29.5742 31.0531 31.8962 
31.8962 28.1908 26.7785 25.8832 25.3385 23.5723 22.2443 18.6542 18.6542 
17.6025 20.3782 17.0134 17.0134 14.7513 13.41 15.3981 15.3981 12.3394 
11.8069 11.8069 11.3187 11.9078 12.3349 12.3349 11.8224 14.2298 14.3574 
15.1384 15.0264 13.8238 14.3929 13.7683 19.9711 16.6606 14.4362 10.7995 
11.0181 10.6997 9.40607 12.5147 12.5147 15.6521 16.0448 14.1799 23.1596 
23.2849 17.5792 18.4356 10.6808 10.6808 25.1487 20.2518 14.7979 11.2721 
11.6349 13.3589 25.6824 27.7781 28.4448 26.338 26.8894 22.7823 18.0629 
14.1411 11.8102 23.0952 21.5265 19.2655 18.1749 14.7956 11.8801 12.0676 
12.0609 13.9891 13.593 16.5075 18.8339 19.4718 20.1708 16.9701 13.7239 
14.2154 12.9629 14.3397 12.7621 14.0667 10.0629 10.3713 10.7163 10.0928 
7.65652 7.65652 7.14397 9.16755 9.16755 8.14355 8.14355 9.92972 15.4735 
17.0256 17.7656 17.79 16.3976 15.7542 13.7816 13.6729 13.9369 15.8818 

bkstGFP 1 342 double
218.728 126.444 73.5185 220.951 79.7654 265.802 136.247 484.309 454.815 
449.333 427.037 513.099 474.753 503.877 570.074 399.63 1027.05 1202.59 
351.531 792.988 1225.22 1102.79 800.321 916.247 223.679 0 98.1728 
104.173 161.63 204.185 183.494 221.333 306.235 306.235 394.074 404.494 
381.395 322.975 638.741 640.642 641.333 769.086 850.605 900.37 804.148 
895.617 891.519 870.84 1034.75 784.42 1006.96 880.667 854.506 849.741 
856.704 975.704 933.407 893.16 802.988 780.63 759.654 753.58 777.123 
791.481 824.407 888.864 800.494 880.062 890.877 890.877 782.383 739.543 
739.543 669.827 677.247 677.247 624.148 596.21 704.358 700.765 1405.67 
1224.74 1061.28 1162.47 988.642 968.765 1089.23 1192.9 1136.83 1158.85 
876.679 884.642 399.481 344.679 361.222 338.457 286.765 347.901 375.185 
433.926 380.432 309.605 337.951 399.037 489.728 417.519 339.099 328.309 
334.062 326.259 360.79 360.79 427.16 388.741 410.148 416.012 409.852 
418.309 405.049 367.926 349.395 323.679 298.617 321.753 378.333 378.333 
429 486.148 447.741 635.198 722.938 729.975 672.753 653.963 542.272 
477.321 477.321 364.741 374.074 488.753 399.16 476.79 417.025 370.815 
370.815 360.519 354.012 354.012 236.679 238.519 272.741 255.235 250.037 
282.148 217.852 302.284 254.519 230.284 233.383 196.605 155.136 176.889 
165.358 162.938 177.864 177.864 165.531 247.42 274.568 305.716 404.099 
349.099 309.691 295.272 325.642 339.79 275.963 266.407 275.654 296.333 
289.123 261.222 261.654 439 532.21 563.704 544.704 539.827 567.716 
577.444 525.531 585.543 514.16 559.333 608.593 608.593 589.284 562.753 
484.383 509.012 547.481 544.556 731.654 618.16 634.247 669.765 571.802 
526.346 583.938 475.185 489.765 491.309 478.16 483.654 439.296 430.877 
434.741 457.556 448.074 448.074 341.63 333.864 304.111 280.444 280.444 
376.901 397.938 425.617 415.765 408.259 422.198 422.198 433.111 425.741 
425.741 406.346 456.222 412.654 432.901 468.346 447.136 454.531 454.531 
487.42 386.395 368.556 368.556 374.963 315.247 361.543 361.543 379.012 
336.37 336.37 324.272 204.358 176.63 176.63 120.951 119.691 143.395 
140.864 126.012 119.444 83.6914 84.6296 554.951 466.728 447.099 434.84 
487.272 505.988 526.914 566.457 566.457 527.864 493.654 524.444 492.654 
513.099 511.531 480.123 491.432 491.432 384.049 283.012 189.802 136.148 
101.494 69.3827 291.728 417.136 381.938 385.593 384.531 361.556 316.79 
256.123 238.975 484.889 381.358 208.741 218.901 138.938 82.8765 65.8642 
34.8272 27.8889 257.556 161.716 156.173 189.741 259.247 232.802 304.938 
62.716 75.1111 80.1481 42.1975 65.1852 92.8889 111.494 119.568 134.086 
171.148 171.148 238.704 143.531 143.531 203.272 203.272 143.568 165.37 
151.531 137.457 95.1111 147.469 183.259 184.333 201.938 189.938 201.444 

bkstRFP 1 342 double
177.807 153.153 170.054 108.918 158.881 137.844 143.14 276.363 278.486 
130.869 174.708 259.116 105.56 222.165 186.498 377.301 496.869 353.276 
211.264 395.165 409.387 680.461 510.264 527.548 58.6713 11.128 96.9182 
108.968 172.375 188.326 196.671 183.844 153.35 153.35 156.227 136.116 
173.128 112.375 552.227 524.103 484.77 419.832 563.005 581.202 495.103 
381.091 547.511 614.535 716.671 496.869 626.758 487.054 422.634 454.98 
549.931 479.313 493.449 480.387 508.61 506.906 474.387 401.733 427.326 
411.795 414.893 355.721 344.202 273.4 158.276 158.276 112.622 106.721 
106.721 141.214 137.252 137.252 136.498 147.276 246.116 277.252 374.572 
416.153 434.807 487.671 479.597 503.98 490.585 440.782 436.091 402.832 
499.98 556.585 329.091 315.548 291.98 275.844 263.622 257.227 291.968 
301.412 209.252 180.4 176.387 167.906 139.424 238.696 226.733 202.165 
205.881 150.56 162.659 162.659 169.14 158.807 178.943 156.659 143.77 
135.622 109.832 122.289 119.066 131.795 137.634 226.486 304.449 304.449 
388.647 393.474 401.313 366.474 329.844 333.091 404.19 443.214 453.869 
385.832 385.832 258.856 234.671 194.239 181.511 178.066 184.19 221.807 
221.807 217.326 211.968 211.968 224.721 211.029 201.548 189.4 202.893 